                              Psi4 1.0.54 Driver

  ==> Input File <==

--------------------------------------------------------------------------
set {
	reference rhf
	basis cc-pvtz
}

set_num_threads( 4 )
memory 2 gb

molecule MOL {
0 1

O	 -2.607279	 0.811860	 -0.268622
C	 -2.134425	 -0.163305	 0.218094
C	 -0.909023	 -0.822128	 -0.383897
C	 -2.713045	 -0.785407	 1.466675
C	 0.376695	 -0.140025	 0.100361
H	 -0.984385	 -0.732797	 -1.460211
H	 -0.885483	 -1.876489	 -0.129664
C	 1.630207	 -0.772146	 -0.501001
H	 0.321134	 0.910389	 -0.156098
H	 0.434750	 -0.195079	 1.184749
C	 2.907848	 -0.545876	 0.309149
H	 1.772784	 -0.391628	 -1.509394
H	 1.468529	 -1.842059	 -0.599744
C	 3.373802	 0.906639	 0.372125
H	 3.699140	 -1.146831	 -0.127906
H	 2.764321	 -0.923458	 1.318191
H	 3.519798	 1.311927	 -0.623875
H	 4.316899	 0.983758	 0.900700
H	 2.661122	 1.540651	 0.885346
H	 -3.140973	 -1.751477	 1.218512
H	 -3.479289	 -0.147399	 1.879453
H	 -1.936545	 -0.958918	 2.203242

	symmetry c1
}
set optking {
	frozen_dihedral = ("
		3 5 8 12
	")
}

ee,wfn = optimize('scf', return_wfn=True)
oeprop( wfn, 'DIPOLE', 'QUADRUPOLE', 'MULLIKEN_CHARGES')
f=open( 'psi4out.xyz', 'w' )
f.write( "22  " )
f.write( str(ee) + "\n" )
f.write( MOL.save_string_xyz() )
f.close()
--------------------------------------------------------------------------

    Molecular point group: c1
  Charge       = 0
  Multiplicity = 1
  Basis Set: CC-PVTZ
  Basis Set:
  @DF-RHF Final Energy:  -348.22207356702370
    Total Energy =                       -348.2220735670236991
    Molecular point group: c1
  Basis Set: CC-PVTZ
  Basis Set:
  Basis Set: CC-PVTZ
  Basis Set:
  @DF-RHF Final Energy:  -348.22171748105427
    Total Energy =                       -348.2217174810542701
  Basis Set: CC-PVTZ
  Basis Set:
  Basis Set: CC-PVTZ
  Basis Set:
  @DF-RHF Final Energy:  -348.22224500483338
    Total Energy =                       -348.2222450048330984
  Basis Set: CC-PVTZ
  Basis Set:
  Basis Set: CC-PVTZ
  Basis Set:
  @DF-RHF Final Energy:  -348.22204336266674
    Total Energy =                       -348.2220433626665681
  Basis Set: CC-PVTZ
  Basis Set:
  @DF-RHF Final Energy:  -348.22222179594570
    Total Energy =                       -348.2222217959450745
  Basis Set: CC-PVTZ
  Basis Set:
  @DF-RHF Final Energy:  -348.22227367822535
    Total Energy =                       -348.2222736782251786
  Basis Set: CC-PVTZ
  Basis Set:
  Basis Set: CC-PVTZ
  Basis Set:
  @DF-RHF Final Energy:  -348.22226919099631
    Total Energy =                       -348.2222691909965988
  Basis Set: CC-PVTZ
  Basis Set:
  Basis Set: CC-PVTZ
  Basis Set:
  @DF-RHF Final Energy:  -348.22229713037689
    Total Energy =                       -348.2222971303767736
  Basis Set: CC-PVTZ
  Basis Set:
  Charge       = 0
  Multiplicity = 1
  Basis Set: CC-PVTZ
  Basis Set:

    Orbital Energies (a.u.)
    -----------------------

    Doubly Occupied:

       1A    -20.536697     2A    -11.319216     3A    -11.228162
       4A    -11.227565     5A    -11.226935     6A    -11.220495
       7A    -11.219150     8A    -11.210093     9A     -1.396830
      10A     -1.097207    11A     -1.045998    12A     -1.000096
      13A     -0.938439    14A     -0.859512    15A     -0.786580
      16A     -0.734848    17A     -0.665081    18A     -0.645729
      19A     -0.629008    20A     -0.620861    21A     -0.596298
      22A     -0.589437    23A     -0.562034    24A     -0.538800
      25A     -0.537059    26A     -0.524721    27A     -0.497427
      28A     -0.491606    29A     -0.470678    30A     -0.466784
      31A     -0.460550    32A     -0.398398

  @DF-RHF Final Energy:  -348.22229750447707

   => Energetics <=

    Nuclear Repulsion Energy =            373.8076388426593439
    One-Electron Energy =               -1212.5752866583120522
    Two-Electron Energy =                 490.5453503111750706
    DFT Exchange-Correlation Energy =       0.0000000000000000
    Empirical Dispersion Energy =           0.0000000000000000
    PCM Polarization Energy =               0.0000000000000000
    EFP Energy =                            0.0000000000000000
    Total Energy =                       -348.2222975044776376
    Molecular point group: c1
  Basis Set: CC-PVTZ
  Basis Set:

  -Total Gradient:
     Atom            X                  Y                   Z
    ------   -----------------  -----------------  -----------------
       1       -0.000019856022     0.000008604010     0.000004249045
       2        0.000019892170    -0.000042575589     0.000005709225
       3        0.000101915200    -0.001528233680     0.001806288665
       4        0.000002287725     0.000016060225    -0.000005485321
       5        0.000276816045     0.002695629914    -0.002220152790
       6       -0.000000778599     0.000003501211     0.000013668383
       7        0.000014543211     0.000008135501    -0.000001504305
       8       -0.002213748484    -0.003620224727    -0.000827065786
       9       -0.000008840781    -0.000020702105    -0.000007615862
      10       -0.000000627531     0.000012315412     0.000001481095
      11        0.000008827556    -0.000008304637     0.000008954620
      12        0.001841094271     0.002458869660     0.001227319510
      13        0.000003892367     0.000014911831     0.000006345848
      14       -0.000019959059    -0.000008118614    -0.000007521195
      15       -0.000010470621     0.000013274479     0.000015860141
      16        0.000000116854     0.000011042224    -0.000022518317
      17       -0.000011888671    -0.000008184110     0.000020696393
      18        0.000002900097    -0.000005010229    -0.000007668787
      19        0.000017822968    -0.000008788105    -0.000005880811
      20        0.000001745460     0.000014747034     0.000000913598
      21        0.000001375080    -0.000006692612    -0.000000385041
      22       -0.000007059235    -0.000000257090    -0.000005688309

  **** Optimization is complete! (in 9 steps) ****
    Final optimized geometry and variables:
    Molecular point group: c1

    Geometry (in Angstrom), charge = 0, multiplicity = 1:

    O           -2.571344022827     0.999219843887    -0.470995880438
    C           -2.120721299237     0.022152886079     0.032566093990
    C           -0.897541976544    -0.662387642642    -0.544824289179
    C           -2.727383428029    -0.577913775456     1.278496705765
    C            0.393156782569     0.006586615067    -0.055170139255
    H           -0.961415623169    -0.590424418261    -1.623602072762
    H           -0.889023266569    -1.712162536547    -0.272930631838
    C            1.647354130921    -0.623007938558    -0.668534110396
    H            0.348948256194     1.064002830824    -0.282530120683
    H            0.444615366762    -0.077484478971     1.027817575534
    C            2.927836499467    -0.369320716549     0.129788197724
    H            1.788512669747    -0.228521501081    -1.671224200560
    H            1.504891074057    -1.694671960580    -0.764340061263
    C            3.325756792388     1.101000395008     0.228614361769
    H            3.738292015860    -0.921922027388    -0.335211734295
    H            2.814523618982    -0.780687651940     1.129396276139
    H            3.448633417667     1.537940947702    -0.757093504410
    H            4.265242549419     1.211168877505     0.757640205822
    H            2.582879019863     1.685844169951     0.758023737651
    H           -3.165777878620    -1.540144107895     1.033784382081
    H           -3.490307198800     0.075637081822     1.672622270350
    H           -1.964965279195    -0.754994868530     2.028808260358

  Mulliken Charges: (a.u.)
   Center  Symbol    Alpha    Beta     Spin     Total
       1     O     4.17772  4.17772  0.00000 -0.35543
       2     C     2.85897  2.85897  0.00000  0.28207
       3     C     3.09624  3.09624  0.00000 -0.19249
       4     C     3.15561  3.15561  0.00000 -0.31122
       5     C     3.10668  3.10668  0.00000 -0.21336
       6     H     0.43942  0.43942  0.00000  0.12117
       7     H     0.44891  0.44891  0.00000  0.10219
       8     C     3.09609  3.09609  0.00000 -0.19218
       9     H     0.43720  0.43720  0.00000  0.12561
      10     H     0.45239  0.45239  0.00000  0.09522
      11     C     3.09081  3.09081  0.00000 -0.18161
      12     H     0.44946  0.44946  0.00000  0.10108
      13     H     0.44850  0.44850  0.00000  0.10300
      14     C     3.15153  3.15153  0.00000 -0.30306
      15     H     0.44794  0.44794  0.00000  0.10413
      16     H     0.45543  0.45543  0.00000  0.08913
      17     H     0.45360  0.45360  0.00000  0.09280
      18     H     0.44606  0.44606  0.00000  0.10789
      19     H     0.45230  0.45230  0.00000  0.09540
      20     H     0.44833  0.44833  0.00000  0.10334
      21     H     0.43600  0.43600  0.00000  0.12800
      22     H     0.45083  0.45083  0.00000  0.09835

   Total alpha = 32.00000, Total beta = 32.00000, Total charge =  0.00000

*** Psi4 exiting successfully. Buy a developer a beer!
