  ==> Input File <==

--------------------------------------------------------------------------
set {
	reference rhf
	basis 6-31G*
}

set_num_threads( 4 )
memory 2 gb

molecule MOL {
0 1

H	 3.893188	 0.355400	 -0.101367
N	 3.092854	 -0.246221	 -0.068770
C	 1.865559	 0.531981	 0.018834
H	 3.199514	 -0.826043	 0.741946
C	 0.645745	 -0.382037	 -0.029944
H	 1.841966	 1.207024	 -0.831236
H	 1.815756	 1.155410	 0.915079
C	 -0.679275	 0.379305	 0.025956
H	 0.698998	 -0.976915	 -0.937203
H	 0.693479	 -1.083846	 0.802235
C	 -0.896287	 1.300341	 -1.176114
H	 -0.717581	 0.970152	 0.939894
H	 -1.504276	 -0.328872	 0.086828
C	 -2.219648	 2.062164	 -1.114061
H	 -0.073909	 2.009606	 -1.238189
H	 -0.861130	 0.712274	 -2.090771
H	 -2.271225	 2.686705	 -0.226590
H	 -2.344071	 2.706372	 -1.979000
H	 -3.064380	 1.379499	 -1.085990

	symmetry c1
}
set optking {
	frozen_dihedral = ("
		12 8 5 9
	")
}

ee = optimize('scf')
oeprop('DIPOLE', 'QUADRUPOLE', 'MULLIKEN_CHARGES')
f=open( 'psi4out.xyz', 'w' )
f.write( "19  " )
f.write( str(ee) + "\n" )
f.write( MOL.save_string_xyz() )
f.close()
--------------------------------------------------------------------------

    Molecular point group: c1
  Charge       = 0
  Multiplicity = 1
  Basis Set: 6-31G*
  Basis Set:
  @DF-RHF Final Energy:  -251.34939596255961
    Total Energy =                       -251.3493959625594698
    Molecular point group: c1
  Basis Set: 6-31G*
  Basis Set:
  Basis Set: 6-31G*
  Basis Set:
  @DF-RHF Final Energy:  -251.34975558179431
    Total Energy =                       -251.3497555817942839
  Basis Set: 6-31G*
  Basis Set:
  Basis Set: 6-31G*
  Basis Set:
  @DF-RHF Final Energy:  -251.35014834185174
    Total Energy =                       -251.3501483418516500
  Basis Set: 6-31G*
  Basis Set:
  Basis Set: 6-31G*
  Basis Set:
  @DF-RHF Final Energy:  -251.35016987109620
    Total Energy =                       -251.3501698710963979
  Basis Set: 6-31G*
  Basis Set:
  Basis Set: 6-31G*
  Basis Set:
  @DF-RHF Final Energy:  -251.35017175088188
    Total Energy =                       -251.3501717508820548
  Basis Set: 6-31G*
  Basis Set:
  Basis Set: 6-31G*
  Basis Set:
  @DF-RHF Final Energy:  -251.35017336741763
    Total Energy =                       -251.3501733674177103
  Basis Set: 6-31G*
  Basis Set:
  Charge       = 0
  Multiplicity = 1
  Basis Set: 6-31G*
  Basis Set:

    Orbital Energies (a.u.)
    -----------------------

    Doubly Occupied:

       1A    -15.532499     2A    -11.239398     3A    -11.213908
       4A    -11.212919     5A    -11.209786     6A    -11.207733
       7A     -1.176655     8A     -1.072325     9A     -0.996558
      10A     -0.899176    11A     -0.828888    12A     -0.775678
      13A     -0.664048    14A     -0.636219    15A     -0.615771
      16A     -0.593472    17A     -0.570154    18A     -0.549436
      19A     -0.525650    20A     -0.499852    21A     -0.489558
      22A     -0.462142    23A     -0.455863    24A     -0.447522
      25A     -0.381067

  @DF-RHF Final Energy:  -251.35017352366228

   => Energetics <=

    Nuclear Repulsion Energy =            248.8464696029230083
    One-Electron Energy =                -831.8807295120304843
    Two-Electron Energy =                 331.6840863854453119
    DFT Exchange-Correlation Energy =       0.0000000000000000
    Empirical Dispersion Energy =           0.0000000000000000
    PCM Polarization Energy =               0.0000000000000000
    EFP Energy =                            0.0000000000000000
    Total Energy =                       -251.3501735236621926
    Molecular point group: c1
  Basis Set: 6-31G*
  Basis Set:

  -Total Gradient:
     Atom            X                  Y                   Z
    ------   -----------------  -----------------  -----------------
       1       -0.000001996346     0.000001321025    -0.000001078038
       2        0.000001343745    -0.000004475699    -0.000011334874
       3        0.000003063401     0.000005173174     0.000017463814
       4       -0.000004617734     0.000002557645    -0.000000464493
       5       -0.000007251017    -0.000016588248     0.000017772323
       6        0.000005357218    -0.000005068717    -0.000000450881
       7       -0.000005382068     0.000005634806    -0.000000839964
       8       -0.000014551823    -0.000028771111    -0.000002531963
       9        0.000002485603     0.000021343674    -0.000010662884
      10       -0.000001243501    -0.000001715681     0.000000081891
      11        0.000005174866     0.000010002127    -0.000001574356
      12        0.000016712091     0.000014935288    -0.000018047953
      13       -0.000000006000    -0.000005224255     0.000005912926
      14       -0.000000402102    -0.000000298705     0.000003314665
      15        0.000000216778     0.000003879338    -0.000002523845
      16        0.000002584751    -0.000002814354     0.000003440549
      17       -0.000002296255     0.000003135286     0.000000272908
      18        0.000001220779    -0.000002805667     0.000000023085
      19       -0.000000412388    -0.000000219926     0.000001227089

  **** Optimization is complete! (in 7 steps) ****
    Final optimized geometry and variables:
    Molecular point group: c1

    Geometry (in Angstrom), charge = 0, multiplicity = 1:

    H            3.603136101267    -0.379245019969     0.346554260789
    N            2.771673901157    -0.937258572866     0.373307655916
    C            1.583962037752    -0.095398576619     0.383111689637
    H            2.819049102703    -1.489095042729     1.208755395965
    C            0.326056737970    -0.958077756464     0.319623718442
    H            1.636949277216     0.549301944807    -0.487043231593
    H            1.528324450235     0.559419036297     1.256920521848
    C           -0.989253456902    -0.175680624654     0.394418105781
    H            0.359323100561    -1.550537880396    -0.590354084864
    H            0.354462814086    -1.666429642044     1.146276897938
    C           -1.260219363578     0.741476198485    -0.801786165873
    H           -1.010101476272     0.413514926412     1.310247265256
    H           -1.807390880275    -0.887986857658     0.476900287714
    C           -2.630445917393     1.414942753033    -0.727575780454
    H           -0.492884990254     1.508179883174    -0.866438512154
    H           -1.191711991972     0.161984745622    -1.720134125863
    H           -2.720221789953     2.023361052625     0.168136088521
    H           -2.798673076417     2.060925926689    -1.583776464550
    H           -3.428778596143     0.678456125716    -0.706679867128

  Mulliken Charges: (a.u.)
   Center  Symbol    Alpha    Beta     Spin     Total
       1     H     0.33244  0.33244  0.00000  0.33512
       2     N     3.92216  3.92216  0.00000 -0.84432
       3     C     3.06180  3.06180  0.00000 -0.12361
       4     H     0.33538  0.33538  0.00000  0.32924
       5     C     3.15202  3.15202  0.00000 -0.30405
       6     H     0.41892  0.41892  0.00000  0.16215
       7     H     0.43527  0.43527  0.00000  0.12947
       8     C     3.15632  3.15632  0.00000 -0.31264
       9     H     0.41382  0.41382  0.00000  0.17236
      10     H     0.42598  0.42598  0.00000  0.14803
      11     C     3.15341  3.15341  0.00000 -0.30683
      12     H     0.42497  0.42497  0.00000  0.15006
      13     H     0.42111  0.42111  0.00000  0.15779
      14     C     3.23909  3.23909  0.00000 -0.47818
      15     H     0.42226  0.42226  0.00000  0.15548
      16     H     0.42171  0.42171  0.00000  0.15658
      17     H     0.42222  0.42222  0.00000  0.15555
      18     H     0.41939  0.41939  0.00000  0.16122
      19     H     0.42172  0.42172  0.00000  0.15656

   Total alpha = 25.00000, Total beta = 25.00000, Total charge = -0.00000
