                              Psi4 1.0.54 Driver

  ==> Input File <==

--------------------------------------------------------------------------
set {
	reference rhf
	basis cc-pvtz
}

set_num_threads( 4 )
memory 2 gb

molecule MOL {
0 1

O	 1.158696	 4.030842	 -1.282000
C	 0.220937	 4.269634	 -1.970255
C	 -1.039480	 3.429140	 -1.942821
C	 0.224031	 5.439654	 -2.927997
C	 -0.997907	 2.261797	 -0.966905
H	 -1.870547	 4.092766	 -1.714797
H	 -1.221010	 3.078096	 -2.956142
C	 -2.287066	 1.445017	 -0.974008
H	 -0.806444	 2.639392	 0.031031
H	 -0.156210	 1.623896	 -1.211370
C	 -2.258482	 0.271340	 0.000669
H	 -3.127148	 2.091698	 -0.730408
H	 -2.473729	 1.071235	 -1.978351
C	 -3.544441	 -0.550271	 -0.000253
H	 -2.072190	 0.643992	 1.004929
H	 -1.419533	 -0.376084	 -0.242506
C	 -4.804551	 0.308747	 0.000556
H	 -3.553737	 -1.201524	 -0.870151
H	 -3.553831	 -1.203282	 0.868313
H	 -4.842050	 0.949078	 -0.874436
H	 -5.698404	 -0.304480	 -0.000254
H	 -4.842277	 0.947103	 0.876982
H	 -0.589104	 6.117613	 -2.692986
H	 1.164840	 5.964029	 -2.862409
H	 0.069998	 5.091837	 -3.943545

	symmetry c1
}
set optking {
	frozen_dihedral = ("
		15 11 14 18
	")
}

ee,wfn = optimize('scf', return_wfn=True)
oeprop( wfn, 'DIPOLE', 'QUADRUPOLE', 'MULLIKEN_CHARGES')
f=open( 'psi4out.xyz', 'w' )
f.write( "25  " )
f.write( str(ee) + "\n" )
f.write( MOL.save_string_xyz() )
f.close()
--------------------------------------------------------------------------

    Molecular point group: c1
  Charge       = 0
  Multiplicity = 1
  Basis Set: CC-PVTZ
  Basis Set:
  @DF-RHF Final Energy:  -387.26960231198336
    Total Energy =                       -387.2696023119831352
    Molecular point group: c1
  Basis Set: CC-PVTZ
  Basis Set:
  Basis Set: CC-PVTZ
  Basis Set:
  @DF-RHF Final Energy:  -387.26812784274125
    Total Energy =                       -387.2681278427414782
  Basis Set: CC-PVTZ
  Basis Set:
  Basis Set: CC-PVTZ
  Basis Set:
  @DF-RHF Final Energy:  -387.27146058073248
    Total Energy =                       -387.2714605807318549
  Basis Set: CC-PVTZ
  Basis Set:
  Basis Set: CC-PVTZ
  Basis Set:
  @DF-RHF Final Energy:  -387.27165381338847
    Total Energy =                       -387.2716538133888662
  Basis Set: CC-PVTZ
  Basis Set:
  @DF-RHF Final Energy:  -387.27160342896553
    Total Energy =                       -387.2716034289657046
  Basis Set: CC-PVTZ
  Basis Set:
  @DF-RHF Final Energy:  -387.27154651224868
    Total Energy =                       -387.2715465122485057
  Basis Set: CC-PVTZ
  Basis Set:
  Basis Set: CC-PVTZ
  Basis Set:
  @DF-RHF Final Energy:  -387.27167120064922
    Total Energy =                       -387.2716712006499620
  Basis Set: CC-PVTZ
  Basis Set:
  Basis Set: CC-PVTZ
  Basis Set:
  @DF-RHF Final Energy:  -387.27167276771172
    Total Energy =                       -387.2716727677114932
  Basis Set: CC-PVTZ
  Basis Set:
  Charge       = 0
  Multiplicity = 1
  Basis Set: CC-PVTZ
  Basis Set:

    Orbital Energies (a.u.)
    -----------------------

    Doubly Occupied:

       1A    -20.538840     2A    -11.320475     3A    -11.230099
       4A    -11.226558     5A    -11.215048     6A    -11.214403
       7A    -11.213967     8A    -11.211804     9A    -11.207333
      10A     -1.398884    11A     -1.094933    12A     -1.056612
      13A     -1.014506    14A     -0.967988    15A     -0.898084
      16A     -0.826080    17A     -0.776399    18A     -0.730486
      19A     -0.660140    20A     -0.654596    21A     -0.628631
      22A     -0.624367    23A     -0.605616    24A     -0.592983
      25A     -0.564556    26A     -0.557787    27A     -0.546761
      28A     -0.522136    29A     -0.513187    30A     -0.495800
      31A     -0.492642    32A     -0.477541    33A     -0.458283
      34A     -0.456767    35A     -0.452917    36A     -0.401456

  @DF-RHF Final Energy:  -387.27167289376098

   => Energetics <=

    Nuclear Repulsion Energy =            443.6788436516108050
    One-Electron Energy =               -1404.2037169502673351
    Two-Electron Energy =                 573.2532004048960061
    DFT Exchange-Correlation Energy =       0.0000000000000000
    Empirical Dispersion Energy =           0.0000000000000000
    PCM Polarization Energy =               0.0000000000000000
    EFP Energy =                            0.0000000000000000
    Total Energy =                       -387.2716728937605239
    Molecular point group: c1
  Basis Set: CC-PVTZ
  Basis Set:

  -Total Gradient:
     Atom            X                  Y                   Z
    ------   -----------------  -----------------  -----------------
       1       -0.000003481567     0.000001624764     0.000007607218
       2        0.000007708251    -0.000015780123    -0.000017446898
       3        0.000000625299     0.000004729743     0.000003104615
       4       -0.000004322272     0.000006176962     0.000002265422
       5       -0.000006330674     0.000006051752     0.000009456979
       6       -0.000000290700    -0.000001526409     0.000000816766
       7        0.000001653225     0.000002473294     0.000001009637
       8       -0.000000996971     0.000002436684    -0.000012332072
       9        0.000002631489     0.000001148864     0.000000080061
      10       -0.000002203653    -0.000000838407    -0.000000397112
      11       -0.002426839026     0.002973573618    -0.000813727551
      12        0.000007788882     0.000002194132    -0.000001509366
      13       -0.000001673011     0.000001216626    -0.000001404591
      14       -0.001813633279     0.002356683836    -0.002562173481
      15        0.002329993220    -0.002896590855     0.001086511770
      16        0.000000456574     0.000000882439     0.000005318380
      17       -0.000021528349     0.000004152462    -0.000005806887
      18        0.001929982480    -0.002448721325     0.002300066356
      19        0.000008299013    -0.000001773484    -0.000003237877
      20       -0.000006043618     0.000000077628     0.000003003021
      21        0.000002812851     0.000005993410    -0.000000316069
      22       -0.000002680782    -0.000002233638    -0.000001521067
      23        0.000000401893     0.000000632750    -0.000002243441
      24       -0.000002063653    -0.000002727499     0.000001490923
      25       -0.000000265623     0.000000142776     0.000001385267

  **** Optimization is complete! (in 9 steps) ****
    Final optimized geometry and variables:
    Molecular point group: c1

    Geometry (in Angstrom), charge = 0, multiplicity = 1:

    O            2.611187675190     1.792117041023    -0.122783240819
    C            1.705719340451     1.976642689389    -0.868470677391
    C            0.459996391527     1.113967306701    -0.860174142185
    C            1.737294921619     3.095828874174    -1.884778725952
    C            0.471418883690    -0.000127418655     0.176856136859
    H           -0.392680056472     1.772235070265    -0.709753196246
    H            0.336858524061     0.707315779196    -1.861458354348
    C           -0.800756119648    -0.843298634403     0.146260258016
    H            0.602062785434     0.432726950085     1.162239921584
    H            1.336802572898    -0.631370498668     0.011011616302
    C           -0.795288625995    -1.951626259062     1.195123845600
    H           -1.660307846779    -0.196830322787     0.294678192523
    H           -0.918527472563    -1.285359143436    -0.841350508410
    C           -1.974747606676    -2.928070436097     1.137432015751
    H           -0.730580752207    -1.522853155165     2.192144494508
    H            0.117835289894    -2.529930423665     1.079388964396
    C           -3.358917370032    -2.289098824595     1.083379146636
    H           -1.840383152886    -3.606014524329     0.298901990475
    H           -1.921219506423    -3.559823083331     2.019546451345
    H           -3.517874805715    -1.740317127408     0.163056559095
    H           -4.131496536516    -3.046552599592     1.148550996939
    H           -3.503747310943    -1.599584818196     1.909239816966
    H            0.901592855527     3.768522741135    -1.726342734751
    H            2.664272742264     3.641693801650    -1.799885778648
    H            1.641232775339     2.693225258798    -2.887138673495

  Mulliken Charges: (a.u.)
   Center  Symbol    Alpha    Beta     Spin     Total
       1     O     4.17090  4.17090  0.00000 -0.34179
       2     C     2.86224  2.86224  0.00000  0.27552
       3     C     3.11324  3.11324  0.00000 -0.22648
       4     C     3.15125  3.15125  0.00000 -0.30250
       5     C     3.08280  3.08280  0.00000 -0.16559
       6     H     0.44576  0.44576  0.00000  0.10848
       7     H     0.44570  0.44570  0.00000  0.10860
       8     C     3.09378  3.09378  0.00000 -0.18757
       9     H     0.44606  0.44606  0.00000  0.10788
      10     H     0.44529  0.44529  0.00000  0.10942
      11     C     3.09657  3.09657  0.00000 -0.19313
      12     H     0.45277  0.45277  0.00000  0.09445
      13     H     0.45516  0.45516  0.00000  0.08968
      14     C     3.09007  3.09007  0.00000 -0.18014
      15     H     0.45109  0.45109  0.00000  0.09782
      16     H     0.45006  0.45006  0.00000  0.09989
      17     C     3.15584  3.15584  0.00000 -0.31169
      18     H     0.45330  0.45330  0.00000  0.09341
      19     H     0.44971  0.44971  0.00000  0.10058
      20     H     0.45332  0.45332  0.00000  0.09337
      21     H     0.44526  0.44526  0.00000  0.10948
      22     H     0.45368  0.45368  0.00000  0.09263
      23     H     0.45039  0.45039  0.00000  0.09922
      24     H     0.43537  0.43537  0.00000  0.12926
      25     H     0.45039  0.45039  0.00000  0.09922

   Total alpha = 36.00000, Total beta = 36.00000, Total charge = -0.00000

*** Psi4 exiting successfully. Buy a developer a beer!
