  ==> Input File <==

--------------------------------------------------------------------------
set {
	reference rhf
	basis 6-31G*
}

set_num_threads( 1 )
memory 2 gb

molecule MOL {
0 1

H	 -3.489899	 1.228218	 -1.029938
O	 -3.452007	 0.283848	 -0.965577
C	 -3.181085	 -0.079926	 0.364119
C	 -1.765924	 0.277073	 0.805136
H	 -3.327791	 -1.152017	 0.410903
H	 -3.905698	 0.375695	 1.036898
C	 -0.677594	 -0.417312	 -0.014550
H	 -1.637766	 1.358238	 0.744969
H	 -1.659588	 0.017670	 1.857098
C	 0.738335	 -0.034840	 0.421385
H	 -0.814977	 -0.178223	 -1.064632
H	 -0.802730	 -1.495410	 0.071702
C	 1.822265	 -0.738362	 -0.399735
H	 0.853533	 1.043532	 0.342250
H	 0.871597	 -0.279636	 1.474438
C	 3.258060	 -0.455774	 0.057203
H	 1.718003	 -0.459167	 -1.447053
H	 1.651028	 -1.811884	 -0.354513
C	 3.709143	 0.994797	 -0.123830
H	 3.930637	 -1.101717	 -0.501982
H	 3.365259	 -0.739518	 1.102287
H	 3.601178	 1.310569	 -1.158127
H	 4.753787	 1.110486	 0.148516
H	 3.135362	 1.678896	 0.492569

	symmetry c1
}
set optking {
	frozen_dihedral = ("
		20 16 13 17,
		17 13 10 7,
		13 10 7 11,
		11 7 4 3,
		7 4 3 2
	")
}

ee = energy('scf')
oeprop('DIPOLE', 'QUADRUPOLE', 'MULLIKEN_CHARGES')
f=open( 'psi4out.xyz', 'w' )
f.write( "24  " )
f.write( str(ee) + "\n" )
f.write( MOL.save_string_xyz() )
f.close()
--------------------------------------------------------------------------

    Molecular point group: c1

    Geometry (in Angstrom), charge = 0, multiplicity = 1:

       Center              X                  Y                   Z               Mass
    ------------   -----------------  -----------------  -----------------  -----------------
           H         -3.489298511227     1.228210973596    -1.030062272458     1.007825032070
           O         -3.451406511227     0.283840973596    -0.965701272458    15.994914619560
           C         -3.180484511227    -0.079933026404     0.363994727542    12.000000000000
           C         -1.765323511227     0.277065973596     0.805011727542    12.000000000000
           H         -3.327190511227    -1.152024026404     0.410778727542     1.007825032070
           H         -3.905097511227     0.375687973596     1.036773727542     1.007825032070
           C         -0.676993511227    -0.417319026404    -0.014674272458    12.000000000000
           H         -1.637165511227     1.358230973596     0.744844727542     1.007825032070
           H         -1.658987511227     0.017662973596     1.856973727542     1.007825032070
           C          0.738935488773    -0.034847026404     0.421260727542    12.000000000000
           H         -0.814376511227    -0.178230026404    -1.064756272458     1.007825032070
           H         -0.802129511227    -1.495417026404     0.071577727542     1.007825032070
           C          1.822865488773    -0.738369026404    -0.399859272458    12.000000000000
           H          0.854133488773     1.043524973596     0.342125727542     1.007825032070
           H          0.872197488773    -0.279643026404     1.474313727542     1.007825032070
           C          3.258660488773    -0.455781026404     0.057078727542    12.000000000000
           H          1.718603488773    -0.459174026404    -1.447177272458     1.007825032070
           H          1.651628488773    -1.811891026404    -0.354637272458     1.007825032070
           C          3.709743488773     0.994789973596    -0.123954272458    12.000000000000
           H          3.931237488773    -1.101724026404    -0.502106272458     1.007825032070
           H          3.365859488773    -0.739525026404     1.102162727542     1.007825032070
           H          3.601778488773     1.310561973596    -1.158251272458     1.007825032070
           H          4.754387488773     1.110478973596     0.148391727542     1.007825032070
           H          3.135962488773     1.678888973596     0.492444727542     1.007825032070

  Charge       = 0
  Multiplicity = 1
  Basis Set: 6-31G*
  Basis Set:

    Orbital Energies (a.u.)
    -----------------------

    Doubly Occupied:

       1A    -20.553638     2A    -11.267791     3A    -11.216741
       4A    -11.213787     5A    -11.211985     6A    -11.211194
       7A    -11.210482     8A    -11.207125     9A     -1.360204
      10A     -1.088098    11A     -1.047937    12A     -0.985360
      13A     -0.914659    14A     -0.849887    15A     -0.800098
      16A     -0.775871    17A     -0.681103    18A     -0.653194
      19A     -0.624809    20A     -0.618768    21A     -0.595508
      22A     -0.584288    23A     -0.557437    24A     -0.540686
      25A     -0.514867    26A     -0.508102    27A     -0.499247
      28A     -0.472678    29A     -0.467896    30A     -0.458466
      31A     -0.455309    32A     -0.450132    33A     -0.418841

  @DF-RHF Final Energy:  -349.24759773704210

   => Energetics <=

    Nuclear Repulsion Energy =            384.4086459255830164
    One-Electron Energy =               -1235.2799515400347445
    Two-Electron Energy =                 501.6237078774105385
    DFT Exchange-Correlation Energy =       0.0000000000000000
    Empirical Dispersion Energy =           0.0000000000000000
    PCM Polarization Energy =               0.0000000000000000
    EFP Energy =                            0.0000000000000000
    Total Energy =                       -349.2475977370412465

  Mulliken Charges: (a.u.)
   Center  Symbol    Alpha    Beta     Spin     Total
       1     H     0.28315  0.28315  0.00000  0.43369
       2     O     4.36819  4.36819  0.00000 -0.73637
       3     C     2.99755  2.99755  0.00000  0.00489
       4     C     3.16716  3.16716  0.00000 -0.33433
       5     H     0.41635  0.41635  0.00000  0.16731
       6     H     0.42826  0.42826  0.00000  0.14347
       7     C     3.15205  3.15205  0.00000 -0.30410
       8     H     0.42823  0.42823  0.00000  0.14354
       9     H     0.42289  0.42289  0.00000  0.15422
      10     C     3.15359  3.15359  0.00000 -0.30719
      11     H     0.41149  0.41149  0.00000  0.17702
      12     H     0.42390  0.42390  0.00000  0.15220
      13     C     3.15223  3.15223  0.00000 -0.30447
      14     H     0.42290  0.42290  0.00000  0.15420
      15     H     0.42558  0.42558  0.00000  0.14883
      16     C     3.15229  3.15229  0.00000 -0.30458
      17     H     0.42361  0.42361  0.00000  0.15279
      18     H     0.42214  0.42214  0.00000  0.15572
      19     C     3.24102  3.24102  0.00000 -0.48204
      20     H     0.42112  0.42112  0.00000  0.15776
      21     H     0.42382  0.42382  0.00000  0.15236
      22     H     0.42228  0.42228  0.00000  0.15543
      23     H     0.41960  0.41960  0.00000  0.16079
      24     H     0.42057  0.42057  0.00000  0.15886

   Total alpha = 33.00000, Total beta = 33.00000, Total charge =  0.00000
