  ==> Input File <==

--------------------------------------------------------------------------
set {
	reference rhf
	basis cc-pvtz
}

set_num_threads( 4 )
memory 2 gb

molecule MOL {
0 1

H	 2.590083	 -0.420718	 -0.558736
O	 1.675515	 -0.612943	 -0.465627
C	 1.135873	 0.113391	 0.608264
C	 0.027642	 1.012027	 0.090274
H	 1.902972	 0.727968	 1.072615
H	 0.756163	 -0.561896	 1.370018
C	 -1.138737	 0.285728	 -0.581921
H	 0.464661	 1.708096	 -0.618252
H	 -0.340737	 1.603071	 0.925246
C	 -1.933983	 -0.631436	 0.343653
H	 -0.763151	 -0.285569	 -1.422081
H	 -1.808359	 1.035291	 -0.992333
H	 -2.789188	 -1.049673	 -0.174718
H	 -1.335629	 -1.461368	 0.700418
H	 -2.305435	 -0.092167	 1.209725

	symmetry c1
}
set optking {
	frozen_dihedral = ("
		1 2 3 4
	")
}

ee = optimize('scf')
oeprop('DIPOLE', 'QUADRUPOLE', 'MULLIKEN_CHARGES')
f=open( 'psi4out.xyz', 'w' )
f.write( "15  " )
f.write( str(ee) + "\n" )
f.write( MOL.save_string_xyz() )
f.close()
--------------------------------------------------------------------------

    Molecular point group: c1
  Charge       = 0
  Multiplicity = 1
  Basis Set: CC-PVTZ
  Basis Set:
  @DF-RHF Final Energy:  -232.23537269528100
    Total Energy =                       -232.2353726952811144
    Molecular point group: c1
  Basis Set: CC-PVTZ
  Basis Set:
  Basis Set: CC-PVTZ
  Basis Set:
  @DF-RHF Final Energy:  -232.23573912431715
    Total Energy =                       -232.2357391243170355
  Basis Set: CC-PVTZ
  Basis Set:
  Basis Set: CC-PVTZ
  Basis Set:
  @DF-RHF Final Energy:  -232.23581429746579
    Total Energy =                       -232.2358142974654811
  Basis Set: CC-PVTZ
  Basis Set:
  Charge       = 0
  Multiplicity = 1
  Basis Set: CC-PVTZ
  Basis Set:

    Orbital Energies (a.u.)
    -----------------------

    Doubly Occupied:

       1A    -20.545185     2A    -11.265769     3A    -11.210830
       4A    -11.207349     5A    -11.202019     6A     -1.362638
       7A     -1.065023     8A     -0.970722     9A     -0.870920
      10A     -0.779942    11A     -0.701022    12A     -0.644469
      13A     -0.616265    14A     -0.574687    15A     -0.563198
      16A     -0.533412    17A     -0.509433    18A     -0.483270
      19A     -0.467652    20A     -0.452525    21A     -0.428272

  @DF-RHF Final Energy:  -232.23581397446605

   => Energetics <=

    Nuclear Repulsion Energy =            191.5842660929805561
    One-Electron Energy =                -694.7309553754214448
    Two-Electron Energy =                 270.9108753079746066
    DFT Exchange-Correlation Energy =       0.0000000000000000
    Empirical Dispersion Energy =           0.0000000000000000
    PCM Polarization Energy =               0.0000000000000000
    EFP Energy =                            0.0000000000000000
    Total Energy =                       -232.2358139744662822
    Molecular point group: c1
  Basis Set: CC-PVTZ
  Basis Set:

  -Total Gradient:
     Atom            X                  Y                   Z
    ------   -----------------  -----------------  -----------------
       1       -0.000017479709     0.000032271955    -0.000074594348
       2        0.000103543128    -0.000016507811     0.000051678330
       3       -0.000092574104    -0.000065263321    -0.000001626480
       4       -0.000016532177     0.000053055745     0.000105201879
       5        0.000015673394    -0.000018559207    -0.000034069898
       6        0.000029006763     0.000088974882     0.000016941640
       7        0.000056964343    -0.000083725572    -0.000037733233
       8       -0.000008310607     0.000005154470     0.000010208701
       9        0.000018932502    -0.000007522701     0.000018578405
      10       -0.000030330782     0.000026286722    -0.000005580294
      11       -0.000005789995    -0.000030696843    -0.000005141022
      12       -0.000004110864    -0.000017180820    -0.000018079157
      13       -0.000007852813     0.000023508174     0.000006996044
      14       -0.000053762149     0.000012226066    -0.000055005464
      15        0.000012623071    -0.000002021739     0.000022224900

  **** Optimization is complete! (in 4 steps) ****
    Final optimized geometry and variables:
    Molecular point group: c1

    Geometry (in Angstrom), charge = 0, multiplicity = 1:

    H            2.591184288764    -0.464200811830    -0.556507356742
    O            1.678775468750    -0.650118111917    -0.449783460634
    C            1.136806252380     0.115859108805     0.600030793794
    C            0.015549945386     1.013775589212     0.101522574068
    H            1.905799620262     0.728146244276     1.060268821136
    H            0.773266074412    -0.561440637796     1.364216250770
    C           -1.142702743713     0.280676466957    -0.577313646213
    H            0.437912077725     1.727946198010    -0.599013756080
    H           -0.358960723126     1.586944670457     0.947045659940
    C           -1.939196234545    -0.638361184302     0.345468166016
    H           -0.757030266451    -0.291181653254    -1.412851268946
    H           -1.813787390552     1.024608348741    -0.995417203110
    H           -2.788098133356    -1.062901740014    -0.178020505395
    H           -1.338748673872    -1.463456531252     0.709212375959
    H           -2.320186495027    -0.098094044358     1.206725552742

  Mulliken Charges: (a.u.)
   Center  Symbol    Alpha    Beta     Spin     Total
       1     H     0.39267  0.39267  0.00000  0.21467
       2     O     4.20439  4.20439  0.00000 -0.40878
       3     C     2.97985  2.97985  0.00000  0.04031
       4     C     3.08856  3.08856  0.00000 -0.17712
       5     H     0.46221  0.46221  0.00000  0.07559
       6     H     0.46514  0.46514  0.00000  0.06972
       7     C     3.08835  3.08835  0.00000 -0.17670
       8     H     0.45368  0.45368  0.00000  0.09264
       9     H     0.45727  0.45727  0.00000  0.08545
      10     C     3.15415  3.15415  0.00000 -0.30830
      11     H     0.44707  0.44707  0.00000  0.10586
      12     H     0.45064  0.45064  0.00000  0.09871
      13     H     0.44702  0.44702  0.00000  0.10595
      14     H     0.45158  0.45158  0.00000  0.09683
      15     H     0.45741  0.45741  0.00000  0.08518

   Total alpha = 21.00000, Total beta = 21.00000, Total charge = -0.00000
