                              Psi4 1.0.54 Driver

  ==> Input File <==

--------------------------------------------------------------------------
set {
	reference rhf
	basis cc-pvtz
}

set_num_threads( 4 )
memory 2 gb

molecule MOL {
0 1

H	 -1.752232	 -2.214755	 -0.011938
C	 -1.343852	 -1.221619	 -0.018179
N	 -0.058800	 -1.097635	 -0.261688
C	 -2.148159	 -0.124236	 0.219734
C	 0.449026	 0.119242	 -0.273393
H	 -3.196988	 -0.237571	 0.417076
N	 -1.655094	 1.094230	 0.209506
C	 -0.370318	 1.215445	 -0.035100
C	 1.924033	 0.265863	 -0.538106
H	 0.033214	 2.210441	 -0.046812
C	 2.784167	 -0.437891	 0.512776
H	 2.135074	 -0.152820	 -1.514798
H	 2.179216	 1.318263	 -0.577467
H	 3.835526	 -0.339358	 0.270146
H	 2.542815	 -1.491737	 0.558999
H	 2.625016	 -0.011283	 1.496759

	symmetry c1
}
set optking {
	frozen_dihedral = ("
		12 9 5 3
	")
}

ee,wfn = optimize('scf', return_wfn=True)
oeprop( wfn, 'DIPOLE', 'QUADRUPOLE', 'MULLIKEN_CHARGES')
f=open( 'psi4out.xyz', 'w' )
f.write( "16  " )
f.write( str(ee) + "\n" )
f.write( MOL.save_string_xyz() )
f.close()
--------------------------------------------------------------------------

    Molecular point group: c1
  Charge       = 0
  Multiplicity = 1
  Basis Set: CC-PVTZ
  Basis Set:
  @DF-RHF Final Energy:  -340.87226898085936
    Total Energy =                       -340.8722689808595874
    Molecular point group: c1
  Basis Set: CC-PVTZ
  Basis Set:
  Basis Set: CC-PVTZ
  Basis Set:
  @DF-RHF Final Energy:  -340.87228410007981
    Total Energy =                       -340.8722841000795825
  Basis Set: CC-PVTZ
  Basis Set:
  Basis Set: CC-PVTZ
  Basis Set:
  @DF-RHF Final Energy:  -340.87228766571394
    Total Energy =                       -340.8722876657139977
  Basis Set: CC-PVTZ
  Basis Set:
  Charge       = 0
  Multiplicity = 1
  Basis Set: CC-PVTZ
  Basis Set:

    Orbital Energies (a.u.)
    -----------------------

    Doubly Occupied:

       1A    -15.580708     2A    -15.576138     3A    -11.278380
       4A    -11.273025     5A    -11.268262     6A    -11.268216
       7A    -11.231795     8A    -11.215205     9A     -1.316336
      10A     -1.224374    11A     -1.085941    12A     -1.015126
      13A     -0.907945    14A     -0.894442    15A     -0.828760
      16A     -0.719769    17A     -0.712407    18A     -0.659951
      19A     -0.617109    20A     -0.603660    21A     -0.581102
      22A     -0.562675    23A     -0.524059    24A     -0.506242
      25A     -0.500536    26A     -0.489977    27A     -0.433194
      28A     -0.397728    29A     -0.347142

  @DF-RHF Final Energy:  -340.87229000468636

   => Energetics <=

    Nuclear Repulsion Energy =            350.5675120792352004
    One-Electron Energy =               -1155.6391921432682466
    Two-Electron Energy =                 464.1993900593469675
    DFT Exchange-Correlation Energy =       0.0000000000000000
    Empirical Dispersion Energy =           0.0000000000000000
    PCM Polarization Energy =               0.0000000000000000
    EFP Energy =                            0.0000000000000000
    Total Energy =                       -340.8722900046860218
    Molecular point group: c1
  Basis Set: CC-PVTZ
  Basis Set:

  -Total Gradient:
     Atom            X                  Y                   Z
    ------   -----------------  -----------------  -----------------
       1        0.000005843768    -0.000002881215    -0.000000413982
       2       -0.000026921476     0.000014600022     0.000021557907
       3        0.000099061063    -0.000023032078     0.000483967459
       4        0.000015093745    -0.000044348937    -0.000002038395
       5       -0.000164940618     0.000116594577    -0.000795385745
       6        0.000002036532     0.000004690271    -0.000008474677
       7        0.000048010126     0.000028389368    -0.000003408068
       8       -0.000029459204     0.000010189551     0.000013423903
       9        0.000149893901    -0.000603540880     0.000520842350
      10        0.000002303233     0.000003843192     0.000005428483
      11        0.000003534285    -0.000038081676     0.000000602015
      12       -0.000102922278     0.000505903079    -0.000227105067
      13       -0.000002417832     0.000006967973    -0.000011869272
      14        0.000016298497     0.000010077573    -0.000015904419
      15       -0.000004382301    -0.000014302293     0.000000144530
      16       -0.000011031439     0.000024931472     0.000018632980

  **** Optimization is complete! (in 4 steps) ****
    Final optimized geometry and variables:
    Molecular point group: c1

    Geometry (in Angstrom), charge = 0, multiplicity = 1:

    H           -1.760789864756    -2.182537774325     0.000146526004
    C           -1.349610179318    -1.190596028874    -0.004947709625
    N           -0.063177470770    -1.070607287274    -0.241658315765
    C           -2.151824073240    -0.090831351319     0.228486424066
    C            0.448663855418     0.144627936302    -0.252031417487
    H           -3.201935029730    -0.200840954276     0.420497844622
    N           -1.654524074087     1.125722326493     0.222747811973
    C           -0.367906567769     1.242772828857    -0.014697752387
    C            1.923831172511     0.289945310435    -0.520346822594
    H            0.039314271041     2.236147458060    -0.019981905299
    C            2.793811324551    -0.404574333050     0.526842051802
    H            2.132734846626    -0.126676142433    -1.499497821389
    H            2.174173932627     1.343163549750    -0.567586491956
    H            3.842927701635    -0.294801230508     0.279411421065
    H            2.563056009259    -1.459990974944     0.576255873543
    H            2.634118654005     0.022809603353     1.510427489032

  Mulliken Charges: (a.u.)
   Center  Symbol    Alpha    Beta     Spin     Total
       1     H     0.41396  0.41396  0.00000  0.17209
       2     C     3.04305  3.04305  0.00000 -0.08610
       3     N     3.59653  3.59653  0.00000 -0.19306
       4     C     3.04772  3.04772  0.00000 -0.09545
       5     C     2.93924  2.93924  0.00000  0.12152
       6     H     0.41367  0.41367  0.00000  0.17266
       7     N     3.58661  3.58661  0.00000 -0.17322
       8     C     3.07861  3.07861  0.00000 -0.15721
       9     C     3.07564  3.07564  0.00000 -0.15129
      10     H     0.41598  0.41598  0.00000  0.16804
      11     C     3.14468  3.14468  0.00000 -0.28937
      12     H     0.44634  0.44634  0.00000  0.10731
      13     H     0.44976  0.44976  0.00000  0.10047
      14     H     0.44986  0.44986  0.00000  0.10028
      15     H     0.44419  0.44419  0.00000  0.11161
      16     H     0.45415  0.45415  0.00000  0.09170

   Total alpha = 29.00000, Total beta = 29.00000, Total charge = -0.00000

*** Psi4 exiting successfully. Buy a developer a beer!
