  ==> Input File <==

--------------------------------------------------------------------------
set {
	reference rhf
	basis cc-pvtz
}

set_num_threads( 4 )
memory 2 gb

molecule MOL {
0 1

H	 0.047672	 -0.202602	 -0.559737
N	 -0.625934	 -0.663929	 -0.000707
C	 -1.978635	 -0.158664	 0.001017
C	 -0.227263	 -1.736104	 0.719074
H	 -2.519057	 -0.493535	 -0.876362
H	 -1.938890	 0.917202	 -0.004137
H	 -2.514266	 -0.485137	 0.884506
C	 1.234924	 -2.091593	 0.562691
O	 -0.962491	 -2.364884	 1.421321
H	 1.860913	 -1.265589	 0.879634
H	 1.450755	 -2.957725	 1.166264
H	 1.463605	 -2.307944	 -0.474380

	symmetry c1
}
set optking {
	frozen_dihedral = ("
		4 2 3 5
	")
}

ee = optimize('scf')
oeprop('DIPOLE', 'QUADRUPOLE', 'MULLIKEN_CHARGES')
f=open( 'psi4out.xyz', 'w' )
f.write( "12  " )
f.write( str(ee) + "\n" )
f.write( MOL.save_string_xyz() )
f.close()
--------------------------------------------------------------------------

    Molecular point group: c1
  Charge       = 0
  Multiplicity = 1
  Basis Set: CC-PVTZ
  Basis Set:
  @DF-RHF Final Energy:  -247.10070858361880
    Total Energy =                       -247.1007085836187116
    Molecular point group: c1
  Basis Set: CC-PVTZ
  Basis Set:
  Basis Set: CC-PVTZ
  Basis Set:
  @DF-RHF Final Energy:  -247.10093928259619
    Total Energy =                       -247.1009392825963005
  Basis Set: CC-PVTZ
  Basis Set:
  Basis Set: CC-PVTZ
  Basis Set:
  @DF-RHF Final Energy:  -247.10066586547674
    Total Energy =                       -247.1006658654767989
  Basis Set: CC-PVTZ
  Basis Set:
  Basis Set: CC-PVTZ
  Basis Set:
  @DF-RHF Final Energy:  -247.10103850205243
    Total Energy =                       -247.1010385020522335
  Basis Set: CC-PVTZ
  Basis Set:
  Basis Set: CC-PVTZ
  Basis Set:
  @DF-RHF Final Energy:  -247.10105024359225
    Total Energy =                       -247.1010502435922831
  Basis Set: CC-PVTZ
  Basis Set:
  Basis Set: CC-PVTZ
  Basis Set:
  @DF-RHF Final Energy:  -247.10106304557635
    Total Energy =                       -247.1010630455763817
  Basis Set: CC-PVTZ
  Basis Set:
  Basis Set: CC-PVTZ
  Basis Set:
  @DF-RHF Final Energy:  -247.10106547994002
    Total Energy =                       -247.1010654799401323
  Basis Set: CC-PVTZ
  Basis Set:
  Charge       = 0
  Multiplicity = 1
  Basis Set: CC-PVTZ
  Basis Set:

    Orbital Energies (a.u.)
    -----------------------

    Doubly Occupied:

       1A    -20.506892     2A    -15.574776     3A    -11.336587
       4A    -11.252717     5A    -11.228085     6A     -1.388649
       7A     -1.230922     8A     -1.016649     9A     -0.932867
      10A     -0.788233    11A     -0.690897    12A     -0.651589
      13A     -0.635490    14A     -0.586435    15A     -0.582997
      16A     -0.555906    17A     -0.545458    18A     -0.510621
      19A     -0.417517    20A     -0.389544

  @DF-RHF Final Energy:  -247.10106621387706

   => Energetics <=

    Nuclear Repulsion Energy =            181.6745995348625229
    One-Electron Energy =                -695.9056659852922166
    Two-Electron Energy =                 267.1300002365525188
    DFT Exchange-Correlation Energy =       0.0000000000000000
    Empirical Dispersion Energy =           0.0000000000000000
    PCM Polarization Energy =               0.0000000000000000
    EFP Energy =                            0.0000000000000000
    Total Energy =                       -247.1010662138771750
    Molecular point group: c1
  Basis Set: CC-PVTZ
  Basis Set:

  -Total Gradient:
     Atom            X                  Y                   Z
    ------   -----------------  -----------------  -----------------
       1       -0.000007012588    -0.000004421423    -0.000018319994
       2       -0.000046273525    -0.000144670657    -0.000233882117
       3       -0.000068902806    -0.000151570770     0.000196063833
       4        0.000053170069     0.000105957971     0.000152442543
       5        0.000063309308     0.000186198163    -0.000104768816
       6       -0.000011207753     0.000002407776     0.000003754347
       7        0.000011976965    -0.000003623433    -0.000003695522
       8       -0.000011847775    -0.000039062017    -0.000040867554
       9        0.000004284398     0.000020558862     0.000018208684
      10       -0.000010867522     0.000007045671     0.000025426502
      11       -0.000000606082     0.000000696409     0.000000554848
      12        0.000023977312     0.000020483445     0.000005083246

  **** Optimization is complete! (in 8 steps) ****
    Final optimized geometry and variables:
    Molecular point group: c1

    Geometry (in Angstrom), charge = 0, multiplicity = 1:

    H            0.563133018567     1.165638066840    -1.129029996182
    N           -0.096640058052     0.741670286669    -0.525634973745
    C           -1.455732299226     1.229478805870    -0.542866218420
    C            0.292354533868    -0.341619382252     0.182986293044
    H           -1.986368758568     0.913952416607    -1.434468201445
    H           -1.460582742004     2.311049468402    -0.501492773459
    H           -1.972255108524     0.843003082115     0.319558578450
    C            1.751074121966    -0.710701525509     0.024692246979
    O           -0.448573087666    -0.960731960274     0.887570112652
    H            2.385838918849     0.116234811691     0.320624740437
    H            1.964256866648    -1.567488736542     0.642531146379
    H            1.970309208123    -0.949291202890    -1.009726573654

  Mulliken Charges: (a.u.)
   Center  Symbol    Alpha    Beta     Spin     Total
       1     H     0.41081  0.41081  0.00000  0.17838
       2     N     3.62100  3.62100  0.00000 -0.24200
       3     C     3.08412  3.08412  0.00000 -0.16824
       4     C     2.83690  2.83690  0.00000  0.32621
       5     H     0.45680  0.45680  0.00000  0.08640
       6     H     0.45497  0.45497  0.00000  0.09006
       7     H     0.43290  0.43290  0.00000  0.13421
       8     C     3.15374  3.15374  0.00000 -0.30748
       9     O     4.21527  4.21527  0.00000 -0.43054
      10     H     0.44960  0.44960  0.00000  0.10079
      11     H     0.43355  0.43355  0.00000  0.13291
      12     H     0.45035  0.45035  0.00000  0.09929

   Total alpha = 20.00000, Total beta = 20.00000, Total charge = -0.00000
