                              Psi4 1.0.54 Driver

  ==> Input File <==

--------------------------------------------------------------------------
set {
	reference rhf
	basis cc-pvtz
}

set_num_threads( 4 )
memory 2 gb

molecule MOL {
0 1

O	 -0.694481	 1.313155	 -0.204815
C	 -0.862519	 0.151932	 -0.046791
C	 -2.171428	 -0.477048	 0.339095
O	 0.085519	 -0.757083	 -0.192238
H	 -2.467997	 -1.191667	 -0.417688
H	 -2.923379	 0.287970	 0.444097
H	 -2.053854	 -1.015120	 1.270901
C	 1.445613	 -0.343722	 -0.130943
C	 1.948970	 -0.284101	 1.296284
H	 1.548911	 0.612310	 -0.619970
H	 1.983745	 -1.088650	 -0.697729
H	 3.003327	 -0.031564	 1.299263
H	 1.417750	 0.468725	 1.862359
H	 1.827194	 -1.243052	 1.785341

	symmetry c1
}
set optking {
	frozen_dihedral = ("
		8 4 2 1
	")
}

ee,wfn = optimize('scf', return_wfn=True)
oeprop( wfn, 'DIPOLE', 'QUADRUPOLE', 'MULLIKEN_CHARGES')
f=open( 'psi4out.xyz', 'w' )
f.write( "14  " )
f.write( str(ee) + "\n" )
f.write( MOL.save_string_xyz() )
f.close()
--------------------------------------------------------------------------

    Molecular point group: c1
  Charge       = 0
  Multiplicity = 1
  Basis Set: CC-PVTZ
  Basis Set:
  @DF-RHF Final Energy:  -305.98889265768958
    Total Energy =                       -305.9888926576895756
    Molecular point group: c1
  Basis Set: CC-PVTZ
  Basis Set:
  Basis Set: CC-PVTZ
  Basis Set:
  @DF-RHF Final Energy:  -305.92787639828941
    Total Energy =                       -305.9278763982894134
  Basis Set: CC-PVTZ
  Basis Set:
  Basis Set: CC-PVTZ
  Basis Set:
  @DF-RHF Final Energy:  -305.98459419180813
    Total Energy =                       -305.9845941918081280
  Basis Set: CC-PVTZ
  Basis Set:
  Basis Set: CC-PVTZ
  Basis Set:
  @DF-RHF Final Energy:  -305.98895404589553
    Total Energy =                       -305.9889540458952979
  Basis Set: CC-PVTZ
  Basis Set:
  @DF-RHF Final Energy:  -305.98895554999615
    Total Energy =                       -305.9889555499962626
  @DF-RHF Final Energy:  -305.98920107817469
    Total Energy =                       -305.9892010781744602
  Basis Set: CC-PVTZ
  Basis Set:
  @DF-RHF Final Energy:  -305.98921291343754
    Total Energy =                       -305.9892129134374841
  Basis Set: CC-PVTZ
  Basis Set:
  Basis Set: CC-PVTZ
  Basis Set:
  @DF-RHF Final Energy:  -305.98922097387901
    Total Energy =                       -305.9892209738790143
  Basis Set: CC-PVTZ
  Basis Set:
  Basis Set: CC-PVTZ
  Basis Set:
  @DF-RHF Final Energy:  -305.98922347719486
    Total Energy =                       -305.9892234771949120
  Basis Set: CC-PVTZ
  Basis Set:
  Charge       = 0
  Multiplicity = 1
  Basis Set: CC-PVTZ
  Basis Set:

    Orbital Energies (a.u.)
    -----------------------

    Doubly Occupied:

       1A    -20.592332     2A    -20.534000     3A    -11.368180
       4A    -11.283605     5A    -11.231747     6A    -11.220117
       7A     -1.469155     8A     -1.366069     9A     -1.055610
      10A     -1.001292    11A     -0.884999    12A     -0.764963
      13A     -0.700506    14A     -0.685973    15A     -0.663399
      16A     -0.613119    17A     -0.588804    18A     -0.571634
      19A     -0.558737    20A     -0.531147    21A     -0.521861
      22A     -0.494500    23A     -0.455030    24A     -0.441493

  @DF-RHF Final Energy:  -305.98922394227861

   => Energetics <=

    Nuclear Repulsion Energy =            249.3811645182725272
    One-Electron Energy =                -911.5442371261726748
    Two-Electron Energy =                 356.1738486656215628
    DFT Exchange-Correlation Energy =       0.0000000000000000
    Empirical Dispersion Energy =           0.0000000000000000
    PCM Polarization Energy =               0.0000000000000000
    EFP Energy =                            0.0000000000000000
    Total Energy =                       -305.9892239422786133
    Molecular point group: c1
  Basis Set: CC-PVTZ
  Basis Set:

  -Total Gradient:
     Atom            X                  Y                   Z
    ------   -----------------  -----------------  -----------------
       1       -0.001181113632     0.001511086087    -0.005641113446
       2        0.001857143506    -0.003716923755     0.010510364401
       3       -0.000028750195     0.000063438247    -0.000049041215
       4       -0.000635843270     0.004706258593    -0.008586071267
       5       -0.000013835196    -0.000000899034    -0.000027418783
       6       -0.000012967235    -0.000003923437    -0.000010036111
       7        0.000006824384    -0.000036591621    -0.000008174041
       8        0.000029042762    -0.002549636253     0.003827058233
       9       -0.000045299845     0.000020329998    -0.000007777473
      10        0.000002576229    -0.000005605580     0.000002388133
      11       -0.000005619786     0.000003709383     0.000007216719
      12        0.000008641237     0.000001824029     0.000000549911
      13        0.000016074873    -0.000008140123    -0.000014340910
      14        0.000003126167     0.000015073467    -0.000003604153

  **** Optimization is complete! (in 10 steps) ****
    Final optimized geometry and variables:
    Molecular point group: c1

    Geometry (in Angstrom), charge = 0, multiplicity = 1:

    O           -0.841883202414     1.291249758515     0.155093484701
    C           -0.835014206915     0.157707425204    -0.183528410221
    C           -2.051639778624    -0.720973153906    -0.248010051461
    O            0.245664780931    -0.477283881924    -0.612090221757
    H           -2.136790331225    -1.155534148461    -1.235138339252
    H           -2.930757130454    -0.142721485842    -0.014372830933
    H           -1.944063985743    -1.533498025153     0.459981945348
    C            1.524307539656     0.051774469680    -0.283311478898
    C            1.922116344367    -0.299556542785     1.135311114842
    H            1.519936194302     1.119848670726    -0.434859473625
    H            2.199326729976    -0.398715583703    -0.995066700983
    H            2.924912290507     0.062246961832     1.331484714125
    H            1.253440181141     0.159761768095     1.851723909785
    H            1.911330781931    -1.372610069075     1.282757456892

  Mulliken Charges: (a.u.)
   Center  Symbol    Alpha    Beta     Spin     Total
       1     O     4.19634  4.19634  0.00000 -0.39267
       2     C     2.80081  2.80081  0.00000  0.39838
       3     C     3.13772  3.13772  0.00000 -0.27545
       4     O     4.16041  4.16041  0.00000 -0.32083
       5     H     0.44450  0.44450  0.00000  0.11099
       6     H     0.43832  0.43832  0.00000  0.12336
       7     H     0.44803  0.44803  0.00000  0.10394
       8     C     2.98616  2.98616  0.00000  0.02769
       9     C     3.15002  3.15002  0.00000 -0.30005
      10     H     0.44639  0.44639  0.00000  0.10723
      11     H     0.44479  0.44479  0.00000  0.11042
      12     H     0.45011  0.45011  0.00000  0.09977
      13     H     0.44495  0.44495  0.00000  0.11009
      14     H     0.45144  0.45144  0.00000  0.09712

   Total alpha = 24.00000, Total beta = 24.00000, Total charge = -0.00000

*** Psi4 exiting successfully. Buy a developer a beer!
