  ==> Input File <==

--------------------------------------------------------------------------
set {
	reference rhf
	basis 6-31G*
}

set_num_threads( 4 )
memory 2 gb

molecule MOL {
0 1

H	 -2.798360	 -0.862255	 -0.071053
N	 -1.863561	 -0.715187	 0.256814
C	 -1.344686	 0.554728	 -0.219830
H	 -1.300452	 -1.461917	 -0.101532
C	 0.081427	 0.741154	 0.254071
H	 -1.362155	 0.656231	 -1.305829
H	 -1.952773	 1.354456	 0.191809
O	 0.909751	 -0.086178	 -0.511753
H	 0.383219	 1.782069	 0.139806
H	 0.154342	 0.477579	 1.306899
C	 2.246462	 -0.078245	 -0.123535
H	 2.783378	 -0.747139	 -0.782321
H	 2.678793	 0.917426	 -0.205447
H	 2.364722	 -0.422518	 0.901794

	symmetry c1
}
set optking {
	frozen_dihedral = ("
		8 5 3 6
	")
}

ee = optimize('scf')
oeprop('DIPOLE', 'QUADRUPOLE', 'MULLIKEN_CHARGES')
f=open( 'psi4out.xyz', 'w' )
f.write( "14  " )
f.write( str(ee) + "\n" )
f.write( MOL.save_string_xyz() )
f.close()
--------------------------------------------------------------------------

    Molecular point group: c1
  Charge       = 0
  Multiplicity = 1
  Basis Set: 6-31G*
  Basis Set:
  @DF-RHF Final Energy:  -248.12458188298325
    Total Energy =                       -248.1245818829833070
    Molecular point group: c1
  Basis Set: 6-31G*
  Basis Set:
  Basis Set: 6-31G*
  Basis Set:
  @DF-RHF Final Energy:  -248.12467415369483
    Total Energy =                       -248.1246741536947411
  Basis Set: 6-31G*
  Basis Set:
  Basis Set: 6-31G*
  Basis Set:
  @DF-RHF Final Energy:  -248.12469262151012
    Total Energy =                       -248.1246926215100075
  Basis Set: 6-31G*
  Basis Set:
  Charge       = 0
  Multiplicity = 1
  Basis Set: 6-31G*
  Basis Set:

    Orbital Energies (a.u.)
    -----------------------

    Doubly Occupied:

       1A    -20.557308     2A    -15.529646     3A    -11.266101
       4A    -11.265236     5A    -11.240795     6A     -1.381060
       7A     -1.174118     8A     -0.998990     9A     -0.906042
      10A     -0.816557    11A     -0.683403    12A     -0.673215
      13A     -0.645563    14A     -0.611911    15A     -0.603007
      16A     -0.542722    17A     -0.528473    18A     -0.497897
      19A     -0.472193    20A     -0.417735    21A     -0.381079

  @DF-RHF Final Energy:  -248.12469297259202

   => Energetics <=

    Nuclear Repulsion Energy =            194.1737981242522437
    One-Electron Energy =                -722.2108774051146156
    Two-Electron Energy =                 279.9123863082705270
    DFT Exchange-Correlation Energy =       0.0000000000000000
    Empirical Dispersion Energy =           0.0000000000000000
    PCM Polarization Energy =               0.0000000000000000
    EFP Energy =                            0.0000000000000000
    Total Energy =                       -248.1246929725918449
    Molecular point group: c1
  Basis Set: 6-31G*
  Basis Set:

  -Total Gradient:
     Atom            X                  Y                   Z
    ------   -----------------  -----------------  -----------------
       1       -0.000005820217    -0.000003544740     0.000003280614
       2        0.000014236089     0.000012152401    -0.000014594147
       3       -0.000612916347     0.004395941022    -0.000110764261
       4        0.000000011342    -0.000027111008     0.000006225188
       5       -0.000306290120    -0.003053432517     0.002038698473
       6        0.000529875653    -0.003139474501    -0.000270297600
       7       -0.000004331841    -0.000000806233    -0.000005022426
       8        0.000326375349     0.001833649207    -0.001616268348
       9        0.000001220321     0.000012930983     0.000011028158
      10        0.000009026632    -0.000004817039    -0.000011853398
      11        0.000031259043    -0.000027487725    -0.000040006025
      12        0.000024884026    -0.000001066151     0.000008049899
      13        0.000001146189     0.000001306806     0.000005225932
      14       -0.000008676119     0.000001759497    -0.000003702059

  **** Optimization is complete! (in 4 steps) ****
    Final optimized geometry and variables:
    Molecular point group: c1

    Geometry (in Angstrom), charge = 0, multiplicity = 1:

    H           -2.807768924038    -0.933003074516     0.001049304854
    N           -1.870467984979    -0.786969526961     0.322950312849
    C           -1.362455550762     0.496297802247    -0.138990580949
    H           -1.310535734821    -1.523946673490    -0.061427898062
    C            0.066328752186     0.683314592146     0.329083454975
    H           -1.373969765686     0.588481916830    -1.224952907556
    H           -1.980989880936     1.283991252006     0.277877470222
    O            0.888304961971    -0.155118218975    -0.432577084715
    H            0.374612913602     1.720273184634     0.195480654121
    H            0.141597044828     0.438621837282     1.385830665408
    C            2.226616488345    -0.148007406679    -0.049593163012
    H            2.759684567219    -0.821307902635    -0.707008737553
    H            2.659953589006     0.846631883160    -0.138790780808
    H            2.349127838306    -0.486617321470     0.977163722104

  Mulliken Charges: (a.u.)
   Center  Symbol    Alpha    Beta     Spin     Total
       1     H     0.33281  0.33281  0.00000  0.33438
       2     N     3.92532  3.92532  0.00000 -0.85063
       3     C     3.06909  3.06909  0.00000 -0.13818
       4     H     0.32599  0.32599  0.00000  0.34802
       5     C     2.99247  2.99247  0.00000  0.01506
       6     H     0.42403  0.42403  0.00000  0.15194
       7     H     0.41980  0.41980  0.00000  0.16040
       8     O     4.30937  4.30937  0.00000 -0.61873
       9     H     0.43088  0.43088  0.00000  0.13825
      10     H     0.42088  0.42088  0.00000  0.15823
      11     C     3.07922  3.07922  0.00000 -0.15843
      12     H     0.41251  0.41251  0.00000  0.17498
      13     H     0.42989  0.42989  0.00000  0.14022
      14     H     0.42776  0.42776  0.00000  0.14449

   Total alpha = 21.00000, Total beta = 21.00000, Total charge = -0.00000
