                              Psi4 1.0.54 Driver

  ==> Input File <==

--------------------------------------------------------------------------
set {
	reference rhf
	basis cc-pvtz
}

set_num_threads( 4 )
memory 2 gb

molecule MOL {
0 1

H	 -2.698799	 -0.000846	 0.036018
C	 -1.694291	 -0.000483	 0.434279
O	 -0.828718	 -0.000608	 -0.655022
H	 -1.576855	 0.881100	 1.056504
H	 -1.576401	 -0.881658	 1.057001
C	 0.557892	 0.000078	 -0.420099
C	 1.266653	 1.165557	 -1.100972
C	 0.900835	 -0.099883	 1.062010
H	 0.890295	 -0.912982	 -0.898063
H	 0.971905	 1.230215	 -2.141165
H	 2.339596	 1.017734	 -1.059887
H	 1.049370	 2.113426	 -0.622522
H	 0.352463	 -0.912843	 1.521824
H	 1.960509	 -0.293600	 1.181753
H	 0.673743	 0.814359	 1.597857

	symmetry c1
}
set optking {
	frozen_dihedral = ("
		9 6 3 2
	")
}

ee,wfn = optimize('scf', return_wfn=True)
oeprop( wfn, 'DIPOLE', 'QUADRUPOLE', 'MULLIKEN_CHARGES')
f=open( 'psi4out.xyz', 'w' )
f.write( "15  " )
f.write( str(ee) + "\n" )
f.write( MOL.save_string_xyz() )
f.close()
--------------------------------------------------------------------------

    Molecular point group: c1
  Charge       = 0
  Multiplicity = 1
  Basis Set: CC-PVTZ
  Basis Set:
  @DF-RHF Final Energy:  -232.21779388228259
    Total Energy =                       -232.2177938822825922
    Molecular point group: c1
  Basis Set: CC-PVTZ
  Basis Set:
  Basis Set: CC-PVTZ
  Basis Set:
  @DF-RHF Final Energy:  -231.27731585473919
    Total Energy =                       -231.2773158547391290
  Basis Set: CC-PVTZ
  Basis Set:
  Basis Set: CC-PVTZ
  Basis Set:
  @DF-RHF Final Energy:  -231.47212999773208
    Total Energy =                       -231.4721299977319973
  Basis Set: CC-PVTZ
  Basis Set:
  Basis Set: CC-PVTZ
  Basis Set:
  @DF-RHF Final Energy:  -231.80763835154877
    Total Energy =                       -231.8076383515488033
  Basis Set: CC-PVTZ
  Basis Set:
  @DF-RHF Final Energy:  -232.07361055475926
    Total Energy =                       -232.0736105547589432
  @DF-RHF Final Energy:  -232.20095333473350
    Total Energy =                       -232.2009533347334695
  @DF-RHF Final Energy:  -232.21896846243726
    Total Energy =                       -232.2189684624373740
  @DF-RHF Final Energy:  -232.22146820578683
    Total Energy =                       -232.2214682057866071
  Basis Set: CC-PVTZ
  Basis Set:
  @DF-RHF Final Energy:  -232.22172429155231
    Total Energy =                       -232.2217242915522775
  Basis Set: CC-PVTZ
  Basis Set:
  Basis Set: CC-PVTZ
  Basis Set:
  @DF-RHF Final Energy:  -232.22183346189405
    Total Energy =                       -232.2218334618941640
  Basis Set: CC-PVTZ
  Basis Set:
  Basis Set: CC-PVTZ
  Basis Set:
  @DF-RHF Final Energy:  -232.22183850531869
    Total Energy =                       -232.2218385053187149
  Basis Set: CC-PVTZ
  Basis Set:
  Charge       = 0
  Multiplicity = 1
  Basis Set: CC-PVTZ
  Basis Set:

    Orbital Energies (a.u.)
    -----------------------

    Doubly Occupied:

       1A    -20.538646     2A    -11.273258     3A    -11.259837
       4A    -11.213524     5A    -11.203482     6A     -1.369371
       7A     -1.054014     8A     -0.949449     9A     -0.917268
      10A     -0.782459    11A     -0.676768    12A     -0.643785
      13A     -0.632000    14A     -0.585864    15A     -0.554086
      16A     -0.541717    17A     -0.533644    18A     -0.507833
      19A     -0.493207    20A     -0.448717    21A     -0.400653

  @DF-RHF Final Energy:  -232.22183943469682

   => Energetics <=

    Nuclear Repulsion Energy =            198.1225261836961806
    One-Electron Energy =                -707.5295604059942889
    Two-Electron Energy =                 277.1851947876014606
    DFT Exchange-Correlation Energy =       0.0000000000000000
    Empirical Dispersion Energy =           0.0000000000000000
    PCM Polarization Energy =               0.0000000000000000
    EFP Energy =                            0.0000000000000000
    Total Energy =                       -232.2218394346966193
    Molecular point group: c1
  Basis Set: CC-PVTZ
  Basis Set:

  -Total Gradient:
     Atom            X                  Y                   Z
    ------   -----------------  -----------------  -----------------
       1       -0.000002830985    -0.000021137069     0.000004388129
       2        0.000350306049     0.000321064303     0.000139614249
       3       -0.000461191463    -0.000397764004    -0.000237861309
       4       -0.000002867410    -0.000010290595    -0.000026182173
       5        0.000034875187    -0.000001475443    -0.000022046750
       6       -0.000343386138    -0.000031319040     0.000450779515
       7        0.000003859059    -0.000013699842     0.000060407455
       8        0.000071720590    -0.000003008272     0.000012823338
       9        0.000393675436     0.000146479411    -0.000323393597
      10       -0.000024826394     0.000015615735    -0.000027862866
      11       -0.000009828044    -0.000011810992     0.000006548501
      12        0.000000388042     0.000007912694     0.000012571457
      13       -0.000006772997     0.000013284250    -0.000021167292
      14       -0.000012879226     0.000011470191    -0.000011904312
      15        0.000009758292    -0.000025321327    -0.000016714346

  **** Optimization is complete! (in 12 steps) ****
    Final optimized geometry and variables:
    Molecular point group: c1

    Geometry (in Angstrom), charge = 0, multiplicity = 1:

    H           -1.757571039444     2.103215689353    -0.042163947678
    C           -1.339649625319     1.208411963500     0.396882951051
    O           -0.527903316699     0.634006825267    -0.573963468623
    H           -0.789136292137     1.495117971432     1.287238666158
    H           -2.160886222870     0.561648429178     0.690366394643
    C            0.213458088018    -0.542117724021    -0.323249717364
    C            1.672322111952    -0.238253641292    -0.628299475345
    C            0.047186111917    -1.144484392815     1.066510130663
    H           -0.137070729545    -1.276401460188    -1.043149518516
    H            1.763172488125     0.184095777326    -1.620568853296
    H            2.274688255308    -1.138890797518    -0.580041424005
    H            2.068986318916     0.479245584594     0.082065957702
    H           -0.984619991523    -1.385992958208     1.285461302993
    H            0.615202397297    -2.065636326863     1.112551628711
    H            0.420923399725    -0.487976789396     1.843019056190

  Mulliken Charges: (a.u.)
   Center  Symbol    Alpha    Beta     Spin     Total
       1     H     0.44194  0.44194  0.00000  0.11612
       2     C     3.03695  3.03695  0.00000 -0.07390
       3     O     4.18957  4.18957  0.00000 -0.37914
       4     H     0.47107  0.47107  0.00000  0.05785
       5     H     0.46963  0.46963  0.00000  0.06075
       6     C     2.92231  2.92231  0.00000  0.15538
       7     C     3.13893  3.13893  0.00000 -0.27785
       8     C     3.17214  3.17214  0.00000 -0.34428
       9     H     0.45552  0.45552  0.00000  0.08897
      10     H     0.44603  0.44603  0.00000  0.10793
      11     H     0.45932  0.45932  0.00000  0.08137
      12     H     0.45796  0.45796  0.00000  0.08408
      13     H     0.44480  0.44480  0.00000  0.11040
      14     H     0.44315  0.44315  0.00000  0.11370
      15     H     0.45068  0.45068  0.00000  0.09863

   Total alpha = 21.00000, Total beta = 21.00000, Total charge = -0.00000

*** Psi4 exiting successfully. Buy a developer a beer!
