  ==> Input File <==

--------------------------------------------------------------------------
set {
	reference rhf
	basis 6-31G*
}

set_num_threads( 1 )
memory 2 gb

molecule MOL {
0 1

H	 2.582381	 0.177953	 1.052826
O	 1.730462	 -0.244095	 1.106643
C	 1.050492	 0.053836	 0.000068
C	 -0.318135	 -0.576402	 0.000164
O	 1.506608	 0.737484	 -0.857591
C	 -1.454360	 0.441875	 -0.000474
H	 -0.374042	 -1.230163	 -0.866135
H	 -0.374274	 -1.229227	 0.867154
C	 -2.826123	 -0.230780	 0.000056
H	 -1.357605	 1.085198	 -0.868380
H	 -1.357504	 1.086451	 0.866496
H	 -2.959731	 -0.858053	 -0.876869
H	 -3.619374	 0.509403	 -0.000080
H	 -2.959371	 -0.857318	 0.877556

	symmetry c1
}
set optking {
	frozen_dihedral = ("
		7 4 6 10,
		1 2 3 5
	")
}

ee = energy('scf')
oeprop('DIPOLE', 'QUADRUPOLE', 'MULLIKEN_CHARGES')
f=open( 'psi4out.xyz', 'w' )
f.write( "14  " )
f.write( str(ee) + "\n" )
f.write( MOL.save_string_xyz() )
f.close()
--------------------------------------------------------------------------

    Molecular point group: c1

    Geometry (in Angstrom), charge = 0, multiplicity = 1:

       Center              X                  Y                   Z               Mass
    ------------   -----------------  -----------------  -----------------  -----------------
           H          2.597166586475     0.145835645459     0.995563095580     1.007825032070
           O          1.745247586475    -0.276212354541     1.049380095580    15.994914619560
           C          1.065277586475     0.021718645459    -0.057194904420    12.000000000000
           C         -0.303349413525    -0.608519354541    -0.057098904420    12.000000000000
           O          1.521393586475     0.705366645459    -0.914853904420    15.994914619560
           C         -1.439574413525     0.409757645459    -0.057736904420    12.000000000000
           H         -0.359256413525    -1.262280354541    -0.923397904420     1.007825032070
           H         -0.359488413525    -1.261344354541     0.809891095580     1.007825032070
           C         -2.811337413525    -0.262897354541    -0.057206904420    12.000000000000
           H         -1.342819413525     1.053080645459    -0.925642904420     1.007825032070
           H         -1.342718413525     1.054333645459     0.809233095580     1.007825032070
           H         -2.944945413525    -0.890170354541    -0.934131904420     1.007825032070
           H         -3.604588413525     0.477285645459    -0.057342904420     1.007825032070
           H         -2.944585413525    -0.889435354541     0.820293095580     1.007825032070

  Charge       = 0
  Multiplicity = 1
  Basis Set: 6-31G*
  Basis Set:

    Orbital Energies (a.u.)
    -----------------------

    Doubly Occupied:

       1A    -20.614140     2A    -20.549857     3A    -11.380957
       4A    -11.239337     5A    -11.233749     6A    -11.220633
       7A     -1.474753     8A     -1.365154     9A     -1.086179
      10A     -0.980372    11A     -0.856524    12A     -0.801809
      13A     -0.702506    14A     -0.685898    15A     -0.649354
      16A     -0.628205    17A     -0.594716    18A     -0.571215
      19A     -0.548397    20A     -0.514723    21A     -0.498329
      22A     -0.486793    23A     -0.472289    24A     -0.440295

  @DF-RHF Final Energy:  -305.87843874364694

   => Energetics <=

    Nuclear Repulsion Energy =            239.7990109863286534
    One-Electron Energy =                -892.1624172709808818
    Two-Electron Energy =                 346.4849675410051759
    DFT Exchange-Correlation Energy =       0.0000000000000000
    Empirical Dispersion Energy =           0.0000000000000000
    PCM Polarization Energy =               0.0000000000000000
    EFP Energy =                            0.0000000000000000
    Total Energy =                       -305.8784387436470524

  Mulliken Charges: (a.u.)
   Center  Symbol    Alpha    Beta     Spin     Total
       1     H     0.26863  0.26863  0.00000  0.46274
       2     O     4.34766  4.34766  0.00000 -0.69531
       3     C     2.62775  2.62775  0.00000  0.74451
       4     C     3.20553  3.20553  0.00000 -0.41107
       5     O     4.27886  4.27886  0.00000 -0.55771
       6     C     3.16089  3.16089  0.00000 -0.32178
       7     H     0.39946  0.39946  0.00000  0.20109
       8     H     0.39959  0.39959  0.00000  0.20083
       9     C     3.24220  3.24220  0.00000 -0.48440
      10     H     0.40439  0.40439  0.00000  0.19121
      11     H     0.41369  0.41369  0.00000  0.17262
      12     H     0.41825  0.41825  0.00000  0.16350
      13     H     0.41421  0.41421  0.00000  0.17157
      14     H     0.41890  0.41890  0.00000  0.16220

   Total alpha = 24.00000, Total beta = 24.00000, Total charge = -0.00000
