                              Psi4 1.0.54 Driver

  ==> Input File <==

--------------------------------------------------------------------------
set {
	reference rhf
	basis cc-pvtz
}

set_num_threads( 4 )
memory 2 gb

molecule MOL {
0 1

H	 -3.110580	 1.070879	 1.913855
O	 -2.416789	 0.502246	 1.635457
C	 -2.302264	 0.528872	 0.237390
C	 -1.175688	 -0.398187	 -0.171891
H	 -3.232712	 0.208826	 -0.226949
H	 -2.094460	 1.539367	 -0.108366
C	 0.196029	 0.106276	 0.266738
H	 -1.201873	 -0.515469	 -1.250677
H	 -1.365975	 -1.378728	 0.252664
C	 1.330220	 -0.826136	 -0.155230
H	 0.359542	 1.097229	 -0.145561
H	 0.212134	 0.218135	 1.348778
C	 2.719700	 -0.407669	 0.328325
H	 1.339388	 -0.911200	 -1.239363
H	 1.119001	 -1.821953	 0.224128
C	 3.241564	 0.893452	 -0.276737
H	 3.418299	 -1.204729	 0.093035
H	 2.711776	 -0.323368	 1.411960
H	 3.254204	 0.841071	 -1.360784
H	 2.634460	 1.745075	 0.005842
H	 4.254264	 1.092401	 0.054971

	symmetry c1
}
set optking {
	frozen_dihedral = ("
		2 3 4 8
	")
}

ee,wfn = optimize('scf', return_wfn=True)
oeprop( wfn, 'DIPOLE', 'QUADRUPOLE', 'MULLIKEN_CHARGES')
f=open( 'psi4out.xyz', 'w' )
f.write( "21  " )
f.write( str(ee) + "\n" )
f.write( MOL.save_string_xyz() )
f.close()
--------------------------------------------------------------------------

    Molecular point group: c1
  Charge       = 0
  Multiplicity = 1
  Basis Set: CC-PVTZ
  Basis Set:
  @DF-RHF Final Energy:  -310.33284566809567
    Total Energy =                       -310.3328456680955014
    Molecular point group: c1
  Basis Set: CC-PVTZ
  Basis Set:
  Basis Set: CC-PVTZ
  Basis Set:
  @DF-RHF Final Energy:  -310.33294437042576
    Total Energy =                       -310.3329443704258779
  Basis Set: CC-PVTZ
  Basis Set:
  Basis Set: CC-PVTZ
  Basis Set:
  @DF-RHF Final Energy:  -310.33295733314139
    Total Energy =                       -310.3329573331412803
  Basis Set: CC-PVTZ
  Basis Set:
  Basis Set: CC-PVTZ
  Basis Set:
  @DF-RHF Final Energy:  -310.33295595704408
    Total Energy =                       -310.3329559570441916
  Basis Set: CC-PVTZ
  Basis Set:
  Basis Set: CC-PVTZ
  Basis Set:
  @DF-RHF Final Energy:  -310.33296070643371
    Total Energy =                       -310.3329607064336528
  Basis Set: CC-PVTZ
  Basis Set:
  Charge       = 0
  Multiplicity = 1
  Basis Set: CC-PVTZ
  Basis Set:

    Orbital Energies (a.u.)
    -----------------------

    Doubly Occupied:

       1A    -20.546134     2A    -11.265738     3A    -11.210167
       4A    -11.209407     5A    -11.207222     6A    -11.204753
       7A    -11.203041     8A     -1.363911     9A     -1.082718
      10A     -1.031573    11A     -0.954644    12A     -0.876186
      13A     -0.802744    14A     -0.773970    15A     -0.708128
      16A     -0.644004    17A     -0.625234    18A     -0.603973
      19A     -0.586004    20A     -0.569900    21A     -0.533989
      22A     -0.526595    23A     -0.504706    24A     -0.488556
      25A     -0.480026    26A     -0.458180    27A     -0.453791
      28A     -0.444287    29A     -0.428563

  @DF-RHF Final Energy:  -310.33296079692337

   => Energetics <=

    Nuclear Repulsion Energy =            316.9988938441162531
    One-Electron Energy =               -1049.0874186971204836
    Two-Electron Energy =                 421.7555640560807433
    DFT Exchange-Correlation Energy =       0.0000000000000000
    Empirical Dispersion Energy =           0.0000000000000000
    PCM Polarization Energy =               0.0000000000000000
    EFP Energy =                            0.0000000000000000
    Total Energy =                       -310.3329607969234303
    Molecular point group: c1
  Basis Set: CC-PVTZ
  Basis Set:

  -Total Gradient:
     Atom            X                  Y                   Z
    ------   -----------------  -----------------  -----------------
       1       -0.000009900071    -0.000000598990     0.000008834468
       2       -0.000425958590    -0.000503505323    -0.000058374570
       3        0.000449835940     0.000512843238     0.000081881911
       4        0.000496748295     0.000689250346    -0.000130500814
       5       -0.000010420613     0.000004521187     0.000009360500
       6       -0.000003066330    -0.000001230305     0.000003596135
       7       -0.000019593601    -0.000009110500    -0.000004938806
       8       -0.000501004027    -0.000692735200     0.000079132859
       9        0.000005116494     0.000004716774    -0.000000159161
      10        0.000009200577     0.000006859547    -0.000016684631
      11       -0.000007281424    -0.000011830135     0.000005815752
      12       -0.000002619421     0.000008056656     0.000021503507
      13        0.000004505712    -0.000003563247    -0.000000217656
      14        0.000001982501    -0.000003987275     0.000001383501
      15        0.000009525812     0.000004859944    -0.000000850916
      16       -0.000000672834    -0.000002137076    -0.000002432473
      17        0.000004030261     0.000000349733     0.000003444194
      18       -0.000005094617     0.000001666550     0.000000245065
      19       -0.000002598204     0.000001074621    -0.000002074718
      20        0.000005934974    -0.000002048046     0.000002498663
      21        0.000001329166    -0.000003452496    -0.000001462806

  **** Optimization is complete! (in 6 steps) ****
    Final optimized geometry and variables:
    Molecular point group: c1

    Geometry (in Angstrom), charge = 0, multiplicity = 1:

    H           -3.283894278670     0.977992950319     1.645681253142
    O           -2.603693846570     0.396793331534     1.360234515055
    C           -2.490076221133     0.434929411601    -0.039050509986
    C           -1.345477887629    -0.464011985954    -0.465148398702
    H           -3.412972743523     0.091130331519    -0.499306630069
    H           -2.311474566807     1.452911076339    -0.379575985230
    C            0.029016753190     0.038554943622    -0.032173496087
    H           -1.379636432702    -0.567030185954    -1.546688568665
    H           -1.522659193185    -1.452996994730    -0.053457190100
    C            1.157607117641    -0.902813634791    -0.448093021252
    H            0.191162681528     1.024357337804    -0.458104510847
    H            0.038222742350     0.160970478742     1.045406686901
    C            2.549688983029    -0.485614605290     0.029288620998
    H            1.166584115514    -1.000918275065    -1.531771181167
    H            0.943561105835    -1.893600763465    -0.056838989375
    C            3.076871614639     0.805979436659    -0.591221825394
    H            3.245070104599    -1.288281475559    -0.196895816533
    H            2.541707315962    -0.388063649862     1.111561662426
    H            3.087552333239     0.741406202809    -1.674760249159
    H            2.474008366864     1.663188560953    -0.316978058006
    H            4.091144671376     1.003868530134    -0.263477705956

  Mulliken Charges: (a.u.)
   Center  Symbol    Alpha    Beta     Spin     Total
       1     H     0.39573  0.39573  0.00000  0.20854
       2     O     4.19903  4.19903  0.00000 -0.39806
       3     C     2.97305  2.97305  0.00000  0.05390
       4     C     3.09133  3.09133  0.00000 -0.18266
       5     H     0.46535  0.46535  0.00000  0.06931
       6     H     0.47413  0.47413  0.00000  0.05175
       7     C     3.09231  3.09231  0.00000 -0.18463
       8     H     0.45375  0.45375  0.00000  0.09250
       9     H     0.45150  0.45150  0.00000  0.09699
      10     C     3.09455  3.09455  0.00000 -0.18910
      11     H     0.45705  0.45705  0.00000  0.08590
      12     H     0.44457  0.44457  0.00000  0.11086
      13     C     3.08967  3.08967  0.00000 -0.17935
      14     H     0.45607  0.45607  0.00000  0.08786
      15     H     0.44941  0.44941  0.00000  0.10117
      16     C     3.15258  3.15258  0.00000 -0.30516
      17     H     0.44942  0.44942  0.00000  0.10116
      18     H     0.45422  0.45422  0.00000  0.09157
      19     H     0.45577  0.45577  0.00000  0.08845
      20     H     0.45365  0.45365  0.00000  0.09271
      21     H     0.44685  0.44685  0.00000  0.10629

   Total alpha = 29.00000, Total beta = 29.00000, Total charge = -0.00000

*** Psi4 exiting successfully. Buy a developer a beer!
