  ==> Input File <==

--------------------------------------------------------------------------
set {
	reference rhf
	basis 6-31G*
}

set_num_threads( 4 )
memory 2 gb

molecule MOL {
0 1

O	 0.398782	 0.250070	 0.934403
C	 1.122059	 0.121804	 -0.000188
C	 0.983542	 0.836322	 -1.322372
O	 2.172624	 -0.688929	 0.000216
C	 -0.211538	 1.782931	 -1.377674
H	 1.914473	 1.366569	 -1.503922
H	 0.920345	 0.076773	 -2.096869
C	 -0.328723	 2.493115	 -2.727219
H	 -0.124857	 2.516415	 -0.582066
H	 -1.120427	 1.224811	 -1.175369
C	 -1.524272	 3.442589	 -2.791753
H	 0.584821	 3.050126	 -2.925343
H	 -0.412694	 1.753585	 -3.521017
H	 -1.452159	 4.215063	 -2.031662
H	 -1.584218	 3.933135	 -3.758214
H	 -2.456821	 2.909168	 -2.632213
C	 3.452279	 -0.082609	 0.000533
H	 3.583069	 0.529321	 -0.880332
H	 4.163299	 -0.894027	 0.001117
H	 3.582335	 0.529955	 0.881077

	symmetry c1
}
set optking {
	frozen_dihedral = ("
		1 2 4 17
	")
}

ee = optimize('scf')
oeprop('DIPOLE', 'QUADRUPOLE', 'MULLIKEN_CHARGES')
f=open( 'psi4out.xyz', 'w' )
f.write( "20  " )
f.write( str(ee) + "\n" )
f.write( MOL.save_string_xyz() )
f.close()
--------------------------------------------------------------------------

    Molecular point group: c1
  Charge       = 0
  Multiplicity = 1
  Basis Set: 6-31G*
  Basis Set:
  @DF-RHF Final Energy:  -383.91722784548085
    Total Energy =                       -383.9172278454808520
    Molecular point group: c1
  Basis Set: 6-31G*
  Basis Set:
  Basis Set: 6-31G*
  Basis Set:
  @DF-RHF Final Energy:  -383.91625491359343
    Total Energy =                       -383.9162549135930362
  Basis Set: 6-31G*
  Basis Set:
  Basis Set: 6-31G*
  Basis Set:
  @DF-RHF Final Energy:  -383.91915608990439
    Total Energy =                       -383.9191560899047317
  Basis Set: 6-31G*
  Basis Set:
  Basis Set: 6-31G*
  Basis Set:
  @DF-RHF Final Energy:  -383.92038282260575
    Total Energy =                       -383.9203828226056885
  Basis Set: 6-31G*
  Basis Set:
  Basis Set: 6-31G*
  Basis Set:
  @DF-RHF Final Energy:  -383.92044361024494
    Total Energy =                       -383.9204436102444333
  Basis Set: 6-31G*
  Basis Set:
  Basis Set: 6-31G*
  Basis Set:
  @DF-RHF Final Energy:  -383.92045617743361
    Total Energy =                       -383.9204561774333797
  Basis Set: 6-31G*
  Basis Set:
  Charge       = 0
  Multiplicity = 1
  Basis Set: 6-31G*
  Basis Set:

    Orbital Energies (a.u.)
    -----------------------

    Doubly Occupied:

       1A    -20.587098     2A    -20.555428     3A    -11.375084
       4A    -11.293891     5A    -11.241427     6A    -11.223496
       7A    -11.222797     8A    -11.212954     9A     -1.458674
      10A     -1.367698    11A     -1.090591    12A     -1.017954
      13A     -0.974661    14A     -0.898350    15A     -0.808618
      16A     -0.766047    17A     -0.696433    18A     -0.677716
      19A     -0.676466    20A     -0.646026    21A     -0.616686
      22A     -0.590425    23A     -0.589914    24A     -0.551320
      25A     -0.538185    26A     -0.515799    27A     -0.493726
      28A     -0.486887    29A     -0.480292    30A     -0.473312
      31A     -0.451918    32A     -0.433736

  @DF-RHF Final Energy:  -383.92045701512689

   => Energetics <=

    Nuclear Repulsion Energy =            381.6273921244195435
    One-Electron Energy =               -1279.0684804214947690
    Two-Electron Energy =                 513.5206312819486811
    DFT Exchange-Correlation Energy =       0.0000000000000000
    Empirical Dispersion Energy =           0.0000000000000000
    PCM Polarization Energy =               0.0000000000000000
    EFP Energy =                            0.0000000000000000
    Total Energy =                       -383.9204570151265443
    Molecular point group: c1
  Basis Set: 6-31G*
  Basis Set:

  -Total Gradient:
     Atom            X                  Y                   Z
    ------   -----------------  -----------------  -----------------
       1        0.000368457837     0.000399065690     0.000249513056
       2       -0.000504541193    -0.000664495183    -0.000113014268
       3       -0.000012671935     0.000027160315     0.000031283627
       4        0.000214306715     0.000258412626    -0.000647258443
       5        0.000020434490    -0.000008869994    -0.000010932091
       6        0.000001475505    -0.000009384211    -0.000027404560
       7        0.000003742748    -0.000013814883    -0.000012884867
       8        0.000007061981     0.000010436550     0.000013473715
       9        0.000009773660     0.000006172251     0.000003778247
      10       -0.000001705833     0.000013596377     0.000006408533
      11       -0.000012358851    -0.000015718375    -0.000014043619
      12       -0.000007078972     0.000012216302     0.000003280612
      13        0.000013556498     0.000003794925     0.000001289146
      14        0.000006656850    -0.000003224045    -0.000004696679
      15       -0.000007958618    -0.000002666880    -0.000004422482
      16       -0.000002292365     0.000002921149     0.000005280704
      17       -0.000107291511    -0.000013369074     0.000540774810
      18       -0.000013338134    -0.000006589012    -0.000013505908
      19        0.000000126963    -0.000008534156    -0.000010082761
      20        0.000023644163     0.000012889636     0.000003163225

  **** Optimization is complete! (in 7 steps) ****
    Final optimized geometry and variables:
    Molecular point group: c1

    Geometry (in Angstrom), charge = 0, multiplicity = 1:

    O           -0.346930029286    -0.723327003662     1.795526035319
    C            0.378884039525    -0.842631986041     0.871281612411
    C            0.213514269681    -0.115700439770    -0.444758418875
    O            1.405673595790    -1.721804222541     0.907625368099
    C           -1.012383133477     0.791811160891    -0.491368516946
    H            1.116869250894     0.456891109641    -0.640133447170
    H            0.172282354921    -0.874135652654    -1.222569130767
    C           -1.159361217844     1.503571209333    -1.837148443603
    H           -0.946645238363     1.523852529769     0.307558230873
    H           -1.900333575354     0.202008362542    -0.287542708870
    C           -2.389947953647     2.407710049212    -1.894018249936
    H           -0.268061884794     2.095924088476    -2.035125558579
    H           -1.217792235641     0.765248379260    -2.634274613641
    H           -2.344491844846     3.179249828047    -1.130953932168
    H           -2.471308429897     2.899432439186    -2.858265968622
    H           -3.301069705263     1.838805609093    -1.733874229184
    C            2.722215531710    -1.220678200150     0.970462301924
    H            3.005570129638    -0.718302149624     0.052728002224
    H            3.364996519762    -2.074577422057     1.116703851055
    H            2.835705573848    -0.542199672377     1.808111498016

  Mulliken Charges: (a.u.)
   Center  Symbol    Alpha    Beta     Spin     Total
       1     O     4.25088  4.25088  0.00000 -0.50176
       2     C     2.61178  2.61178  0.00000  0.77643
       3     C     3.21945  3.21945  0.00000 -0.43890
       4     O     4.31367  4.31367  0.00000 -0.62734
       5     C     3.15015  3.15015  0.00000 -0.30030
       6     H     0.40749  0.40749  0.00000  0.18502
       7     H     0.39891  0.39891  0.00000  0.20217
       8     C     3.15436  3.15436  0.00000 -0.30872
       9     H     0.41198  0.41198  0.00000  0.17604
      10     H     0.40993  0.40993  0.00000  0.18015
      11     C     3.23947  3.23947  0.00000 -0.47893
      12     H     0.42404  0.42404  0.00000  0.15193
      13     H     0.42244  0.42244  0.00000  0.15512
      14     H     0.41982  0.41982  0.00000  0.16035
      15     H     0.41842  0.41842  0.00000  0.16316
      16     H     0.41916  0.41916  0.00000  0.16168
      17     C     3.09276  3.09276  0.00000 -0.18553
      18     H     0.42105  0.42105  0.00000  0.15789
      19     H     0.40090  0.40090  0.00000  0.19819
      20     H     0.41332  0.41332  0.00000  0.17335

   Total alpha = 32.00000, Total beta = 32.00000, Total charge = -0.00000
