  ==> Input File <==

--------------------------------------------------------------------------
set {
	reference rhf
	basis 6-31G*
}

set_num_threads( 1 )
memory 2 gb

molecule MOL {
0 1

H	 -2.646374	 -0.642757	 1.268656
C	 -2.083525	 -0.384536	 0.393091
O	 -0.807605	 -0.127164	 0.768327
F	 -2.118945	 -1.383102	 -0.486752
F	 -2.621877	 0.670592	 -0.209486
C	 -0.572959	 0.162793	 2.100075
C	 0.328959	 1.389750	 2.135832
Cl	 0.201484	 -1.204758	 2.916934
H	 -1.477968	 0.392485	 2.634841
F	 0.586267	 1.734859	 3.379549
F	 -0.296638	 2.393358	 1.553735
F	 1.463025	 1.188545	 1.510223

	symmetry c1
}
set optking {
	frozen_dihedral = ("
		10 7 6 9,
		9 6 3 2
	")
}

ee = energy('scf')
oeprop('DIPOLE', 'QUADRUPOLE', 'MULLIKEN_CHARGES')
f=open( 'psi4out.xyz', 'w' )
f.write( "12  " )
f.write( str(ee) + "\n" )
f.write( MOL.save_string_xyz() )
f.close()
--------------------------------------------------------------------------

    Molecular point group: c1

    Geometry (in Angstrom), charge = 0, multiplicity = 1:

       Center              X                  Y                   Z               Mass
    ------------   -----------------  -----------------  -----------------  -----------------
           H         -2.131461208453    -0.952991617576    -0.269420355773     1.007825032070
           C         -1.568612208453    -0.694770617576    -1.144985355773    12.000000000000
           O         -0.292692208453    -0.437398617576    -0.769749355773    15.994914619560
           F         -1.604032208453    -1.693336617576    -2.024828355773    18.998403224000
           F         -2.106964208453     0.360357382424    -1.747562355773    18.998403224000
           C         -0.058046208453    -0.147441617576     0.561998644227    12.000000000000
           C          0.843871791547     1.079515382424     0.597755644227    12.000000000000
          CL          0.716396791547    -1.514992617576     1.378857644227    34.968852682000
           H         -0.963055208453     0.082250382424     1.096764644227     1.007825032070
           F          1.101179791547     1.424624382424     1.841472644227    18.998403224000
           F          0.218274791547     2.083123382424     0.015658644227    18.998403224000
           F          1.977937791547     0.878310382424    -0.027853355773    18.998403224000

  Charge       = 0
  Multiplicity = 1
  Basis Set: 6-31G*
  Basis Set:

    Orbital Energies (a.u.)
    -----------------------

    Doubly Occupied:

       1A   -104.854107     2A    -26.365849     3A    -26.363469
       4A    -26.361734     5A    -26.340607     6A    -26.340576
       7A    -20.652443     8A    -11.533907     9A    -11.491067
      10A    -11.413206    11A    -10.588826    12A     -8.058163
      13A     -8.054637    14A     -8.054526    15A     -1.765972
      16A     -1.709383    17A     -1.662755    18A     -1.660604
      19A     -1.630948    20A     -1.492129    21A     -1.187941
      22A     -1.056723    23A     -0.984250    24A     -0.934035
      25A     -0.861370    26A     -0.859038    27A     -0.850249
      28A     -0.820347    29A     -0.808215    30A     -0.793084
      31A     -0.731560    32A     -0.728390    33A     -0.694263
      34A     -0.693486    35A     -0.682265    36A     -0.678226
      37A     -0.662569    38A     -0.658669    39A     -0.653332
      40A     -0.642049    41A     -0.613918    42A     -0.566000
      43A     -0.526962    44A     -0.486935    45A     -0.479673

  @DF-RHF Final Energy: -1146.30615032053788

   => Energetics <=

    Nuclear Repulsion Energy =            725.4315675215009378
    One-Electron Energy =               -3033.3783741745878615
    Two-Electron Energy =                1161.6406563325492698
    DFT Exchange-Correlation Energy =       0.0000000000000000
    Empirical Dispersion Energy =           0.0000000000000000
    PCM Polarization Energy =               0.0000000000000000
    EFP Energy =                            0.0000000000000000
    Total Energy =                      -1146.3061503205378813

  Mulliken Charges: (a.u.)
   Center  Symbol    Alpha    Beta     Spin     Total
       1     H     0.42597  0.42597  0.00000  0.14806
       2     C     2.56430  2.56430  0.00000  0.87139
       3     O     4.29486  4.29486  0.00000 -0.58971
       4     F     4.67585  4.67585  0.00000 -0.35171
       5     F     4.67696  4.67696  0.00000 -0.35391
       6     C     3.04485  3.04485  0.00000 -0.08971
       7     C     2.42985  2.42985  0.00000  1.14031
       8    CL     8.49630  8.49630  0.00000  0.00739
       9     H     0.37567  0.37567  0.00000  0.24866
      10     F     4.67367  4.67367  0.00000 -0.34734
      11     F     4.67509  4.67509  0.00000 -0.35017
      12     F     4.66663  4.66663  0.00000 -0.33327

   Total alpha = 45.00000, Total beta = 45.00000, Total charge =  0.00000
