                              Psi4 1.0.54 Driver

  ==> Input File <==

--------------------------------------------------------------------------
set {
	reference rhf
	basis cc-pvtz
}

set_num_threads( 4 )
memory 2 gb

molecule MOL {
0 1

H	 -2.171709	 0.882708	 0.500286
C	 -2.016894	 0.001719	 -0.114152
O	 -0.775228	 0.000056	 -0.739966
H	 -2.760846	 0.003757	 -0.898169
H	 -2.174774	 -0.879864	 0.498643
C	 -0.669358	 -0.386828	 -2.095839
C	 0.818883	 -0.255587	 -2.400468
C	 -1.114482	 -1.837364	 -2.291924
C	 -1.470372	 0.550542	 -3.001549
H	 1.392195	 -0.898547	 -1.744709
H	 1.144060	 0.764588	 -2.240443
H	 1.030842	 -0.529947	 -3.427000
H	 -0.590662	 -2.487911	 -1.601946
H	 -0.892960	 -2.162179	 -3.301535
H	 -2.179102	 -1.961284	 -2.137686
H	 -1.197299	 1.581519	 -2.811269
H	 -1.264212	 0.329866	 -4.042066
H	 -2.537975	 0.446452	 -2.853371

	symmetry c1
}
set optking {
	frozen_dihedral = ("
		6 3 2 5
	")
}

ee,wfn = optimize('scf', return_wfn=True)
oeprop( wfn, 'DIPOLE', 'QUADRUPOLE', 'MULLIKEN_CHARGES')
f=open( 'psi4out.xyz', 'w' )
f.write( "18  " )
f.write( str(ee) + "\n" )
f.write( MOL.save_string_xyz() )
f.close()
--------------------------------------------------------------------------

    Molecular point group: c1
  Charge       = 0
  Multiplicity = 1
  Basis Set: CC-PVTZ
  Basis Set:
  @DF-RHF Final Energy:  -271.27240139217952
    Total Energy =                       -271.2724013921792903
    Molecular point group: c1
  Basis Set: CC-PVTZ
  Basis Set:
  Basis Set: CC-PVTZ
  Basis Set:
  @DF-RHF Final Energy:  -271.27427298361158
    Total Energy =                       -271.2742729836115814
  Basis Set: CC-PVTZ
  Basis Set:
  Basis Set: CC-PVTZ
  Basis Set:
  @DF-RHF Final Energy:  -271.27515045932864
    Total Energy =                       -271.2751504593286427
  Basis Set: CC-PVTZ
  Basis Set:
  Basis Set: CC-PVTZ
  Basis Set:
  @DF-RHF Final Energy:  -271.27513625766375
    Total Energy =                       -271.2751362576641441
  Basis Set: CC-PVTZ
  Basis Set:
  @DF-RHF Final Energy:  -271.27518100467319
    Total Energy =                       -271.2751810046734704
  Basis Set: CC-PVTZ
  Basis Set:
  @DF-RHF Final Energy:  -271.27518842958318
    Total Energy =                       -271.2751884295828972
  Basis Set: CC-PVTZ
  Basis Set:
  Basis Set: CC-PVTZ
  Basis Set:
  @DF-RHF Final Energy:  -271.27519686897807
    Total Energy =                       -271.2751968689781847
  Basis Set: CC-PVTZ
  Basis Set:
  Basis Set: CC-PVTZ
  Basis Set:
  @DF-RHF Final Energy:  -271.27519874261776
    Total Energy =                       -271.2751987426178175
  Basis Set: CC-PVTZ
  Basis Set:
  Charge       = 0
  Multiplicity = 1
  Basis Set: CC-PVTZ
  Basis Set:

    Orbital Energies (a.u.)
    -----------------------

    Doubly Occupied:

       1A    -20.538832     2A    -11.280577     3A    -11.258436
       4A    -11.207553     5A    -11.206622     6A    -11.201830
       7A     -1.371934     8A     -1.074206     9A     -0.946694
      10A     -0.940839    11A     -0.913454    12A     -0.753709
      13A     -0.656493    14A     -0.645992    15A     -0.640378
      16A     -0.591116    17A     -0.572713    18A     -0.552880
      19A     -0.537860    20A     -0.524960    21A     -0.515372
      22A     -0.491303    23A     -0.488020    24A     -0.440071
      25A     -0.404774

  @DF-RHF Final Energy:  -271.27519873099777

   => Energetics <=

    Nuclear Repulsion Energy =            272.5737113900340773
    One-Electron Energy =                -908.1845892171468222
    Two-Electron Energy =                 364.3356790961147453
    DFT Exchange-Correlation Energy =       0.0000000000000000
    Empirical Dispersion Energy =           0.0000000000000000
    PCM Polarization Energy =               0.0000000000000000
    EFP Energy =                            0.0000000000000000
    Total Energy =                       -271.2751987309979995
    Molecular point group: c1
  Basis Set: CC-PVTZ
  Basis Set:

  -Total Gradient:
     Atom            X                  Y                   Z
    ------   -----------------  -----------------  -----------------
       1       -0.000008523425     0.000006550686     0.000009727386
       2       -0.001157218813    -0.000692918851    -0.002059614389
       3        0.000792830274    -0.001890009906     0.001265052601
       4        0.000000910622    -0.000003123631    -0.000011236861
       5        0.000761998524     0.001131034450     0.001385100583
       6       -0.000394285073     0.001449026697    -0.000595117610
       7       -0.000006309367     0.000007436326     0.000003566207
       8       -0.000001418500     0.000001656184     0.000006117574
       9        0.000012418084    -0.000001301866    -0.000003611292
      10       -0.000007010031    -0.000007158479    -0.000000835102
      11        0.000010065795     0.000001248239     0.000004388353
      12       -0.000003811891     0.000006688599    -0.000004116539
      13        0.000011831612    -0.000011826955     0.000008111824
      14       -0.000000140871     0.000003516943    -0.000005665066
      15       -0.000010158558    -0.000002513347     0.000006298109
      16       -0.000004006091     0.000008465664     0.000003687569
      17        0.000003493200    -0.000000509041    -0.000016696715
      18       -0.000000665493    -0.000006261710     0.000004843368

  **** Optimization is complete! (in 9 steps) ****
    Final optimized geometry and variables:
    Molecular point group: c1

    Geometry (in Angstrom), charge = 0, multiplicity = 1:

    H           -1.169235331914     1.295876781220     2.242063065437
    C           -1.082489548770     0.383238331718     1.666183652368
    O            0.125415892207     0.426846527241     0.972268758188
    H           -1.946803792544     0.314487928819     1.018547514744
    H           -1.100293921274    -0.451262778658     2.360380533794
    C            0.207089089582    -0.082361054656    -0.343963654650
    C            1.687672476652     0.022648063927    -0.692383867121
    C           -0.238211059760    -1.544830279241    -0.395789550021
    C           -0.612894382106     0.774895704590    -1.310282618831
    H            2.277318439608    -0.565423017673    -0.000726795420
    H            2.015138545604     1.052225503019    -0.623578701735
    H            1.875413048188    -0.333853866928    -1.698309063033
    H            0.331612280601    -2.136131874479     0.310902968721
    H           -0.079419057578    -1.952451373445    -1.387049085655
    H           -1.289940193110    -1.655690407453    -0.161337802001
    H           -0.313607338613     1.812873487007    -1.232395942883
    H           -0.452491231141     0.448262614102    -2.331052339178
    H           -1.675749737672     0.712041130291    -1.113496972563

  Mulliken Charges: (a.u.)
   Center  Symbol    Alpha    Beta     Spin     Total
       1     H     0.44760  0.44760  0.00000  0.10481
       2     C     3.04431  3.04431  0.00000 -0.08862
       3     O     4.19276  4.19276  0.00000 -0.38553
       4     H     0.46830  0.46830  0.00000  0.06340
       5     H     0.46003  0.46003  0.00000  0.07993
       6     C     2.87887  2.87887  0.00000  0.24225
       7     C     3.14267  3.14267  0.00000 -0.28534
       8     C     3.16175  3.16175  0.00000 -0.32350
       9     C     3.16029  3.16029  0.00000 -0.32058
      10     H     0.44934  0.44934  0.00000  0.10131
      11     H     0.44860  0.44860  0.00000  0.10280
      12     H     0.45924  0.45924  0.00000  0.08152
      13     H     0.44627  0.44627  0.00000  0.10745
      14     H     0.44743  0.44743  0.00000  0.10515
      15     H     0.44855  0.44855  0.00000  0.10290
      16     H     0.44641  0.44641  0.00000  0.10719
      17     H     0.44927  0.44927  0.00000  0.10147
      18     H     0.44830  0.44830  0.00000  0.10339

   Total alpha = 25.00000, Total beta = 25.00000, Total charge = -0.00000

*** Psi4 exiting successfully. Buy a developer a beer!
