                              Psi4 1.0.54 Driver

  ==> Input File <==

--------------------------------------------------------------------------
set {
	reference rhf
	basis cc-pvtz
}

set_num_threads( 4 )
memory 2 gb

molecule MOL {
0 1

H	 2.161291	 0.157160	 0.812913
O	 1.396062	 -0.396330	 0.852153
C	 0.489979	 0.078084	 0.002623
C	 -0.763662	 -0.754014	 0.000816
O	 0.687468	 1.037222	 -0.659919
C	 -2.038001	 0.074705	 -0.000833
H	 -0.712945	 -1.405886	 -0.864342
H	 -0.715137	 -1.405770	 0.866182
H	 -2.087267	 0.710831	 -0.874232
H	 -2.903419	 -0.576199	 -0.001922
H	 -2.089467	 0.710909	 0.872389

	symmetry c1
}
set optking {
	frozen_dihedral = ("
		2 3 4 7
	")
}

ee,wfn = optimize('scf', return_wfn=True)
oeprop( wfn, 'DIPOLE', 'QUADRUPOLE', 'MULLIKEN_CHARGES')
f=open( 'psi4out.xyz', 'w' )
f.write( "11  " )
f.write( str(ee) + "\n" )
f.write( MOL.save_string_xyz() )
f.close()
--------------------------------------------------------------------------

    Molecular point group: c1
  Charge       = 0
  Multiplicity = 1
  Basis Set: CC-PVTZ
  Basis Set:
  @DF-RHF Final Energy:  -266.95141504131590
    Total Energy =                       -266.9514150413157267
    Molecular point group: c1
  Basis Set: CC-PVTZ
  Basis Set:
  Basis Set: CC-PVTZ
  Basis Set:
  @DF-RHF Final Energy:  -266.95169006411822
    Total Energy =                       -266.9516900641181678
  Basis Set: CC-PVTZ
  Basis Set:
  Basis Set: CC-PVTZ
  Basis Set:
  @DF-RHF Final Energy:  -266.95192957137971
    Total Energy =                       -266.9519295713799352
  Basis Set: CC-PVTZ
  Basis Set:
  Basis Set: CC-PVTZ
  Basis Set:
  @DF-RHF Final Energy:  -266.95181617357844
    Total Energy =                       -266.9518161735784361
  Basis Set: CC-PVTZ
  Basis Set:
  Basis Set: CC-PVTZ
  Basis Set:
  @DF-RHF Final Energy:  -266.95193818059261
    Total Energy =                       -266.9519381805926628
  Basis Set: CC-PVTZ
  Basis Set:
  Charge       = 0
  Multiplicity = 1
  Basis Set: CC-PVTZ
  Basis Set:

    Orbital Energies (a.u.)
    -----------------------

    Doubly Occupied:

       1A    -20.607046     2A    -20.539610     3A    -11.374594
       4A    -11.242270     5A    -11.222156     6A     -1.479343
       7A     -1.369761     8A     -1.066369     9A     -0.917307
      10A     -0.808867    11A     -0.706965    12A     -0.692582
      13A     -0.657190    14A     -0.606570    15A     -0.596668
      16A     -0.535658    17A     -0.526731    18A     -0.509639
      19A     -0.481122    20A     -0.447292

  @DF-RHF Final Energy:  -266.95193876169219

   => Energetics <=

    Nuclear Repulsion Energy =            180.0904419228680808
    One-Electron Energy =                -721.3092809999393467
    Two-Electron Energy =                 274.2669003153789617
    DFT Exchange-Correlation Energy =       0.0000000000000000
    Empirical Dispersion Energy =           0.0000000000000000
    PCM Polarization Energy =               0.0000000000000000
    EFP Energy =                            0.0000000000000000
    Total Energy =                       -266.9519387616923041
    Molecular point group: c1
  Basis Set: CC-PVTZ
  Basis Set:

  -Total Gradient:
     Atom            X                  Y                   Z
    ------   -----------------  -----------------  -----------------
       1       -0.000012342618    -0.000003610649    -0.000009940509
       2       -0.000374949296     0.000540354600     0.000800814719
       3        0.000348746919    -0.000623605437    -0.001172187862
       4        0.000675690759    -0.000758432751     0.000991773640
       5        0.000014661713     0.000045753884    -0.000012873809
       6        0.000012624200    -0.000000956369    -0.000007213369
       7       -0.000660900004     0.000803498131    -0.000590072139
       8        0.000007479971    -0.000009093099    -0.000000496293
       9       -0.000008973994     0.000004790419     0.000000561384
      10        0.000001052754     0.000001848357     0.000001469467
      11       -0.000003090403    -0.000000547088    -0.000001835231

  **** Optimization is complete! (in 6 steps) ****
    Final optimized geometry and variables:
    Molecular point group: c1

    Geometry (in Angstrom), charge = 0, multiplicity = 1:

    H            2.215110902452     0.308458398759     0.596571111070
    O            1.502244839802    -0.304077229511     0.702204397775
    C            0.490395372054     0.096164269133    -0.059285112331
    C           -0.689869424928    -0.839147081640    -0.001244870956
    O            0.545113578717     1.080859433639    -0.712559811813
    C           -2.020207444927    -0.093537992048     0.020942069385
    H           -0.630826729720    -1.451765863367    -0.895465084619
    H           -0.584390161810    -1.495696021016     0.850098728101
    H           -2.108072691985     0.559364643811    -0.835579148003
    H           -2.841348910562    -0.798942790815     0.004880279588
    H           -2.114168915001     0.510794266347     0.915208558170

  Mulliken Charges: (a.u.)
   Center  Symbol    Alpha    Beta     Spin     Total
       1     H     0.38038  0.38038  0.00000  0.23925
       2     O     4.15857  4.15857  0.00000 -0.31713
       3     C     2.80456  2.80456  0.00000  0.39088
       4     C     3.09337  3.09337  0.00000 -0.18674
       5     O     4.19600  4.19600  0.00000 -0.39201
       6     C     3.14265  3.14265  0.00000 -0.28531
       7     H     0.44444  0.44444  0.00000  0.11112
       8     H     0.43698  0.43698  0.00000  0.12605
       9     H     0.44157  0.44157  0.00000  0.11686
      10     H     0.44906  0.44906  0.00000  0.10188
      11     H     0.45242  0.45242  0.00000  0.09516

   Total alpha = 20.00000, Total beta = 20.00000, Total charge = -0.00000

*** Psi4 exiting successfully. Buy a developer a beer!
