                              Psi4 1.0.54 Driver

  ==> Input File <==

--------------------------------------------------------------------------
set {
	reference rhf
	basis cc-pvtz
}

set_num_threads( 4 )
memory 2 gb

molecule MOL {
0 1

H	 -3.401682	 -1.036167	 0.000000
O	 -3.113760	 -0.140926	 0.000000
C	 -1.775087	 -0.058754	 0.000000
C	 -0.975985	 -1.031088	 0.588589
C	 -1.201393	 1.042124	 -0.614105
H	 -1.428439	 -1.882292	 1.063104
C	 0.391883	 -0.897613	 0.560058
H	 -1.835698	 1.780415	 -1.061993
C	 0.169930	 1.160875	 -0.634029
H	 1.019394	 -1.640844	 1.010554
C	 0.981965	 0.199797	 -0.051469
H	 0.616082	 2.014539	 -1.110185
C	 2.448801	 0.348497	 -0.085273
O	 3.221117	 -0.419052	 0.384358
H	 2.806268	 1.251006	 -0.592713

	symmetry c1
}
set optking {
	frozen_dihedral = ("
		5 3 2 1
	")
}

ee,wfn = optimize('scf', return_wfn=True)
oeprop( wfn, 'DIPOLE', 'QUADRUPOLE', 'MULLIKEN_CHARGES')
f=open( 'psi4out.xyz', 'w' )
f.write( "15  " )
f.write( str(ee) + "\n" )
f.write( MOL.save_string_xyz() )
f.close()
--------------------------------------------------------------------------

    Molecular point group: c1
  Charge       = 0
  Multiplicity = 1
  Basis Set: CC-PVTZ
  Basis Set:
  @DF-RHF Final Energy:  -418.44101680076074
    Total Energy =                       -418.4410168007607354
    Molecular point group: c1
  Basis Set: CC-PVTZ
  Basis Set:
  Basis Set: CC-PVTZ
  Basis Set:
  @DF-RHF Final Energy:  -418.44107047614449
    Total Energy =                       -418.4410704761444322
  Basis Set: CC-PVTZ
  Basis Set:
  Basis Set: CC-PVTZ
  Basis Set:
  @DF-RHF Final Energy:  -418.44107896994478
    Total Energy =                       -418.4410789699447832
  Basis Set: CC-PVTZ
  Basis Set:
  Basis Set: CC-PVTZ
  Basis Set:
  @DF-RHF Final Energy:  -418.44101974081730
    Total Energy =                       -418.4410197408168415
  Basis Set: CC-PVTZ
  Basis Set:
  Charge       = 0
  Multiplicity = 1
  Basis Set: CC-PVTZ
  Basis Set:

    Orbital Energies (a.u.)
    -----------------------

    Doubly Occupied:

       1A    -20.600286     2A    -20.546895     3A    -11.323678
       4A    -11.320051     5A    -11.258221     6A    -11.254093
       7A    -11.242175     8A    -11.238517     9A    -11.237448
      10A     -1.432467    11A     -1.403129    12A     -1.175428
      13A     -1.044960    14A     -1.042144    15A     -0.891282
      16A     -0.869026    17A     -0.797861    18A     -0.761105
      19A     -0.716943    20A     -0.670491    21A     -0.649532
      22A     -0.632135    23A     -0.620843    24A     -0.610369
      25A     -0.574961    26A     -0.560568    27A     -0.555092
      28A     -0.507998    29A     -0.490156    30A     -0.422562
      31A     -0.361933    32A     -0.334919

  @DF-RHF Final Energy:  -418.44108064266010

   => Energetics <=

    Nuclear Repulsion Energy =            402.1576578682541481
    One-Electron Energy =               -1366.9029437812773722
    Two-Electron Energy =                 546.3042052703628997
    DFT Exchange-Correlation Energy =       0.0000000000000000
    Empirical Dispersion Energy =           0.0000000000000000
    PCM Polarization Energy =               0.0000000000000000
    EFP Energy =                            0.0000000000000000
    Total Energy =                       -418.4410806426603813
    Molecular point group: c1
  Basis Set: CC-PVTZ
  Basis Set:

  -Total Gradient:
     Atom            X                  Y                   Z
    ------   -----------------  -----------------  -----------------
       1       -0.000001088541    -0.000016351032    -0.003232378188
       2       -0.000030796845    -0.000492942366     0.003068622763
       3        0.000064227641     0.001614328321     0.002178742614
       4       -0.000109788861     0.000073459585     0.000017728095
       5        0.000110173342    -0.001145537786    -0.002009448957
       6        0.000006776895    -0.000006332242    -0.000002397558
       7        0.000133658996     0.000059904288    -0.000060131891
       8       -0.000017820363     0.000007222703    -0.000014552484
       9       -0.000119204399     0.000068244365    -0.000020399557
      10       -0.000011683454    -0.000008960114    -0.000000967155
      11       -0.000053303617    -0.000157852145     0.000065212882
      12       -0.000008440331    -0.000008626397     0.000005025272
      13       -0.000004666783    -0.000007377076     0.000022770948
      14        0.000012417562     0.000032703046    -0.000023404426
      15        0.000029538761    -0.000011883154     0.000005577642

  **** Optimization is complete! (in 5 steps) ****
    Final optimized geometry and variables:
    Molecular point group: c1

    Geometry (in Angstrom), charge = 0, multiplicity = 1:

    H           -3.404116556233    -1.033858194183     0.010613002056
    O           -3.117849663615    -0.137831088101     0.003477596841
    C           -1.773697371970    -0.056558240861    -0.013757618411
    C           -0.976018613152    -1.032273185841     0.571694947322
    C           -1.200130078688     1.036716279156    -0.636528802777
    H           -1.433059763911    -1.874341724458     1.057051870838
    C            0.391856196896    -0.906239557825     0.534480242555
    H           -1.833496458391     1.772680438590    -1.089745203335
    C            0.173107422177     1.155950100361    -0.655921163350
    H            1.019249340666    -1.651322417417     0.982124735303
    C            0.982143967975     0.191837219690    -0.077687719559
    H            0.620383575757     2.006453699846    -1.136623389101
    C            2.450547988116     0.336523661073    -0.118079350012
    O            3.222063864225    -0.435805484472     0.343849797147
    H            2.807825210900     1.240579874908    -0.623042393893

  Mulliken Charges: (a.u.)
   Center  Symbol    Alpha    Beta     Spin     Total
       1     H     0.38382  0.38382  0.00000  0.23236
       2     O     4.17242  4.17242  0.00000 -0.34484
       3     C     2.85212  2.85212  0.00000  0.29576
       4     C     3.12739  3.12739  0.00000 -0.25478
       5     C     3.10809  3.10809  0.00000 -0.21617
       6     H     0.42599  0.42599  0.00000  0.14801
       7     C     3.06763  3.06763  0.00000 -0.13526
       8     H     0.41538  0.41538  0.00000  0.16924
       9     C     3.06815  3.06815  0.00000 -0.13631
      10     H     0.40711  0.40711  0.00000  0.18578
      11     C     3.00177  3.00177  0.00000 -0.00353
      12     H     0.42121  0.42121  0.00000  0.15757
      13     C     2.91064  2.91064  0.00000  0.17871
      14     O     4.17808  4.17808  0.00000 -0.35615
      15     H     0.46020  0.46020  0.00000  0.07960

   Total alpha = 32.00000, Total beta = 32.00000, Total charge = -0.00000

*** Psi4 exiting successfully. Buy a developer a beer!
