                              Psi4 1.0.54 Driver

  ==> Input File <==

--------------------------------------------------------------------------
set {
	reference rhf
	basis cc-pvtz
}

set_num_threads( 4 )
memory 2 gb

molecule MOL {
0 1

H	 -3.401682	 -1.036167	 0.000000
O	 -3.113760	 -0.140926	 0.000000
C	 -1.775087	 -0.058754	 0.000000
C	 -0.975985	 -1.031088	 -0.588589
C	 -1.201393	 1.042124	 0.614105
H	 -1.428439	 -1.882292	 -1.063104
C	 0.391883	 -0.897613	 -0.560058
H	 -1.835698	 1.780415	 1.061993
C	 0.169930	 1.160875	 0.634029
H	 1.019394	 -1.640844	 -1.010554
C	 0.981965	 0.199797	 0.051469
H	 0.616082	 2.014539	 1.110185
C	 2.448801	 0.348497	 0.085273
O	 3.221117	 -0.419052	 -0.384358
H	 2.806268	 1.251006	 0.592713

	symmetry c1
}
set optking {
	frozen_dihedral = ("
		5 3 2 1
	")
}

ee,wfn = optimize('scf', return_wfn=True)
oeprop( wfn, 'DIPOLE', 'QUADRUPOLE', 'MULLIKEN_CHARGES')
f=open( 'psi4out.xyz', 'w' )
f.write( "15  " )
f.write( str(ee) + "\n" )
f.write( MOL.save_string_xyz() )
f.close()
--------------------------------------------------------------------------

    Molecular point group: c1
  Charge       = 0
  Multiplicity = 1
  Basis Set: CC-PVTZ
  Basis Set:
  @DF-RHF Final Energy:  -418.44101680075846
    Total Energy =                       -418.4410168007586890
    Molecular point group: c1
  Basis Set: CC-PVTZ
  Basis Set:
  Basis Set: CC-PVTZ
  Basis Set:
  @DF-RHF Final Energy:  -418.44107047620219
    Total Energy =                       -418.4410704762021851
  Basis Set: CC-PVTZ
  Basis Set:
  Basis Set: CC-PVTZ
  Basis Set:
  @DF-RHF Final Energy:  -418.44107896733692
    Total Energy =                       -418.4410789673368072
  Basis Set: CC-PVTZ
  Basis Set:
  Basis Set: CC-PVTZ
  Basis Set:
  @DF-RHF Final Energy:  -418.44101963020330
    Total Energy =                       -418.4410196302033000
  Basis Set: CC-PVTZ
  Basis Set:
  Charge       = 0
  Multiplicity = 1
  Basis Set: CC-PVTZ
  Basis Set:

    Orbital Energies (a.u.)
    -----------------------

    Doubly Occupied:

       1A    -20.600286     2A    -20.546895     3A    -11.323678
       4A    -11.320051     5A    -11.258221     6A    -11.254093
       7A    -11.242175     8A    -11.238517     9A    -11.237448
      10A     -1.432467    11A     -1.403129    12A     -1.175428
      13A     -1.044960    14A     -1.042144    15A     -0.891282
      16A     -0.869026    17A     -0.797861    18A     -0.761105
      19A     -0.716943    20A     -0.670491    21A     -0.649532
      22A     -0.632135    23A     -0.620843    24A     -0.610369
      25A     -0.574961    26A     -0.560568    27A     -0.555092
      28A     -0.507998    29A     -0.490156    30A     -0.422562
      31A     -0.361933    32A     -0.334919

  @DF-RHF Final Energy:  -418.44108064308040

   => Energetics <=

    Nuclear Repulsion Energy =            402.1576548091745167
    One-Electron Energy =               -1366.9029376979960944
    Two-Electron Energy =                 546.3042022457409530
    DFT Exchange-Correlation Energy =       0.0000000000000000
    Empirical Dispersion Energy =           0.0000000000000000
    PCM Polarization Energy =               0.0000000000000000
    EFP Energy =                            0.0000000000000000
    Total Energy =                       -418.4410806430805678
    Molecular point group: c1
  Basis Set: CC-PVTZ
  Basis Set:

  -Total Gradient:
     Atom            X                  Y                   Z
    ------   -----------------  -----------------  -----------------
       1       -0.000001102884    -0.000016359073     0.003232377504
       2       -0.000030795305    -0.000492963696    -0.003068646305
       3        0.000064169303     0.001614298433    -0.002178773578
       4       -0.000109839744     0.000073429339    -0.000017647249
       5        0.000110287173    -0.001145490179     0.002009429199
       6        0.000006775811    -0.000006317607     0.000002385924
       7        0.000133703420     0.000059973771     0.000060088398
       8       -0.000017828352     0.000007214301     0.000014560450
       9       -0.000119245065     0.000068256113     0.000020468184
      10       -0.000011682786    -0.000008981200     0.000000976415
      11       -0.000053292703    -0.000157900118    -0.000065239838
      12       -0.000008434844    -0.000008618273    -0.000005030462
      13       -0.000004732495    -0.000007349337    -0.000022789394
      14        0.000012444237     0.000032700110     0.000023416462
      15        0.000029574234    -0.000011892588    -0.000005575710

  **** Optimization is complete! (in 5 steps) ****
    Final optimized geometry and variables:
    Molecular point group: c1

    Geometry (in Angstrom), charge = 0, multiplicity = 1:

    H           -3.404116191622    -1.033860043034    -0.010609702761
    O           -3.117849648629    -0.137832811186    -0.003474993212
    C           -1.773697395776    -0.056559293308     0.013759287379
    C           -0.976018599945    -1.032274136329    -0.571693229176
    C           -1.200130002310     1.036715879603     0.636529478810
    H           -1.433059680727    -1.874343072160    -1.057049507727
    C            0.391856237677    -0.906239498626    -0.534480185448
    H           -1.833496437957     1.772679808261     1.089746189907
    C            0.173107377056     1.155950424157     0.655920734447
    H            1.019249320072    -1.651322332105    -0.982124829403
    C            0.982143957427     0.191837805225     0.077686728613
    H            0.620383506417     2.006454497923     1.136622150073
    C            2.450547914590     0.336525188763     0.118076790307
    O            3.222063836913    -0.435803767623    -0.343852628073
    H            2.807825297748     1.240581801316     0.623039010124

  Mulliken Charges: (a.u.)
   Center  Symbol    Alpha    Beta     Spin     Total
       1     H     0.38382  0.38382  0.00000  0.23236
       2     O     4.17242  4.17242  0.00000 -0.34484
       3     C     2.85212  2.85212  0.00000  0.29576
       4     C     3.12739  3.12739  0.00000 -0.25478
       5     C     3.10809  3.10809  0.00000 -0.21617
       6     H     0.42599  0.42599  0.00000  0.14801
       7     C     3.06763  3.06763  0.00000 -0.13526
       8     H     0.41538  0.41538  0.00000  0.16924
       9     C     3.06815  3.06815  0.00000 -0.13631
      10     H     0.40711  0.40711  0.00000  0.18578
      11     C     3.00177  3.00177  0.00000 -0.00353
      12     H     0.42121  0.42121  0.00000  0.15757
      13     C     2.91064  2.91064  0.00000  0.17871
      14     O     4.17808  4.17808  0.00000 -0.35615
      15     H     0.46020  0.46020  0.00000  0.07960

   Total alpha = 32.00000, Total beta = 32.00000, Total charge = -0.00000

*** Psi4 exiting successfully. Buy a developer a beer!
