                              Psi4 1.0.54 Driver

  ==> Input File <==

--------------------------------------------------------------------------
set {
	reference rhf
	basis cc-pvtz
}

set_num_threads( 4 )
memory 2 gb

molecule MOL {
0 1

H	 1.838548	 0.067641	 1.061161
C	 1.046105	 -0.484969	 0.603789
C	 1.039524	 -1.865069	 0.599964
C	 0.000000	 0.179985	 0.000046
H	 1.843877	 -2.400822	 1.064182
C	 -0.000002	 -2.552036	 -0.000007
N	 0.000000	 1.644631	 0.000076
C	 -1.046105	 -0.484944	 -0.603725
H	 -0.000000	 -3.625035	 -0.000032
C	 -1.039525	 -1.865044	 -0.599954
O	 1.050559	 2.194174	 -0.000073
O	 -1.050559	 2.194174	 -0.000074
H	 -1.838552	 0.067684	 -1.061068
H	 -1.843877	 -2.400779	 -1.064197

	symmetry c1
}
set optking {
	frozen_dihedral = ("
		2 4 7 11
	")
}

ee,wfn = optimize('scf', return_wfn=True)
oeprop( wfn, 'DIPOLE', 'QUADRUPOLE', 'MULLIKEN_CHARGES')
f=open( 'psi4out.xyz', 'w' )
f.write( "14  " )
f.write( str(ee) + "\n" )
f.write( MOL.save_string_xyz() )
f.close()
--------------------------------------------------------------------------

    Molecular point group: c1
  Charge       = 0
  Multiplicity = 1
  Basis Set: CC-PVTZ
  Basis Set:
  @DF-RHF Final Energy:  -434.32830400402338
    Total Energy =                       -434.3283040040234937
    Molecular point group: c1
  Basis Set: CC-PVTZ
  Basis Set:
  Basis Set: CC-PVTZ
  Basis Set:
  @DF-RHF Final Energy:  -434.32039902621261
    Total Energy =                       -434.3203990262126126
  Basis Set: CC-PVTZ
  Basis Set:
  Basis Set: CC-PVTZ
  Basis Set:
  @DF-RHF Final Energy:  -434.32707791417045
    Total Energy =                       -434.3270779141705589
  Basis Set: CC-PVTZ
  Basis Set:
  Basis Set: CC-PVTZ
  Basis Set:
  @DF-RHF Final Energy:  -434.32842646324434
    Total Energy =                       -434.3284264632444547
  Basis Set: CC-PVTZ
  Basis Set:
  Basis Set: CC-PVTZ
  Basis Set:
  @DF-RHF Final Energy:  -434.32838878700210
    Total Energy =                       -434.3283887870019271
  Basis Set: CC-PVTZ
  Basis Set:
  Basis Set: CC-PVTZ
  Basis Set:
  @DF-RHF Final Energy:  -434.32849792520136
    Total Energy =                       -434.3284979252014182
  Basis Set: CC-PVTZ
  Basis Set:
  Charge       = 0
  Multiplicity = 1
  Basis Set: CC-PVTZ
  Basis Set:

    Orbital Energies (a.u.)
    -----------------------

    Doubly Occupied:

       1A    -20.593111     2A    -20.593034     3A    -15.847515
       4A    -11.303365     5A    -11.267702     6A    -11.267561
       7A    -11.263768     8A    -11.258888     9A    -11.258710
      10A     -1.641595    11A     -1.424412    12A     -1.205303
      13A     -1.096320    14A     -1.055734    15A     -0.959533
      16A     -0.869330    17A     -0.829372    18A     -0.788211
      19A     -0.740448    20A     -0.735547    21A     -0.713513
      22A     -0.657945    23A     -0.651722    24A     -0.626411
      25A     -0.557207    26A     -0.543824    27A     -0.532150
      28A     -0.494547    29A     -0.490783    30A     -0.456994
      31A     -0.376170    32A     -0.369832

  @DF-RHF Final Energy:  -434.32849840004030

   => Energetics <=

    Nuclear Repulsion Energy =            418.1732290410756150
    One-Electron Energy =               -1420.0623493202433565
    Two-Electron Energy =                 567.5606218791274387
    DFT Exchange-Correlation Energy =       0.0000000000000000
    Empirical Dispersion Energy =           0.0000000000000000
    PCM Polarization Energy =               0.0000000000000000
    EFP Energy =                            0.0000000000000000
    Total Energy =                       -434.3284984000403028
    Molecular point group: c1
  Basis Set: CC-PVTZ
  Basis Set:

  -Total Gradient:
     Atom            X                  Y                   Z
    ------   -----------------  -----------------  -----------------
       1        0.000003468646     0.000006841699     0.000003247006
       2       -0.001547206305     0.000005832275     0.002481941228
       3        0.000010722113    -0.000004622157    -0.000002549600
       4        0.002360620077     0.000036092278    -0.004836372601
       5        0.000000419178     0.000003044099     0.000000861269
       6        0.000011186446     0.000001377185    -0.000001199957
       7       -0.000838471496     0.000133697339     0.005747800934
       8        0.000008669848     0.000021940991    -0.000066277835
       9        0.000002207509    -0.000000361019    -0.000001667781
      10       -0.000018774345     0.000010802468     0.000034180433
      11        0.000273331679    -0.000203566151    -0.003356672684
      12       -0.000268500562    -0.000009981995    -0.000008474945
      13        0.000005080145    -0.000007474898     0.000002378905
      14       -0.000002752941     0.000006377883     0.000002805628

  **** Optimization is complete! (in 7 steps) ****
    Final optimized geometry and variables:
    Molecular point group: c1

    Geometry (in Angstrom), charge = 0, multiplicity = 1:

    H            1.828463975696     0.073519951903     1.078871087391
    C            1.036892323644    -0.481157571442     0.620338243293
    C            1.014283970317    -1.861144137333     0.644517134724
    C            0.010428950848     0.179842188784    -0.017060203463
    H            1.799123074741    -2.396659246477     1.141287653497
    C           -0.016371045138    -2.548071063927     0.029558983382
    N            0.009072519492     1.641899777002    -0.011585535961
    C           -1.039000393506    -0.481571327873    -0.615671434811
    H           -0.025568660882    -3.620816749545     0.045215717295
    C           -1.037664388987    -1.861772144375    -0.601954630847
    O            1.061335863836     2.187454424886     0.026367355789
    O           -1.041820437089     2.188272195440    -0.067960870396
    H           -1.827981753212     0.072421823619    -1.079121030245
    H           -1.835578819372    -2.398283294683    -1.076332835135

  Mulliken Charges: (a.u.)
   Center  Symbol    Alpha    Beta     Spin     Total
       1     H     0.40309  0.40309  0.00000  0.19382
       2     C     3.08194  3.08194  0.00000 -0.16388
       3     C     3.07151  3.07151  0.00000 -0.14302
       4     C     2.95879  2.95879  0.00000  0.08241
       5     H     0.41701  0.41701  0.00000  0.16598
       6     C     3.06638  3.06638  0.00000 -0.13277
       7     N     3.26430  3.26430  0.00000  0.47139
       8     C     3.08123  3.08123  0.00000 -0.16246
       9     H     0.41723  0.41723  0.00000  0.16554
      10     C     3.07101  3.07101  0.00000 -0.14202
      11     O     4.17354  4.17354  0.00000 -0.34709
      12     O     4.17368  4.17368  0.00000 -0.34736
      13     H     0.40325  0.40325  0.00000  0.19350
      14     H     0.41703  0.41703  0.00000  0.16594

   Total alpha = 32.00000, Total beta = 32.00000, Total charge = -0.00000

*** Psi4 exiting successfully. Buy a developer a beer!
