  ==> Input File <==

--------------------------------------------------------------------------
set {
	reference rhf
	basis 6-31G*
}

set_num_threads( 1 )
memory 2 gb

molecule MOL {
0 1

H	 -2.172150	 0.880146	 0.502514
C	 -2.018062	 -0.000025	 -0.114509
O	 -0.774054	 0.001095	 -0.743181
H	 -2.760490	 0.003458	 -0.901350
H	 -2.173624	 -0.884374	 0.496163
C	 0.287274	 0.763492	 -0.196495
C	 1.450049	 0.499896	 -1.150687
C	 -0.052870	 2.257284	 -0.187605
C	 0.647149	 0.279784	 1.211920
H	 1.188673	 0.816664	 -2.154067
H	 1.675552	 -0.560121	 -1.180453
H	 2.340863	 1.035453	 -0.838774
H	 -0.375501	 2.574719	 -1.173594
H	 0.819524	 2.839902	 0.090036
H	 -0.839163	 2.493732	 0.521190
H	 0.816685	 -0.791804	 1.209057
H	 1.553002	 0.767609	 1.556870
H	 -0.133570	 0.499816	 1.932124

	symmetry c1
}
set optking {
	frozen_dihedral = ("
		2 3 6 7
	")
}

ee = energy('scf')
oeprop('DIPOLE', 'QUADRUPOLE', 'MULLIKEN_CHARGES')
f=open( 'psi4out.xyz', 'w' )
f.write( "18  " )
f.write( str(ee) + "\n" )
f.write( MOL.save_string_xyz() )
f.close()
--------------------------------------------------------------------------

    Molecular point group: c1

    Geometry (in Angstrom), charge = 0, multiplicity = 1:

       Center              X                  Y                   Z               Mass
    ------------   -----------------  -----------------  -----------------  -----------------
           H         -2.073623101896     0.251535033000     0.696357513066     1.007825032070
           C         -1.919535101896    -0.628635967000     0.079334513066    12.000000000000
           O         -0.675527101896    -0.627515967000    -0.549337486934    15.994914619560
           H         -2.661963101896    -0.625152967000    -0.707506486934     1.007825032070
           H         -2.075097101896    -1.512984967000     0.690006513066     1.007825032070
           C          0.385800898104     0.134881033000    -0.002651486934    12.000000000000
           C          1.548575898104    -0.128714967000    -0.956843486934    12.000000000000
           C          0.045656898104     1.628673033000     0.006238513066    12.000000000000
           C          0.745675898104    -0.348826967000     1.405763513066    12.000000000000
           H          1.287199898104     0.188053033000    -1.960223486934     1.007825032070
           H          1.774078898104    -1.188731967000    -0.986609486934     1.007825032070
           H          2.439389898104     0.406842033000    -0.644930486934     1.007825032070
           H         -0.276974101896     1.946108033000    -0.979750486934     1.007825032070
           H          0.918050898104     2.211291033000     0.283879513066     1.007825032070
           H         -0.740636101896     1.865121033000     0.715033513066     1.007825032070
           H          0.915211898104    -1.420414967000     1.402900513066     1.007825032070
           H          1.651528898104     0.138998033000     1.750713513066     1.007825032070
           H         -0.035043101896    -0.128794967000     2.125967513066     1.007825032070

  Charge       = 0
  Multiplicity = 1
  Basis Set: 6-31G*
  Basis Set:

    Orbital Energies (a.u.)
    -----------------------

    Doubly Occupied:

       1A    -20.545372     2A    -11.281778     3A    -11.260230
       4A    -11.208959     5A    -11.208690     6A    -11.203269
       7A     -1.369512     8A     -1.073074     9A     -0.946117
      10A     -0.939802    11A     -0.912159    12A     -0.752704
      13A     -0.655625    14A     -0.644029    15A     -0.638488
      16A     -0.590512    17A     -0.572920    18A     -0.552470
      19A     -0.537300    20A     -0.523570    21A     -0.515147
      22A     -0.489078    23A     -0.486219    24A     -0.438538
      25A     -0.402154

  @DF-RHF Final Energy:  -271.17345650842526

   => Energetics <=

    Nuclear Repulsion Energy =            272.3086716099402338
    One-Electron Energy =                -907.4685446360772403
    Two-Electron Energy =                 363.9864165177118025
    DFT Exchange-Correlation Energy =       0.0000000000000000
    Empirical Dispersion Energy =           0.0000000000000000
    PCM Polarization Energy =               0.0000000000000000
    EFP Energy =                            0.0000000000000000
    Total Energy =                       -271.1734565084252040

  Mulliken Charges: (a.u.)
   Center  Symbol    Alpha    Beta     Spin     Total
       1     H     0.43088  0.43088  0.00000  0.13824
       2     C     3.07688  3.07688  0.00000 -0.15377
       3     O     4.31998  4.31998  0.00000 -0.63996
       4     H     0.41658  0.41658  0.00000  0.16684
       5     H     0.42528  0.42528  0.00000  0.14944
       6     C     2.84432  2.84432  0.00000  0.31136
       7     C     3.23307  3.23307  0.00000 -0.46614
       8     C     3.24652  3.24652  0.00000 -0.49304
       9     C     3.24572  3.24572  0.00000 -0.49144
      10     H     0.41411  0.41411  0.00000  0.17179
      11     H     0.41400  0.41400  0.00000  0.17200
      12     H     0.42519  0.42519  0.00000  0.14962
      13     H     0.41317  0.41317  0.00000  0.17367
      14     H     0.41963  0.41963  0.00000  0.16075
      15     H     0.42034  0.42034  0.00000  0.15932
      16     H     0.41324  0.41324  0.00000  0.17352
      17     H     0.42007  0.42007  0.00000  0.15987
      18     H     0.42104  0.42104  0.00000  0.15792

   Total alpha = 25.00000, Total beta = 25.00000, Total charge = -0.00000
