                              Psi4 1.0.54 Driver

  ==> Input File <==

--------------------------------------------------------------------------
set {
	reference rhf
	basis cc-pvtz
}

set_num_threads( 4 )
memory 2 gb

molecule MOL {
0 1

H	 -3.268214	 -0.875720	 0.463107
C	 -2.806015	 0.000007	 0.024886
N	 -1.391133	 0.000016	 0.301321
H	 -3.029448	 0.000055	 -1.045738
H	 -3.268126	 0.875758	 0.463150
C	 -1.103624	 0.232319	 1.700231
C	 -0.667032	 0.932776	 -0.534842
H	 -1.463882	 1.213300	 2.023866
H	 -1.616513	 -0.516104	 2.292594
C	 0.387903	 0.142532	 1.963483
H	 -0.861185	 0.695719	 -1.574168
H	 -0.997525	 1.961507	 -0.363568
C	 0.824494	 0.842989	 -0.271591
H	 0.582055	 0.379589	 3.002809
H	 0.718396	 -0.886199	 1.792208
N	 1.112003	 1.075292	 1.127319
H	 1.337383	 1.591411	 -0.863954
H	 1.184752	 -0.137992	 -0.595225
C	 2.526885	 1.075301	 1.403754
H	 2.699881	 1.313633	 2.445787
H	 3.020778	 1.828590	 0.802766
H	 3.000423	 0.111949	 1.194295

	symmetry c1
}
set optking {
	frozen_dihedral = ("
		6 3 2 4
	")
}

ee,wfn = optimize('scf', return_wfn=True)
oeprop( wfn, 'DIPOLE', 'QUADRUPOLE', 'MULLIKEN_CHARGES')
f=open( 'psi4out.xyz', 'w' )
f.write( "22  " )
f.write( str(ee) + "\n" )
f.write( MOL.save_string_xyz() )
f.close()
--------------------------------------------------------------------------

    Molecular point group: c1
  Charge       = 0
  Multiplicity = 1
  Basis Set: CC-PVTZ
  Basis Set:
  @DF-RHF Final Energy:  -344.34928899638743
    Total Energy =                       -344.3492889963869175
    Molecular point group: c1
  Basis Set: CC-PVTZ
  Basis Set:
  Basis Set: CC-PVTZ
  Basis Set:
  @DF-RHF Final Energy:  -344.34994388389106
    Total Energy =                       -344.3499438838910010
  Basis Set: CC-PVTZ
  Basis Set:
  Basis Set: CC-PVTZ
  Basis Set:
  @DF-RHF Final Energy:  -344.35003632018618
    Total Energy =                       -344.3500363201861774
  Basis Set: CC-PVTZ
  Basis Set:
  Charge       = 0
  Multiplicity = 1
  Basis Set: CC-PVTZ
  Basis Set:

    Orbital Energies (a.u.)
    -----------------------

    Doubly Occupied:

       1A    -15.538065     2A    -15.537597     3A    -11.237654
       4A    -11.237535     5A    -11.236992     6A    -11.236886
       7A    -11.234329     8A    -11.234307     9A     -1.257570
      10A     -1.206609    11A     -1.025771    12A     -0.993010
      13A     -0.912182    14A     -0.867949    15A     -0.836482
      16A     -0.756073    17A     -0.667047    18A     -0.637930
      19A     -0.632327    20A     -0.627345    21A     -0.623201
      22A     -0.582572    23A     -0.550930    24A     -0.546165
      25A     -0.542278    26A     -0.517809    27A     -0.497281
      28A     -0.490757    29A     -0.465939    30A     -0.457197
      31A     -0.353185    32A     -0.348440

  @DF-RHF Final Energy:  -344.35003760940907

   => Energetics <=

    Nuclear Repulsion Energy =            422.0499673124787137
    One-Electron Energy =               -1303.0211788036133385
    Two-Electron Energy =                 536.6211738817250989
    DFT Exchange-Correlation Energy =       0.0000000000000000
    Empirical Dispersion Energy =           0.0000000000000000
    PCM Polarization Energy =               0.0000000000000000
    EFP Energy =                            0.0000000000000000
    Total Energy =                       -344.3500376094095827
    Molecular point group: c1
  Basis Set: CC-PVTZ
  Basis Set:

  -Total Gradient:
     Atom            X                  Y                   Z
    ------   -----------------  -----------------  -----------------
       1        0.000008892095    -0.000009473430     0.000006071483
       2        0.000084854294    -0.002887565334    -0.000098669490
       3       -0.000099115350    -0.002236625289     0.000563829386
       4        0.000013409208     0.002928042513     0.000025394375
       5        0.000012142855     0.000017861778     0.000013987407
       6       -0.000036823350     0.002237118027    -0.000397949136
       7       -0.000015825006    -0.000091745716     0.000045131923
       8       -0.000020145990     0.000017572543     0.000003420846
       9       -0.000018730648    -0.000006886052    -0.000007277593
      10        0.000003194808    -0.000057976623    -0.000122958338
      11        0.000010252353     0.000011659170     0.000000127652
      12        0.000028295400     0.000004866049    -0.000003631712
      13        0.000020136433     0.000058677670    -0.000031578354
      14       -0.000051105489     0.000000895420    -0.000032255668
      15        0.000033219267    -0.000028976127     0.000013839318
      16        0.000002003846     0.000020891432     0.000013117666
      17        0.000031716212     0.000005908354     0.000009279604
      18       -0.000021141162     0.000008513782     0.000011417942
      19        0.000014594662     0.000009217753    -0.000018428695
      20       -0.000003035993    -0.000000041404     0.000001600073
      21        0.000004473427    -0.000001550036     0.000003710727
      22       -0.000001261878    -0.000000384478     0.000001820583

  **** Optimization is complete! (in 4 steps) ****
    Final optimized geometry and variables:
    Molecular point group: c1

    Geometry (in Angstrom), charge = 0, multiplicity = 1:

    H           -3.119903572209    -1.442841404342    -0.299830762949
    C           -2.654398468511    -0.560249783463    -0.720780409467
    N           -1.238982183043    -0.554311284294    -0.438096554249
    H           -2.817819182471    -0.556990160023    -1.790640254440
    H           -3.165254944199     0.318042203730    -0.315922390573
    C           -0.971348401047    -0.325014222735     0.965730010791
    C           -0.517905189386     0.404269791746    -1.249813567096
    H           -1.345525903482     0.651889685204     1.284919863411
    H           -1.487304984921    -1.078837594360     1.549470614677
    C            0.516658185588    -0.402482884500     1.250629805084
    H           -0.693889305870     0.181931012724    -2.295355830321
    H           -0.863666959051     1.425820962437    -1.065866139414
    C            0.971703707820     0.329988730695    -0.969919119504
    H            0.692430337993    -0.173567880610     2.295129998163
    H            0.860922611805    -1.425945597092     1.074620617189
    N            1.241779881674     0.546916174488     0.434686771729
    H            1.481966327797     1.092211905434    -1.546997505785
    H            1.346956206156    -0.642341592653    -1.302735071999
    C            2.653180497363     0.557276485009     0.727041387720
    H            2.812076809382     0.783737231051     1.774031904236
    H            3.146408379999     1.323121216524     0.141446085806
    H            3.138851431878    -0.398584199316     0.510717383115

  Mulliken Charges: (a.u.)
   Center  Symbol    Alpha    Beta     Spin     Total
       1     H     0.45020  0.45020  0.00000  0.09960
       2     C     3.09809  3.09809  0.00000 -0.19618
       3     N     3.61359  3.61359  0.00000 -0.22719
       4     H     0.45311  0.45311  0.00000  0.09378
       5     H     0.47005  0.47005  0.00000  0.05990
       6     C     3.03645  3.03645  0.00000 -0.07291
       7     C     3.03479  3.03479  0.00000 -0.06959
       8     H     0.46698  0.46698  0.00000  0.06603
       9     H     0.45395  0.45395  0.00000  0.09211
      10     C     3.03547  3.03547  0.00000 -0.07094
      11     H     0.45367  0.45367  0.00000  0.09265
      12     H     0.46870  0.46870  0.00000  0.06260
      13     C     3.03596  3.03596  0.00000 -0.07192
      14     H     0.45378  0.45378  0.00000  0.09244
      15     H     0.46793  0.46793  0.00000  0.06413
      16     N     3.61298  3.61298  0.00000 -0.22595
      17     H     0.45383  0.45383  0.00000  0.09235
      18     H     0.46808  0.46808  0.00000  0.06384
      19     C     3.09847  3.09847  0.00000 -0.19694
      20     H     0.45195  0.45195  0.00000  0.09609
      21     H     0.45196  0.45196  0.00000  0.09608
      22     H     0.47000  0.47000  0.00000  0.06000

   Total alpha = 32.00000, Total beta = 32.00000, Total charge = -0.00000

*** Psi4 exiting successfully. Buy a developer a beer!
