  ==> Input File <==

--------------------------------------------------------------------------
set {
	reference rhf
	basis 6-31G*
}

set_num_threads( 1 )
memory 2 gb

molecule MOL {
0 1

H	 -2.646374	 -0.642757	 1.268656
C	 -2.083525	 -0.384536	 0.393091
O	 -0.807605	 -0.127164	 0.768327
F	 -2.118945	 -1.383102	 -0.486752
F	 -2.621877	 0.670592	 -0.209486
C	 0.084052	 0.273579	 -0.209957
C	 -0.692676	 0.342248	 -1.518444
Cl	 1.430706	 -0.869228	 -0.343107
H	 0.499624	 1.246104	 -0.011792
F	 0.093234	 0.732263	 -2.499449
F	 -1.659821	 1.228826	 -1.391766
F	 -1.226310	 -0.811441	 -1.838147

	symmetry c1
}
set optking {
	frozen_dihedral = ("
		10 7 6 9,
		6 3 2 4
	")
}

ee = energy('scf')
oeprop('DIPOLE', 'QUADRUPOLE', 'MULLIKEN_CHARGES')
f=open( 'psi4out.xyz', 'w' )
f.write( "12  " )
f.write( str(ee) + "\n" )
f.write( MOL.save_string_xyz() )
f.close()
--------------------------------------------------------------------------

    Molecular point group: c1

    Geometry (in Angstrom), charge = 0, multiplicity = 1:

       Center              X                  Y                   Z               Mass
    ------------   -----------------  -----------------  -----------------  -----------------
           H         -1.882747872072    -0.530014501827     2.010846738748     1.007825032070
           C         -1.319898872072    -0.271793501827     1.135281738748    12.000000000000
           O         -0.043978872072    -0.014421501827     1.510517738748    15.994914619560
           F         -1.355318872072    -1.270359501827     0.255438738748    18.998403224000
           F         -1.858250872072     0.783334498173     0.532704738748    18.998403224000
           C          0.847678127928     0.386321498173     0.532233738748    12.000000000000
           C          0.070950127928     0.454990498173    -0.776253261252    12.000000000000
          CL          2.194332127928    -0.756485501827     0.399083738748    34.968852682000
           H          1.263250127928     1.358846498173     0.730398738748     1.007825032070
           F          0.856860127928     0.845005498173    -1.757258261252    18.998403224000
           F         -0.896194872072     1.341568498173    -0.649575261252    18.998403224000
           F         -0.462683872072    -0.698698501827    -1.095956261252    18.998403224000

  Charge       = 0
  Multiplicity = 1
  Basis Set: 6-31G*
  Basis Set:

    Orbital Energies (a.u.)
    -----------------------

    Doubly Occupied:

       1A   -104.845322     2A    -26.350484     3A    -26.331184
       4A    -26.322916     5A    -26.309419     6A    -26.308909
       7A    -20.645478     8A    -11.518696     9A    -11.477990
      10A    -11.401158    11A    -10.580036    12A     -8.049390
      13A     -8.045840    14A     -8.045756    15A     -1.780314
      16A     -1.704420    17A     -1.688419    18A     -1.639148
      19A     -1.596536    20A     -1.486553    21A     -1.177917
      22A     -1.040478    23A     -1.017615    24A     -0.899439
      25A     -0.894639    26A     -0.872697    27A     -0.859185
      28A     -0.797751    29A     -0.784144    30A     -0.777710
      31A     -0.750581    32A     -0.733306    33A     -0.691948
      34A     -0.686942    35A     -0.683228    36A     -0.672244
      37A     -0.663957    38A     -0.641103    39A     -0.619760
      40A     -0.555230    41A     -0.551968    42A     -0.522834
      43A     -0.511827    44A     -0.478186    45A     -0.468479

  @DF-RHF Final Energy: -1146.07169575051012

   => Energetics <=

    Nuclear Repulsion Energy =            803.0813572447542583
    One-Electron Energy =               -3189.3440920201082918
    Two-Electron Energy =                1240.1910390248444855
    DFT Exchange-Correlation Energy =       0.0000000000000000
    Empirical Dispersion Energy =           0.0000000000000000
    PCM Polarization Energy =               0.0000000000000000
    EFP Energy =                            0.0000000000000000
    Total Energy =                      -1146.0716957505096616

  Mulliken Charges: (a.u.)
   Center  Symbol    Alpha    Beta     Spin     Total
       1     H     0.39235  0.39235  0.00000  0.21530
       2     C     2.56013  2.56013  0.00000  0.87974
       3     O     4.31913  4.31913  0.00000 -0.63826
       4     F     4.68732  4.68732  0.00000 -0.37465
       5     F     4.68463  4.68463  0.00000 -0.36927
       6     C     2.99640  2.99640  0.00000  0.00720
       7     C     2.48389  2.48389  0.00000  1.03222
       8    CL     8.49928  8.49928  0.00000  0.00143
       9     H     0.36901  0.36901  0.00000  0.26198
      10     F     4.67574  4.67574  0.00000 -0.35148
      11     F     4.66945  4.66945  0.00000 -0.33891
      12     F     4.66266  4.66266  0.00000 -0.32531

   Total alpha = 45.00000, Total beta = 45.00000, Total charge =  0.00000
