                              Psi4 1.0.54 Driver

  ==> Input File <==

--------------------------------------------------------------------------
set {
	reference rhf
	basis cc-pvtz
}

set_num_threads( 4 )
memory 2 gb

molecule MOL {
0 1

H	 -2.228978	 1.172681	 2.213577
O	 -1.313473	 1.047255	 2.388421
C	 -0.564950	 1.429321	 1.276052
C	 -0.793473	 0.591216	 0.050087
H	 0.476250	 1.357958	 1.567792
H	 -0.745909	 2.473269	 1.026801
C	 -1.534243	 -0.493009	 -0.013340
H	 -0.286908	 0.941685	 -0.834114
H	 -1.101195	 -1.466332	 -0.144046
H	 -2.604242	 -0.437780	 0.050785

	symmetry c1
}
set optking {
	frozen_dihedral = ("
		3 4 7 9
	")
}

ee,wfn = optimize('scf', return_wfn=True)
oeprop( wfn, 'DIPOLE', 'QUADRUPOLE', 'MULLIKEN_CHARGES')
f=open( 'psi4out.xyz', 'w' )
f.write( "10  " )
f.write( str(ee) + "\n" )
f.write( MOL.save_string_xyz() )
f.close()
--------------------------------------------------------------------------

    Molecular point group: c1
  Charge       = 0
  Multiplicity = 1
  Basis Set: CC-PVTZ
  Basis Set:
  @DF-RHF Final Energy:  -191.88750881658794
    Total Energy =                       -191.8875088165879674
    Molecular point group: c1
  Basis Set: CC-PVTZ
  Basis Set:
  Basis Set: CC-PVTZ
  Basis Set:
  @DF-RHF Final Energy:  -191.91806191670463
    Total Energy =                       -191.9180619167046871
  Basis Set: CC-PVTZ
  Basis Set:
  Basis Set: CC-PVTZ
  Basis Set:
  @DF-RHF Final Energy:  -191.93871763060397
    Total Energy =                       -191.9387176306039464
  Basis Set: CC-PVTZ
  Basis Set:
  Basis Set: CC-PVTZ
  Basis Set:
  @DF-RHF Final Energy:  -191.95084019432267
    Total Energy =                       -191.9508401943225806
  Basis Set: CC-PVTZ
  Basis Set:
  @DF-RHF Final Energy:  -191.92617843339286
    Total Energy =                       -191.9261784333928063
  @DF-RHF Final Energy:  -191.95314234663363
    Total Energy =                       -191.9531423466337401
  @DF-RHF Final Energy:  -191.95357499255294
    Total Energy =                       -191.9535749925530013
  Basis Set: CC-PVTZ
  Basis Set:
  @DF-RHF Final Energy:  -191.95362310939097
    Total Energy =                       -191.9536231093910885
  Basis Set: CC-PVTZ
  Basis Set:
  Basis Set: CC-PVTZ
  Basis Set:
  @DF-RHF Final Energy:  -191.95364055941866
    Total Energy =                       -191.9536405594186590
  Basis Set: CC-PVTZ
  Basis Set:
  Basis Set: CC-PVTZ
  Basis Set:
  @DF-RHF Final Energy:  -191.95364128532955
    Total Energy =                       -191.9536412853295531
  Basis Set: CC-PVTZ
  Basis Set:
  Charge       = 0
  Multiplicity = 1
  Basis Set: CC-PVTZ
  Basis Set:

    Orbital Energies (a.u.)
    -----------------------

    Doubly Occupied:

       1A    -20.557543     2A    -11.288440     3A    -11.236791
       4A    -11.216590     5A     -1.377964     6A     -1.063800
       7A     -0.934609     8A     -0.773112     9A     -0.695478
      10A     -0.653431    11A     -0.624852    12A     -0.581794
      13A     -0.537789    14A     -0.487423    15A     -0.457038
      16A     -0.349725

  @DF-RHF Final Energy:  -191.95364117417088

   => Energetics <=

    Nuclear Repulsion Energy =            118.6662871075592705
    One-Electron Energy =                -495.5670959387404082
    Two-Electron Energy =                 184.9471676570102545
    DFT Exchange-Correlation Energy =       0.0000000000000000
    Empirical Dispersion Energy =           0.0000000000000000
    PCM Polarization Energy =               0.0000000000000000
    EFP Energy =                            0.0000000000000000
    Total Energy =                       -191.9536411741709117
    Molecular point group: c1
  Basis Set: CC-PVTZ
  Basis Set:

  -Total Gradient:
     Atom            X                  Y                   Z
    ------   -----------------  -----------------  -----------------
       1        0.000024294282     0.000009835898    -0.000005540474
       2        0.000037184434     0.000012610565    -0.000035672005
       3        0.027030347880    -0.015732545408    -0.001181248355
       4       -0.043528136424     0.017113849968     0.018528047535
       5       -0.000040168010     0.000004936033     0.000000415939
       6       -0.000013192740    -0.000013737340     0.000045357816
       7        0.010983290774     0.019857825802    -0.052764915549
       8       -0.000084895559     0.000088357032     0.000034557368
       9        0.005649895456    -0.021436397386     0.035410807633
      10       -0.000058620092     0.000095264836    -0.000031809908

  **** Optimization is complete! (in 10 steps) ****
    Final optimized geometry and variables:
    Molecular point group: c1

    Geometry (in Angstrom), charge = 0, multiplicity = 1:

    H           -1.216159112281     0.470372155639     1.377927426711
    O           -0.395056107332     0.018328592216     1.449032660805
    C            0.521786826200     0.548791988233     0.544143513929
    C            0.273457492277     0.234175965383    -0.911308919421
    H            1.472522850960     0.075288246015     0.748535182140
    H            0.653848491139     1.615945218271     0.707350319626
    C           -0.352614803707    -0.803941713588    -1.439908069311
    H            1.109111532807     0.619406252877    -1.486204465249
    H            0.122357358071    -1.593244861850    -1.994649673584
    H           -1.142167814905    -1.228924103314    -0.833644370390

  Mulliken Charges: (a.u.)
   Center  Symbol    Alpha    Beta     Spin     Total
       1     H     0.39131  0.39131  0.00000  0.21739
       2     O     4.19559  4.19559  0.00000 -0.39118
       3     C     2.95480  2.95480  0.00000  0.09039
       4     C     3.08575  3.08575  0.00000 -0.17151
       5     H     0.44713  0.44713  0.00000  0.10575
       6     H     0.46230  0.46230  0.00000  0.07541
       7     C     3.16158  3.16158  0.00000 -0.32315
       8     H     0.43633  0.43633  0.00000  0.12734
       9     H     0.42141  0.42141  0.00000  0.15717
      10     H     0.44381  0.44381  0.00000  0.11239

   Total alpha = 16.00000, Total beta = 16.00000, Total charge = -0.00000

*** Psi4 exiting successfully. Buy a developer a beer!
