  ==> Input File <==

--------------------------------------------------------------------------
set {
	reference rhf
	basis cc-pvtz
}

set_num_threads( 4 )
memory 2 gb

molecule MOL {
0 1

H	 -2.227935	 -0.694090	 0.280856
O	 -1.432053	 -0.565244	 -0.200812
C	 -0.727158	 0.534527	 0.310686
C	 0.680222	 0.664433	 -0.252229
H	 -1.306802	 1.408001	 0.044211
H	 -0.690821	 0.490158	 1.397609
C	 1.605391	 -0.489360	 0.123098
H	 0.615089	 0.745647	 -1.332226
H	 1.101414	 1.597893	 0.110950
H	 1.247627	 -1.432485	 -0.275204
H	 2.601435	 -0.332816	 -0.273062
H	 1.691776	 -0.589902	 1.200774

	symmetry c1
}
set optking {
	frozen_dihedral = ("
		1 2 3 4
	")
}

ee = optimize('scf')
oeprop('DIPOLE', 'QUADRUPOLE', 'MULLIKEN_CHARGES')
f=open( 'psi4out.xyz', 'w' )
f.write( "12  " )
f.write( str(ee) + "\n" )
f.write( MOL.save_string_xyz() )
f.close()
--------------------------------------------------------------------------

    Molecular point group: c1
  Charge       = 0
  Multiplicity = 1
  Basis Set: CC-PVTZ
  Basis Set:
  @DF-RHF Final Energy:  -193.18950963086164
    Total Energy =                       -193.1895096308616360
    Molecular point group: c1
  Basis Set: CC-PVTZ
  Basis Set:
  Basis Set: CC-PVTZ
  Basis Set:
  @DF-RHF Final Energy:  -193.19092743191581
    Total Energy =                       -193.1909274319156680
  Basis Set: CC-PVTZ
  Basis Set:
  Basis Set: CC-PVTZ
  Basis Set:
  @DF-RHF Final Energy:  -193.19126027352550
    Total Energy =                       -193.1912602735255859
  Basis Set: CC-PVTZ
  Basis Set:
  Basis Set: CC-PVTZ
  Basis Set:
  @DF-RHF Final Energy:  -193.19126591300679
    Total Energy =                       -193.1912659130067027
  Basis Set: CC-PVTZ
  Basis Set:
  Basis Set: CC-PVTZ
  Basis Set:
  @DF-RHF Final Energy:  -193.19126692875597
    Total Energy =                       -193.1912669287559083
  Basis Set: CC-PVTZ
  Basis Set:
  Charge       = 0
  Multiplicity = 1
  Basis Set: CC-PVTZ
  Basis Set:

    Orbital Energies (a.u.)
    -----------------------

    Doubly Occupied:

       1A    -20.546449     2A    -11.266202     3A    -11.213015
       4A    -11.201737     5A     -1.364462     6A     -1.048141
       7A     -0.919524     8A     -0.798664     9A     -0.708768
      10A     -0.643338    11A     -0.587652    12A     -0.583129
      13A     -0.535398    14A     -0.499869    15A     -0.483717
      16A     -0.465525    17A     -0.436407

  @DF-RHF Final Energy:  -193.19126708287885

   => Energetics <=

    Nuclear Repulsion Energy =            133.4080463356806661
    One-Electron Energy =                -526.5946297747946119
    Two-Electron Energy =                 199.9953163562350653
    DFT Exchange-Correlation Energy =       0.0000000000000000
    Empirical Dispersion Energy =           0.0000000000000000
    PCM Polarization Energy =               0.0000000000000000
    EFP Energy =                            0.0000000000000000
    Total Energy =                       -193.1912670828789089
    Molecular point group: c1
  Basis Set: CC-PVTZ
  Basis Set:

  -Total Gradient:
     Atom            X                  Y                   Z
    ------   -----------------  -----------------  -----------------
       1        0.000282808219    -0.000334184034     0.000368679382
       2       -0.000286988118     0.000365158534    -0.000338650542
       3       -0.000117196238     0.000197931357    -0.000291533702
       4        0.000122450206    -0.000215468374     0.000264644317
       5       -0.000009166498    -0.000003734110     0.000000355594
       6        0.000000224222    -0.000011124989    -0.000007990329
       7        0.000008571083    -0.000009995450    -0.000007746185
       8        0.000000624309     0.000004989949     0.000001314501
       9       -0.000004099841     0.000002122587     0.000005229762
      10        0.000000358021     0.000003120797     0.000002438638
      11        0.000000099448    -0.000001240330     0.000002391092
      12        0.000002315184     0.000002424062     0.000000867472

  **** Optimization is complete! (in 6 steps) ****
    Final optimized geometry and variables:
    Molecular point group: c1

    Geometry (in Angstrom), charge = 0, multiplicity = 1:

    H           -2.156425319521    -0.760491640072     0.223709136591
    O           -1.351770674642    -0.585748124065    -0.227582171881
    C           -0.721936511938     0.541982421109     0.322581215518
    C            0.677895592427     0.655948081587    -0.249599545719
    H           -1.287403548457     1.440507561910     0.088893893158
    H           -0.669911776919     0.457409968109     1.406288314783
    C            1.588836917629    -0.505913954826     0.131593274779
    H            0.601568855333     0.725991122636    -1.329783553144
    H            1.107337357027     1.591412235204     0.097201896251
    H            1.181618503452    -1.446307205610    -0.214749577641
    H            2.573633518328    -0.382760750869    -0.304044390431
    H            1.709542672273    -0.569235977232     1.208539682437

  Mulliken Charges: (a.u.)
   Center  Symbol    Alpha    Beta     Spin     Total
       1     H     0.39502  0.39502  0.00000  0.20996
       2     O     4.19985  4.19985  0.00000 -0.39969
       3     C     2.96964  2.96964  0.00000  0.06072
       4     C     3.08297  3.08297  0.00000 -0.16595
       5     H     0.46611  0.46611  0.00000  0.06779
       6     H     0.47467  0.47467  0.00000  0.05066
       7     C     3.14889  3.14889  0.00000 -0.29779
       8     H     0.45222  0.45222  0.00000  0.09556
       9     H     0.45533  0.45533  0.00000  0.08934
      10     H     0.44508  0.44508  0.00000  0.10985
      11     H     0.45074  0.45074  0.00000  0.09852
      12     H     0.45949  0.45949  0.00000  0.08103

   Total alpha = 17.00000, Total beta = 17.00000, Total charge = -0.00000
