  ==> Input File <==

--------------------------------------------------------------------------
set {
	reference rhf
	basis cc-pvtz
}

set_num_threads( 4 )
memory 2 gb

molecule MOL {
0 1

H	 2.462485	 -2.216993	 0.000000
O	 2.777472	 -1.330706	 0.000000
C	 1.763288	 -0.447523	 0.000000
C	 2.076676	 0.887099	 -0.213760
C	 0.452787	 -0.824596	 0.201894
H	 3.102083	 1.158615	 -0.368604
C	 1.080019	 1.835734	 -0.224493
H	 0.182558	 -1.846518	 0.369075
C	 -0.521428	 0.153859	 0.184597
H	 1.331622	 2.864762	 -0.390462
C	 -0.243726	 1.481492	 -0.024101
N	 -1.914048	 -0.254710	 0.400188
H	 -1.027745	 2.206753	 -0.029754
O	 -2.126324	 -1.408116	 0.578143
O	 -2.742932	 0.591089	 0.383702

	symmetry c1
}
set optking {
	frozen_dihedral = ("
		4 3 2 1
	")
}

ee = optimize('scf')
oeprop('DIPOLE', 'QUADRUPOLE', 'MULLIKEN_CHARGES')
f=open( 'psi4out.xyz', 'w' )
f.write( "15  " )
f.write( str(ee) + "\n" )
f.write( MOL.save_string_xyz() )
f.close()
--------------------------------------------------------------------------

    Molecular point group: c1
  Charge       = 0
  Multiplicity = 1
  Basis Set: CC-PVTZ
  Basis Set:
  @DF-RHF Final Energy:  -509.21895795117666
    Total Energy =                       -509.2189579511771171
    Molecular point group: c1
  Basis Set: CC-PVTZ
  Basis Set:
  Basis Set: CC-PVTZ
  Basis Set:
  @DF-RHF Final Energy:  -509.21895442361665
    Total Energy =                       -509.2189544236166512
  Basis Set: CC-PVTZ
  Basis Set:
  Basis Set: CC-PVTZ
  Basis Set:
  @DF-RHF Final Energy:  -509.21776373232700
    Total Energy =                       -509.2177637323264889
  Basis Set: CC-PVTZ
  Basis Set:
  Basis Set: CC-PVTZ
  Basis Set:
  @DF-RHF Final Energy:  -509.21895226682102
    Total Energy =                       -509.2189522668211339
  Basis Set: CC-PVTZ
  Basis Set:
  Charge       = 0
  Multiplicity = 1
  Basis Set: CC-PVTZ
  Basis Set:

    Orbital Energies (a.u.)
    -----------------------

    Doubly Occupied:

       1A    -20.607934     2A    -20.595034     3A    -20.594507
       4A    -15.850626     5A    -11.327402     6A    -11.308925
       7A    -11.263122     8A    -11.262807     9A    -11.258659
      10A    -11.256667    11A     -1.644300    12A     -1.440453
      13A     -1.426721    14A     -1.202501    15A     -1.095473
      16A     -1.047912    17A     -0.966779    18A     -0.881079
      19A     -0.832025    20A     -0.795513    21A     -0.755729
      22A     -0.743607    23A     -0.729529    24A     -0.709416
      25A     -0.677258    26A     -0.636240    27A     -0.623271
      28A     -0.595984    29A     -0.560410    30A     -0.546449
      31A     -0.520020    32A     -0.494928    33A     -0.493543
      34A     -0.460317    35A     -0.380188    36A     -0.346534

  @DF-RHF Final Energy:  -509.21896222146484

   => Energetics <=

    Nuclear Repulsion Energy =            504.7167504811544632
    One-Electron Energy =               -1696.0077071730831904
    Two-Electron Energy =                 682.0719944704633235
    DFT Exchange-Correlation Energy =       0.0000000000000000
    Empirical Dispersion Energy =           0.0000000000000000
    PCM Polarization Energy =               0.0000000000000000
    EFP Energy =                            0.0000000000000000
    Total Energy =                       -509.2189622214655174
    Molecular point group: c1
  Basis Set: CC-PVTZ
  Basis Set:

  -Total Gradient:
     Atom            X                  Y                   Z
    ------   -----------------  -----------------  -----------------
       1        0.000016457104    -0.000019275129    -0.001022914159
       2       -0.000093665502    -0.000017667218     0.000934095185
       3        0.000133894084     0.000050668625     0.000835449599
       4       -0.000106722446    -0.000006086230    -0.000694680484
       5        0.000044505028    -0.000012322492    -0.000014281292
       6       -0.000002191867    -0.000003735726     0.000010319058
       7        0.000047880440    -0.000024807348    -0.000084441361
       8       -0.000006637930    -0.000006561949    -0.000020930337
       9        0.000006094737     0.000069312990     0.000059297714
      10       -0.000004850505     0.000005071905    -0.000000474328
      11       -0.000051204688    -0.000040577215     0.000029070763
      12       -0.000032561266    -0.000010522219    -0.000110829021
      13       -0.000000275479     0.000007440018     0.000011828188
      14        0.000024338833    -0.000015063675     0.000038297992
      15        0.000024939458     0.000024125654     0.000030192481

  **** Optimization is complete! (in 5 steps) ****
    Final optimized geometry and variables:
    Molecular point group: c1

    Geometry (in Angstrom), charge = 0, multiplicity = 1:

    H            2.454438909418    -2.226592211605    -0.136521807914
    O            2.769592663671    -1.340378332175    -0.138071052882
    C            1.755263979735    -0.456535652419    -0.141344727081
    C            2.068148037714     0.877646224416    -0.357528008990
    C            0.444854582325    -0.833717019488     0.061292642144
    H            3.093080106577     1.148695291792    -0.516189900125
    C            1.071819167185     1.826912744964    -0.364562709464
    H            0.175461085313    -1.855317420527     0.231399479285
    C           -0.529477148985     0.144471859390     0.043383188078
    H            1.323183659432     2.855840639329    -0.531495611889
    C           -0.251628195043     1.472499447340    -0.163493709310
    N           -1.922247744976    -0.264240032487     0.257421209261
    H           -1.035704632038     2.197698247353    -0.168355514174
    O           -2.135717054294    -1.418859557855     0.425788647036
    O           -2.750040629070     0.582791469251     0.249471153033

  Mulliken Charges: (a.u.)
   Center  Symbol    Alpha    Beta     Spin     Total
       1     H     0.38380  0.38380  0.00000  0.23240
       2     O     4.16947  4.16947  0.00000 -0.33894
       3     C     2.84484  2.84484  0.00000  0.31032
       4     C     3.09733  3.09733  0.00000 -0.19466
       5     C     3.13268  3.13268  0.00000 -0.26535
       6     H     0.41299  0.41299  0.00000  0.17402
       7     C     3.05689  3.05689  0.00000 -0.11379
       8     H     0.40673  0.40673  0.00000  0.18654
       9     C     2.98280  2.98280  0.00000  0.03440
      10     H     0.41594  0.41594  0.00000  0.16812
      11     C     3.09498  3.09498  0.00000 -0.18996
      12     N     3.24905  3.24905  0.00000  0.50189
      13     H     0.39947  0.39947  0.00000  0.20106
      14     O     4.17840  4.17840  0.00000 -0.35680
      15     O     4.17462  4.17462  0.00000 -0.34925

   Total alpha = 36.00000, Total beta = 36.00000, Total charge =  0.00000
