  ==> Input File <==

--------------------------------------------------------------------------
set {
	reference rhf
	basis 6-31G*
}

set_num_threads( 4 )
memory 2 gb

molecule MOL {
0 1

H	 2.465338	 -2.224223	 0.000000
O	 2.784187	 -1.332015	 0.000000
C	 1.765313	 -0.449364	 0.000000
C	 0.522022	 -0.909167	 -0.422789
C	 1.919172	 0.864406	 0.398083
H	 0.428114	 -1.934520	 -0.727242
C	 -0.560041	 -0.053776	 -0.445348
H	 2.865371	 1.245372	 0.728382
C	 0.811578	 1.696163	 0.362939
H	 -1.516260	 -0.417127	 -0.773188
C	 -0.431053	 1.271002	 -0.050163
N	 0.979813	 3.085032	 0.785107
H	 -1.261097	 1.946493	 -0.062151
O	 2.067337	 3.428813	 1.138857
O	 0.021611	 3.794263	 0.751859

	symmetry c1
}
set optking {
	frozen_dihedral = ("
		4 3 2 1
	")
}

ee = optimize('scf')
oeprop('DIPOLE', 'QUADRUPOLE', 'MULLIKEN_CHARGES')
f=open( 'psi4out.xyz', 'w' )
f.write( "15  " )
f.write( str(ee) + "\n" )
f.write( MOL.save_string_xyz() )
f.close()
--------------------------------------------------------------------------

    Molecular point group: c1
  Charge       = 0
  Multiplicity = 1
  Basis Set: 6-31G*
  Basis Set:
  @DF-RHF Final Energy:  -509.02396927582276
    Total Energy =                       -509.0239692758229921
    Molecular point group: c1
  Basis Set: 6-31G*
  Basis Set:
  Basis Set: 6-31G*
  Basis Set:
  @DF-RHF Final Energy:  -509.02617650131975
    Total Energy =                       -509.0261765013200375
  Basis Set: 6-31G*
  Basis Set:
  Basis Set: 6-31G*
  Basis Set:
  @DF-RHF Final Energy:  -509.02230234685038
    Total Energy =                       -509.0223023468507790
  Basis Set: 6-31G*
  Basis Set:
  Basis Set: 6-31G*
  Basis Set:
  @DF-RHF Final Energy:  -509.02633657622431
    Total Energy =                       -509.0263365762239118
  Basis Set: 6-31G*
  Basis Set:
  Basis Set: 6-31G*
  Basis Set:
  @DF-RHF Final Energy:  -509.02639701711860
    Total Energy =                       -509.0263970171185974
  Basis Set: 6-31G*
  Basis Set:
  Basis Set: 6-31G*
  Basis Set:
  @DF-RHF Final Energy:  -509.02640730824749
    Total Energy =                       -509.0264073082474852
  Basis Set: 6-31G*
  Basis Set:
  Charge       = 0
  Multiplicity = 1
  Basis Set: 6-31G*
  Basis Set:

    Orbital Energies (a.u.)
    -----------------------

    Doubly Occupied:

       1A    -20.614290     2A    -20.602308     3A    -20.602028
       4A    -15.856711     5A    -11.329788     6A    -11.309493
       7A    -11.268496     8A    -11.266049     9A    -11.263492
      10A    -11.262788    11A     -1.635682    12A     -1.434722
      13A     -1.419064    14A     -1.199847    15A     -1.094154
      16A     -1.047461    17A     -0.964345    18A     -0.863981
      19A     -0.847159    20A     -0.795108    21A     -0.734539
      22A     -0.732573    23A     -0.718259    24A     -0.710635
      25A     -0.678330    26A     -0.636256    27A     -0.620414
      28A     -0.589267    29A     -0.565467    30A     -0.537034
      31A     -0.514802    32A     -0.489815    33A     -0.487448
      34A     -0.451953    35A     -0.378563    36A     -0.343322

  @DF-RHF Final Energy:  -509.02640860366034

   => Energetics <=

    Nuclear Repulsion Energy =            503.3263206068307909
    One-Electron Energy =               -1692.9741627761652580
    Two-Electron Energy =                 680.6214335656740104
    DFT Exchange-Correlation Energy =       0.0000000000000000
    Empirical Dispersion Energy =           0.0000000000000000
    PCM Polarization Energy =               0.0000000000000000
    EFP Energy =                            0.0000000000000000
    Total Energy =                       -509.0264086036605704
    Molecular point group: c1
  Basis Set: 6-31G*
  Basis Set:

  -Total Gradient:
     Atom            X                  Y                   Z
    ------   -----------------  -----------------  -----------------
       1       -0.000040356460     0.000013719428     0.001515337953
       2        0.000165201593     0.000108375089    -0.002501715742
       3       -0.000304401243    -0.000411748279     0.002064735760
       4        0.000271632232     0.000207415880    -0.001096357362
       5       -0.000078985514     0.000137054583     0.000020769401
       6        0.000003903651     0.000039454235     0.000018760776
       7       -0.000027546719     0.000074829283     0.000010158923
       8        0.000037613824    -0.000022751352     0.000003498432
       9        0.000024934600    -0.000032725820    -0.000017733346
      10       -0.000027897270     0.000025248611     0.000002249021
      11        0.000006170922    -0.000021667262    -0.000005308995
      12        0.000063602238     0.000059914701     0.000113777097
      13       -0.000028599906    -0.000017612364    -0.000011320980
      14        0.000082702164    -0.000121527238    -0.000041583773
      15       -0.000147974122    -0.000037979495    -0.000075267164

  **** Optimization is complete! (in 7 steps) ****
    Final optimized geometry and variables:
    Molecular point group: c1

    Geometry (in Angstrom), charge = 0, multiplicity = 1:

    H            1.553155366375    -3.370194488551    -0.264096828364
    O            1.797605092002    -2.455200536964    -0.253020400497
    C            0.707406501300    -1.658849862079    -0.272827460881
    C           -0.534302968894    -2.100766939534    -0.702861357073
    C            0.877013365657    -0.341670638648     0.123813522226
    H           -0.658099353675    -3.120900709037    -1.022904494632
    C           -1.614010454700    -1.231982691896    -0.723405973930
    H            1.834795651565     0.005150962344     0.452219888679
    C           -0.215984840007     0.498027296411     0.082576584169
    H           -2.572492426476    -1.586414142598    -1.054479570488
    C           -1.469691918585     0.085114159474    -0.331223702609
    N           -0.037565823131     1.887432133249     0.502560779697
    H           -2.290964602326     0.771001275548    -0.344196051155
    O            1.050474422150     2.224972379292     0.856124427538
    O           -0.993041060695     2.601618292120     0.466028206732

  Mulliken Charges: (a.u.)
   Center  Symbol    Alpha    Beta     Spin     Total
       1     H     0.26879  0.26879  0.00000  0.46242
       2     O     4.37505  4.37505  0.00000 -0.75009
       3     C     2.79809  2.79809  0.00000  0.40381
       4     C     3.12642  3.12642  0.00000 -0.25283
       5     C     3.11265  3.11265  0.00000 -0.22531
       6     H     0.39310  0.39310  0.00000  0.21380
       7     C     3.09985  3.09985  0.00000 -0.19971
       8     H     0.35730  0.35730  0.00000  0.28539
       9     C     2.91314  2.91314  0.00000  0.17372
      10     H     0.38699  0.38699  0.00000  0.22602
      11     C     3.09727  3.09727  0.00000 -0.19455
      12     N     3.24109  3.24109  0.00000  0.51781
      13     H     0.36523  0.36523  0.00000  0.26954
      14     O     4.23198  4.23198  0.00000 -0.46396
      15     O     4.23304  4.23304  0.00000 -0.46607

   Total alpha = 36.00000, Total beta = 36.00000, Total charge = -0.00000
