  ==> Input File <==

--------------------------------------------------------------------------
set {
	reference rhf
	basis 6-31G*
}

set_num_threads( 4 )
memory 2 gb

molecule MOL {
0 1

O	 -0.291628	 1.323815	 -0.000732
C	 -0.449655	 0.146360	 0.000961
C	 -1.783294	 -0.549321	 -0.000296
O	 0.550821	 -0.724572	 0.000672
H	 -1.863538	 -1.185371	 -0.874187
H	 -2.574672	 0.185258	 -0.002793
H	 -1.866414	 -1.182381	 0.875436
C	 1.814544	 -0.250456	 0.430205
H	 2.154641	 0.553550	 -0.206399
H	 2.484880	 -1.092738	 0.359784
H	 1.760901	 0.101791	 1.450199

	symmetry c1
}
set optking {
	frozen_dihedral = ("
		8 4 2 1
	")
}

ee = optimize('scf')
oeprop('DIPOLE', 'QUADRUPOLE', 'MULLIKEN_CHARGES')
f=open( 'psi4out.xyz', 'w' )
f.write( "11  " )
f.write( str(ee) + "\n" )
f.write( MOL.save_string_xyz() )
f.close()
--------------------------------------------------------------------------

    Molecular point group: c1
  Charge       = 0
  Multiplicity = 1
  Basis Set: 6-31G*
  Basis Set:
  @DF-RHF Final Energy:  -266.83390477044384
    Total Energy =                       -266.8339047704439508
    Molecular point group: c1
  Basis Set: 6-31G*
  Basis Set:
  Basis Set: 6-31G*
  Basis Set:
  @DF-RHF Final Energy:  -266.83097813397848
    Total Energy =                       -266.8309781339783058
  Basis Set: 6-31G*
  Basis Set:
  Basis Set: 6-31G*
  Basis Set:
  @DF-RHF Final Energy:  -266.83412271397845
    Total Energy =                       -266.8341227139783882
  Basis Set: 6-31G*
  Basis Set:
  Basis Set: 6-31G*
  Basis Set:
  @DF-RHF Final Energy:  -266.83415579474570
    Total Energy =                       -266.8341557947456408
  Basis Set: 6-31G*
  Basis Set:
  Basis Set: 6-31G*
  Basis Set:
  @DF-RHF Final Energy:  -266.83415817211994
    Total Energy =                       -266.8341581721199418
  Basis Set: 6-31G*
  Basis Set:
  Charge       = 0
  Multiplicity = 1
  Basis Set: 6-31G*
  Basis Set:

    Orbital Energies (a.u.)
    -----------------------

    Doubly Occupied:

       1A    -20.603799     2A    -20.547659     3A    -11.376794
       4A    -11.283209     5A    -11.234887     6A     -1.469815
       7A     -1.364896     8A     -1.035226     9A     -0.953569
      10A     -0.778213    11A     -0.695517    12A     -0.680331
      13A     -0.676716    14A     -0.596611    15A     -0.592312
      16A     -0.562064    17A     -0.529190    18A     -0.518893
      19A     -0.457407    20A     -0.442046

  @DF-RHF Final Energy:  -266.83415992655159

   => Energetics <=

    Nuclear Repulsion Energy =            183.1690408589602725
    One-Electron Energy =                -727.2080924268577746
    Two-Electron Energy =                 277.2048916413462507
    DFT Exchange-Correlation Energy =       0.0000000000000000
    Empirical Dispersion Energy =           0.0000000000000000
    PCM Polarization Energy =               0.0000000000000000
    EFP Energy =                            0.0000000000000000
    Total Energy =                       -266.8341599265513082
    Molecular point group: c1
  Basis Set: 6-31G*
  Basis Set:

  -Total Gradient:
     Atom            X                  Y                   Z
    ------   -----------------  -----------------  -----------------
       1       -0.000112370956     0.000145902779    -0.006719258990
       2       -0.000337011796    -0.000961077309     0.012305609574
       3        0.000018778963    -0.000003906893     0.000120963346
       4        0.001489332241     0.002338146455    -0.010609841780
       5       -0.000024784146     0.000031740912    -0.000032050406
       6       -0.000014312214    -0.000011550842    -0.000017123828
       7        0.000021287697    -0.000032298119    -0.000034985857
       8       -0.001101345407    -0.001567829180     0.005139376353
       9        0.000017708780     0.000050192319    -0.000032522180
      10        0.000020180754    -0.000007175674    -0.000035391735
      11        0.000022536084     0.000017855554    -0.000084774497

  **** Optimization is complete! (in 6 steps) ****
    Final optimized geometry and variables:
    Molecular point group: c1

    Geometry (in Angstrom), charge = 0, multiplicity = 1:

    O           -0.290883559784     1.335679641472    -0.030081791225
    C           -0.443206233048     0.158530656606    -0.061027967130
    C           -1.773354909415    -0.541229902636    -0.116690458201
    O            0.564005010242    -0.707155253275    -0.113066465742
    H           -1.817416159591    -1.171968019539    -0.996939790553
    H           -2.567960601264     0.189332107830    -0.143259511877
    H           -1.885794811563    -1.181332917387     0.750982327858
    C            1.835775258020    -0.238953055833     0.299710228590
    H            2.201809378754     0.522600804751    -0.373226294323
    H            2.487856718244    -1.098168173630     0.281280019156
    H            1.780822148536     0.166305507493     1.300494465735

  Mulliken Charges: (a.u.)
   Center  Symbol    Alpha    Beta     Spin     Total
       1     O     4.27905  4.27905  0.00000 -0.55809
       2     C     2.62255  2.62255  0.00000  0.75491
       3     C     3.28219  3.28219  0.00000 -0.56439
       4     O     4.30064  4.30064  0.00000 -0.60127
       5     H     0.39872  0.39872  0.00000  0.20257
       6     H     0.39675  0.39675  0.00000  0.20651
       7     H     0.40141  0.40141  0.00000  0.19718
       8     C     3.09262  3.09262  0.00000 -0.18525
       9     H     0.40592  0.40592  0.00000  0.18816
      10     H     0.40791  0.40791  0.00000  0.18418
      11     H     0.41225  0.41225  0.00000  0.17550

   Total alpha = 20.00000, Total beta = 20.00000, Total charge = -0.00000
