  ==> Input File <==

--------------------------------------------------------------------------
set {
	reference rhf
	basis 6-31G*
}

set_num_threads( 4 )
memory 2 gb

molecule MOL {
0 1

H	 -0.944757	 -0.000069	 1.678017
O	 -0.042387	 -0.000390	 1.388199
C	 -0.001487	 0.000018	 -0.026623
C	 0.734416	 1.248371	 -0.517236
C	 0.693633	 -1.270742	 -0.519188
C	 -1.460706	 0.023990	 -0.467675
H	 0.746875	 1.300410	 -1.601226
H	 1.766711	 1.247851	 -0.174786
H	 0.254033	 2.141936	 -0.134101
H	 0.706347	 -1.320357	 -1.603377
H	 1.724766	 -1.305123	 -0.174929
H	 0.183307	 -2.148885	 -0.139306
H	 -1.539828	 0.026651	 -1.550024
H	 -1.953942	 0.909315	 -0.082441
H	 -1.982058	 -0.846027	 -0.084721

	symmetry c1
}
set optking {
	frozen_dihedral = ("
		4 3 2 1
	")
}

ee = optimize('scf')
oeprop('DIPOLE', 'QUADRUPOLE', 'MULLIKEN_CHARGES')
f=open( 'psi4out.xyz', 'w' )
f.write( "15  " )
f.write( str(ee) + "\n" )
f.write( MOL.save_string_xyz() )
f.close()
--------------------------------------------------------------------------

    Molecular point group: c1
  Charge       = 0
  Multiplicity = 1
  Basis Set: 6-31G*
  Basis Set:
  @DF-RHF Final Energy:  -232.14864990744945
    Total Energy =                       -232.1486499074496237
    Molecular point group: c1
  Basis Set: 6-31G*
  Basis Set:
  Basis Set: 6-31G*
  Basis Set:
  @DF-RHF Final Energy:  -232.15032088951861
    Total Energy =                       -232.1503208895188664
  Basis Set: 6-31G*
  Basis Set:
  Basis Set: 6-31G*
  Basis Set:
  @DF-RHF Final Energy:  -232.15083554238191
    Total Energy =                       -232.1508355423818557
  Basis Set: 6-31G*
  Basis Set:
  Basis Set: 6-31G*
  Basis Set:
  @DF-RHF Final Energy:  -232.15085758437053
    Total Energy =                       -232.1508575843705557
  Basis Set: 6-31G*
  Basis Set:
  Basis Set: 6-31G*
  Basis Set:
  @DF-RHF Final Energy:  -232.15086146875066
    Total Energy =                       -232.1508614687505769
  Basis Set: 6-31G*
  Basis Set:
  Charge       = 0
  Multiplicity = 1
  Basis Set: 6-31G*
  Basis Set:

    Orbital Energies (a.u.)
    -----------------------

    Doubly Occupied:

       1A    -20.546557     2A    -11.282057     3A    -11.218882
       4A    -11.204398     5A    -11.204364     6A     -1.357880
       7A     -1.063818     8A     -0.945819     9A     -0.935150
      10A     -0.775656    11A     -0.669110    12A     -0.622640
      13A     -0.621014    14A     -0.575167    15A     -0.556341
      16A     -0.533382    17A     -0.516736    18A     -0.508640
      19A     -0.501467    20A     -0.456730    21A     -0.422347

  @DF-RHF Final Energy:  -232.15086179948216

   => Energetics <=

    Nuclear Repulsion Energy =            200.2347490579206521
    One-Electron Energy =                -711.7349113057005070
    Two-Electron Energy =                 279.3493004482977540
    DFT Exchange-Correlation Energy =       0.0000000000000000
    Empirical Dispersion Energy =           0.0000000000000000
    PCM Polarization Energy =               0.0000000000000000
    EFP Energy =                            0.0000000000000000
    Total Energy =                       -232.1508617994820725
    Molecular point group: c1
  Basis Set: 6-31G*
  Basis Set:

  -Total Gradient:
     Atom            X                  Y                   Z
    ------   -----------------  -----------------  -----------------
       1       -0.000000642112    -0.000062574792     0.000005294922
       2       -0.000004360422     0.000051381800    -0.000016152709
       3       -0.000034906413     0.000025643605     0.000010150128
       4        0.000033733731     0.000008241400    -0.000017839415
       5       -0.000008827082    -0.000020755642     0.000006577995
       6       -0.000005842723    -0.000005305052     0.000002016446
       7        0.000005385920     0.000002331521     0.000007237773
       8        0.000004725780     0.000006599635    -0.000004645809
       9        0.000003421038     0.000007771901    -0.000001135800
      10       -0.000003622133     0.000006387606     0.000015775479
      11        0.000005690438    -0.000002292205    -0.000005513669
      12        0.000003942839    -0.000016927398    -0.000001008680
      13       -0.000002950583    -0.000000970540    -0.000002066283
      14        0.000004563294    -0.000004032061    -0.000000050096
      15       -0.000000311571     0.000004500222     0.000001359718

  **** Optimization is complete! (in 6 steps) ****
    Final optimized geometry and variables:
    Molecular point group: c1

    Geometry (in Angstrom), charge = 0, multiplicity = 1:

    H           -0.808444411147     0.015716585276     1.761984064254
    O            0.061618075523    -0.004754366137     1.392651145364
    C            0.001404102953     0.000174309206    -0.026112230028
    C            0.741702017710     1.246904718102    -0.507454194897
    C            0.701710407442    -1.267321160529    -0.512745334635
    C           -1.455088060525     0.024105993904    -0.490315550401
    H            0.778242394638     1.291943531356    -1.591802026981
    H            1.757857163011     1.244315610983    -0.129113220937
    H            0.251081267172     2.142976227974    -0.141739204027
    H            0.737163837283    -1.308482307301    -1.597265357987
    H            1.717328626866    -1.298799597760    -0.134239867734
    H            0.182617419025    -2.148842242684    -0.151090081766
    H           -1.520841664397     0.027132117713    -1.572716280637
    H           -1.961375384117     0.913264074858    -0.123531124313
    H           -1.989251445185    -0.849775086875    -0.126513068445

  Mulliken Charges: (a.u.)
   Center  Symbol    Alpha    Beta     Spin     Total
       1     H     0.27925  0.27925  0.00000  0.44149
       2     O     4.38410  4.38410  0.00000 -0.76821
       3     C     2.84397  2.84397  0.00000  0.31206
       4     C     3.23158  3.23158  0.00000 -0.46317
       5     C     3.23157  3.23157  0.00000 -0.46314
       6     C     3.26118  3.26118  0.00000 -0.52236
       7     H     0.42591  0.42591  0.00000  0.14819
       8     H     0.41312  0.41312  0.00000  0.17377
       9     H     0.42019  0.42019  0.00000  0.15962
      10     H     0.42591  0.42591  0.00000  0.14818
      11     H     0.41312  0.41312  0.00000  0.17376
      12     H     0.42004  0.42004  0.00000  0.15992
      13     H     0.41402  0.41402  0.00000  0.17196
      14     H     0.41812  0.41812  0.00000  0.16376
      15     H     0.41792  0.41792  0.00000  0.16417

   Total alpha = 21.00000, Total beta = 21.00000, Total charge = -0.00000
