  ==> Input File <==

--------------------------------------------------------------------------
set {
	reference rhf
	basis 6-31G*
}

set_num_threads( 4 )
memory 2 gb

molecule MOL {
0 1

H	 -0.000158	 1.970498	 0.756846
O	 -0.000074	 1.880206	 -0.189275
C	 -0.000015	 0.544847	 -0.545111
C	 -0.172463	 0.409944	 -2.054432
C	 -1.047407	 -0.208907	 0.267801
H	 0.966182	 0.135493	 -0.290170
F	 0.818463	 1.019842	 -2.668952
F	 -0.182204	 -0.846896	 -2.445096
F	 -1.302006	 0.974193	 -2.451107
F	 -0.771291	 -0.104269	 1.550122
F	 -1.089281	 -1.488681	 -0.036835
F	 -2.252451	 0.301772	 0.071201

	symmetry c1
}
set optking {
	frozen_dihedral = ("
		6 3 2 1
	")
}

ee = optimize('scf')
oeprop('DIPOLE', 'QUADRUPOLE', 'MULLIKEN_CHARGES')
f=open( 'psi4out.xyz', 'w' )
f.write( "12  " )
f.write( str(ee) + "\n" )
f.write( MOL.save_string_xyz() )
f.close()
--------------------------------------------------------------------------

    Molecular point group: c1
  Charge       = 0
  Multiplicity = 1
  Basis Set: 6-31G*
  Basis Set:
  @DF-RHF Final Energy:  -786.27336495294139
    Total Energy =                       -786.2733649529412787
    Molecular point group: c1
  Basis Set: 6-31G*
  Basis Set:
  Basis Set: 6-31G*
  Basis Set:
  @DF-RHF Final Energy:  -786.27553542085911
    Total Energy =                       -786.2755354208591143
  Basis Set: 6-31G*
  Basis Set:
  Basis Set: 6-31G*
  Basis Set:
  @DF-RHF Final Energy:  -786.27602769607256
    Total Energy =                       -786.2760276960725605
  Basis Set: 6-31G*
  Basis Set:
  Basis Set: 6-31G*
  Basis Set:
  @DF-RHF Final Energy:  -786.27609297588469
    Total Energy =                       -786.2760929758845805
  Basis Set: 6-31G*
  Basis Set:
  Basis Set: 6-31G*
  Basis Set:
  @DF-RHF Final Energy:  -786.27610713499598
    Total Energy =                       -786.2761071349959821
  Basis Set: 6-31G*
  Basis Set:
  Basis Set: 6-31G*
  Basis Set:
  @DF-RHF Final Energy:  -786.27610987472883
    Total Energy =                       -786.2761098747287178
  Basis Set: 6-31G*
  Basis Set:
  Charge       = 0
  Multiplicity = 1
  Basis Set: 6-31G*
  Basis Set:

    Orbital Energies (a.u.)
    -----------------------

    Doubly Occupied:

       1A    -26.367470     2A    -26.363444     3A    -26.361296
       4A    -26.355644     5A    -26.351956     6A    -26.351212
       7A    -20.615452     8A    -11.528188     9A    -11.521602
      10A    -11.349174    11A     -1.765310    12A     -1.753979
      13A     -1.662159    14A     -1.660564    15A     -1.651034
      16A     -1.649368    17A     -1.434336    18A     -1.102921
      19A     -0.996220    20A     -0.934361    21A     -0.867783
      22A     -0.858244    23A     -0.853563    24A     -0.840878
      25A     -0.830243    26A     -0.784843    27A     -0.753766
      28A     -0.731666    29A     -0.719821    30A     -0.716928
      31A     -0.712792    32A     -0.684951    33A     -0.681773
      34A     -0.666760    35A     -0.666587    36A     -0.662087
      37A     -0.651477    38A     -0.640171    39A     -0.616579
      40A     -0.547282    41A     -0.505405

  @DF-RHF Final Energy:  -786.27611058565435

   => Energetics <=

    Nuclear Repulsion Energy =            670.5676184109797759
    One-Electron Energy =               -2428.1488801199693626
    Two-Electron Energy =                 971.3051511233347810
    DFT Exchange-Correlation Energy =       0.0000000000000000
    Empirical Dispersion Energy =           0.0000000000000000
    PCM Polarization Energy =               0.0000000000000000
    EFP Energy =                            0.0000000000000000
    Total Energy =                       -786.2761105856548056
    Molecular point group: c1
  Basis Set: 6-31G*
  Basis Set:

  -Total Gradient:
     Atom            X                  Y                   Z
    ------   -----------------  -----------------  -----------------
       1       -0.001621289139     0.000025835198     0.000067435053
       2        0.002152208090     0.000059210411    -0.000460105389
       3       -0.000994309960    -0.000452867916     0.001658551193
       4       -0.000018331085     0.000056551199     0.000014749617
       5       -0.000008187448     0.000060245751    -0.000032574786
       6        0.000451010365     0.000335369627    -0.001313553932
       7        0.000029356098     0.000009855464    -0.000023225706
       8       -0.000001910970    -0.000016794596    -0.000002509114
       9        0.000016759493    -0.000026375568     0.000010949040
      10        0.000009961467    -0.000042284225     0.000053830715
      11       -0.000042894815     0.000058736539     0.000028667144
      12        0.000027627906    -0.000067481882    -0.000002213836

  **** Optimization is complete! (in 7 steps) ****
    Final optimized geometry and variables:
    Molecular point group: c1

    Geometry (in Angstrom), charge = 0, multiplicity = 1:

    H            0.683621780074     1.730673062306     1.596895774058
    O            0.652870561923     1.624483579958     0.654737934747
    C            0.638637166731     0.284179999016     0.317111744130
    C            0.431036710448     0.220291038095    -1.190268816638
    C           -0.428890968715    -0.461311470925     1.109819449513
    H            1.586571862678    -0.204479812404     0.517592075577
    F            1.451996233464     0.785632657809    -1.799996521478
    F            0.364241081949    -1.037073390333    -1.590363426186
    F           -0.665964089686     0.831224705900    -1.572167584468
    F           -0.239966047648    -0.202337020627     2.399741964132
    F           -0.334482918557    -1.763055020802     0.944830383515
    F           -1.650649419154    -0.090280530950     0.805073202178

  Mulliken Charges: (a.u.)
   Center  Symbol    Alpha    Beta     Spin     Total
       1     H     0.26350  0.26350  0.00000  0.47300
       2     O     4.36697  4.36697  0.00000 -0.73393
       3     C     3.04199  3.04199  0.00000 -0.08397
       4     C     2.43451  2.43451  0.00000  1.13099
       5     C     2.44907  2.44907  0.00000  1.10185
       6     H     0.38773  0.38773  0.00000  0.22454
       7     F     4.67663  4.67663  0.00000 -0.35326
       8     F     4.67917  4.67917  0.00000 -0.35834
       9     F     4.67046  4.67046  0.00000 -0.34092
      10     F     4.68787  4.68787  0.00000 -0.37573
      11     F     4.67302  4.67302  0.00000 -0.34604
      12     F     4.66910  4.66910  0.00000 -0.33820

   Total alpha = 41.00000, Total beta = 41.00000, Total charge = -0.00000
