  ==> Input File <==

--------------------------------------------------------------------------
set {
	reference rhf
	basis 6-31G*
}

set_num_threads( 4 )
memory 2 gb

molecule MOL {
0 1

H	 -1.073702	 -2.283440	 -0.812805
N	 -0.363209	 -1.584576	 -0.914133
C	 -0.563778	 -0.502042	 0.037919
H	 -0.425908	 -1.241938	 -1.854039
C	 0.575259	 0.508231	 -0.048326
H	 -0.581828	 -0.936217	 1.033088
H	 -1.516945	 0.016287	 -0.094561
C	 1.954651	 -0.143624	 0.035137
H	 0.475158	 1.060484	 -0.977307
H	 0.469181	 1.234488	 0.755973
H	 2.103292	 -0.853109	 -0.774172
H	 2.742821	 0.599562	 -0.030094
H	 2.083613	 -0.679371	 0.971560

	symmetry c1
}
set optking {
	frozen_dihedral = ("
		6 3 5 9
	")
}

ee = optimize('scf')
oeprop('DIPOLE', 'QUADRUPOLE', 'MULLIKEN_CHARGES')
f=open( 'psi4out.xyz', 'w' )
f.write( "13  " )
f.write( str(ee) + "\n" )
f.write( MOL.save_string_xyz() )
f.close()
--------------------------------------------------------------------------

    Molecular point group: c1
  Charge       = 0
  Multiplicity = 1
  Basis Set: 6-31G*
  Basis Set:
  @DF-RHF Final Energy:  -173.28107674392018
    Total Energy =                       -173.2810767439201527
    Molecular point group: c1
  Basis Set: 6-31G*
  Basis Set:
  Basis Set: 6-31G*
  Basis Set:
  @DF-RHF Final Energy:  -173.28142218098148
    Total Energy =                       -173.2814221809815081
  Basis Set: 6-31G*
  Basis Set:
  Basis Set: 6-31G*
  Basis Set:
  @DF-RHF Final Energy:  -173.28160378100065
    Total Energy =                       -173.2816037810006833
  Basis Set: 6-31G*
  Basis Set:
  Basis Set: 6-31G*
  Basis Set:
  @DF-RHF Final Energy:  -173.28160817814995
    Total Energy =                       -173.2816081781498667
  Basis Set: 6-31G*
  Basis Set:
  Charge       = 0
  Multiplicity = 1
  Basis Set: 6-31G*
  Basis Set:

    Orbital Energies (a.u.)
    -----------------------

    Doubly Occupied:

       1A    -15.533703     2A    -11.240766     3A    -11.212653
       4A    -11.198294     5A     -1.177823     6A     -1.028133
       7A     -0.902508     8A     -0.789968     9A     -0.664725
      10A     -0.624361    11A     -0.604092    12A     -0.557516
      13A     -0.529713    14A     -0.490689    15A     -0.471032
      16A     -0.465533    17A     -0.380722

  @DF-RHF Final Energy:  -173.28160833184714

   => Energetics <=

    Nuclear Repulsion Energy =            133.7959187189283341
    One-Electron Energy =                -498.4105933424768295
    Two-Electron Energy =                 191.3330662917013854
    DFT Exchange-Correlation Energy =       0.0000000000000000
    Empirical Dispersion Energy =           0.0000000000000000
    PCM Polarization Energy =               0.0000000000000000
    EFP Energy =                            0.0000000000000000
    Total Energy =                       -173.2816083318470817
    Molecular point group: c1
  Basis Set: 6-31G*
  Basis Set:

  -Total Gradient:
     Atom            X                  Y                   Z
    ------   -----------------  -----------------  -----------------
       1       -0.000003332381     0.000003090864    -0.000004393461
       2        0.000013195725    -0.000008482705     0.000008415235
       3        0.001695016197    -0.001977659771    -0.000738263856
       4       -0.000000490203     0.000002938463    -0.000000055967
       5        0.001486501442    -0.001833993239    -0.001378787744
       6       -0.001673136373     0.001975371240     0.000837503399
       7       -0.000002229056    -0.000009104546     0.000001144618
       8        0.000006618208     0.000004381881     0.000010257440
       9       -0.001534493580     0.001852706644     0.001273979171
      10        0.000000137647     0.000003613173    -0.000001191969
      11        0.000005641052    -0.000004651112    -0.000004991047
      12        0.000001034867    -0.000006226230     0.000000218141
      13        0.000005536455    -0.000001984662    -0.000003833960

  **** Optimization is complete! (in 5 steps) ****
    Final optimized geometry and variables:
    Molecular point group: c1

    Geometry (in Angstrom), charge = 0, multiplicity = 1:

    H           -1.517099324450    -1.819291204460    -0.563470524686
    N           -0.796078723601    -1.135161789510    -0.687066156340
    C           -0.938759278576    -0.057404704204     0.280171958843
    H           -0.888466094712    -0.781634287498    -1.620819781931
    C            0.204507249849     0.952032243877     0.183947263348
    H           -0.950276388064    -0.490643599634     1.275977311474
    H           -1.883066940652     0.482577592509     0.176365149722
    C            1.596906809070     0.335478448181     0.296242557774
    H            0.110807937159     1.513554151111    -0.744612602546
    H            0.066190813472     1.683742263453     0.977357310412
    H            1.782397541014    -0.368827540457    -0.504359637330
    H            2.362017801683     1.105415602912     0.260814689250
    H            1.707008598716    -0.199218723427     1.235588467660

  Mulliken Charges: (a.u.)
   Center  Symbol    Alpha    Beta     Spin     Total
       1     H     0.33164  0.33164  0.00000  0.33673
       2     N     3.91981  3.91981  0.00000 -0.83962
       3     C     3.06276  3.06276  0.00000 -0.12552
       4     H     0.33541  0.33541  0.00000  0.32918
       5     C     3.15672  3.15672  0.00000 -0.31345
       6     H     0.42108  0.42108  0.00000  0.15785
       7     H     0.43287  0.43287  0.00000  0.13426
       8     C     3.23395  3.23395  0.00000 -0.46790
       9     H     0.42643  0.42643  0.00000  0.14713
      10     H     0.42261  0.42261  0.00000  0.15477
      11     H     0.40866  0.40866  0.00000  0.18267
      12     H     0.42439  0.42439  0.00000  0.15122
      13     H     0.42367  0.42367  0.00000  0.15267

   Total alpha = 17.00000, Total beta = 17.00000, Total charge =  0.00000
