  ==> Input File <==

--------------------------------------------------------------------------
set {
	reference rhf
	basis 6-31G*
}

set_num_threads( 1 )
memory 2 gb

molecule MOL {
0 1

H	 2.418451	 0.533962	 1.169921
O	 1.558160	 0.130095	 1.229738
C	 1.050492	 0.053836	 0.000068
C	 -0.318135	 -0.576402	 0.000164
O	 1.640143	 0.447487	 -0.953005
C	 -1.454360	 0.441875	 -0.000474
H	 -0.374042	 -1.230163	 -0.866135
H	 -0.374274	 -1.229227	 0.867154
C	 -2.826123	 -0.230780	 0.000056
H	 -1.357605	 1.085198	 -0.868380
H	 -1.357504	 1.086451	 0.866496
H	 -2.959731	 -0.858053	 -0.876869
H	 -3.619374	 0.509403	 -0.000080
H	 -2.959371	 -0.857318	 0.877556

	symmetry c1
}
set optking {
	frozen_dihedral = ("
		7 4 6 10,
		1 2 3 5
	")
}

ee = energy('scf')
oeprop('DIPOLE', 'QUADRUPOLE', 'MULLIKEN_CHARGES')
f=open( 'psi4out.xyz', 'w' )
f.write( "14  " )
f.write( str(ee) + "\n" )
f.write( MOL.save_string_xyz() )
f.close()
--------------------------------------------------------------------------

    Molecular point group: c1

    Geometry (in Angstrom), charge = 0, multiplicity = 1:

       Center              X                  Y                   Z               Mass
    ------------   -----------------  -----------------  -----------------  -----------------
           H          2.442154995848     0.482476018856     1.106289543265     1.007825032070
           O          1.581863995848     0.078609018856     1.166106543265    15.994914619560
           C          1.074195995848     0.002350018856    -0.063563456735    12.000000000000
           C         -0.294431004152    -0.627887981144    -0.063467456735    12.000000000000
           O          1.663846995848     0.396001018856    -1.016636456735    15.994914619560
           C         -1.430656004152     0.390389018856    -0.064105456735    12.000000000000
           H         -0.350338004152    -1.281648981144    -0.929766456735     1.007825032070
           H         -0.350570004152    -1.280712981144     0.803522543265     1.007825032070
           C         -2.802419004152    -0.282265981144    -0.063575456735    12.000000000000
           H         -1.333901004152     1.033712018856    -0.932011456735     1.007825032070
           H         -1.333800004152     1.034965018856     0.802864543265     1.007825032070
           H         -2.936027004152    -0.909538981144    -0.940500456735     1.007825032070
           H         -3.595670004152     0.457917018856    -0.063711456735     1.007825032070
           H         -2.935667004152    -0.908803981144     0.813924543265     1.007825032070

  Charge       = 0
  Multiplicity = 1
  Basis Set: 6-31G*
  Basis Set:

    Orbital Energies (a.u.)
    -----------------------

    Doubly Occupied:

       1A    -20.613504     2A    -20.549880     3A    -11.380442
       4A    -11.239097     5A    -11.235924     6A    -11.221703
       7A     -1.474377     8A     -1.364786     9A     -1.087269
      10A     -0.980347    11A     -0.854948    12A     -0.806431
      13A     -0.702243    14A     -0.685126    15A     -0.641942
      16A     -0.634645    17A     -0.594737    18A     -0.569230
      19A     -0.549606    20A     -0.517648    21A     -0.500565
      22A     -0.488144    23A     -0.472068    24A     -0.438898

  @DF-RHF Final Energy:  -305.87837656967980

   => Energetics <=

    Nuclear Repulsion Energy =            239.9067336676349100
    One-Electron Energy =                -892.3630655472431954
    Two-Electron Energy =                 346.5779553099283703
    DFT Exchange-Correlation Energy =       0.0000000000000000
    Empirical Dispersion Energy =           0.0000000000000000
    PCM Polarization Energy =               0.0000000000000000
    EFP Energy =                            0.0000000000000000
    Total Energy =                       -305.8783765696799719

  Mulliken Charges: (a.u.)
   Center  Symbol    Alpha    Beta     Spin     Total
       1     H     0.26835  0.26835  0.00000  0.46329
       2     O     4.34694  4.34694  0.00000 -0.69387
       3     C     2.63304  2.63304  0.00000  0.73392
       4     C     3.19898  3.19898  0.00000 -0.39795
       5     O     4.27812  4.27812  0.00000 -0.55625
       6     C     3.16292  3.16292  0.00000 -0.32585
       7     H     0.39974  0.39974  0.00000  0.20052
       8     H     0.40183  0.40183  0.00000  0.19635
       9     C     3.24199  3.24199  0.00000 -0.48399
      10     H     0.40672  0.40672  0.00000  0.18657
      11     H     0.41132  0.41132  0.00000  0.17737
      12     H     0.41758  0.41758  0.00000  0.16483
      13     H     0.41418  0.41418  0.00000  0.17164
      14     H     0.41829  0.41829  0.00000  0.16341

   Total alpha = 24.00000, Total beta = 24.00000, Total charge = -0.00000
