  ==> Input File <==

--------------------------------------------------------------------------
set {
	reference rhf
	basis 6-31G*
}

set_num_threads( 4 )
memory 2 gb

molecule MOL {
0 1

H	 -2.418887	 -1.559835	 0.330951
O	 -2.310168	 -0.871793	 -0.309793
C	 -2.026376	 0.340750	 0.341611
C	 -0.673256	 0.843270	 -0.132153
H	 -2.792215	 1.080697	 0.115987
H	 -2.013526	 0.200402	 1.421792
C	 0.486613	 -0.083066	 0.235839
H	 -0.715586	 0.970948	 -1.210718
H	 -0.508072	 1.829858	 0.297090
C	 1.840406	 0.433480	 -0.254303
H	 0.300215	 -1.068318	 -0.178947
H	 0.519509	 -0.203625	 1.318070
C	 3.000220	 -0.489290	 0.118523
H	 1.809207	 0.553576	 -1.335192
H	 2.021860	 1.424500	 0.157276
H	 2.864959	 -1.479103	 -0.307933
H	 3.946603	 -0.099227	 -0.243630
H	 3.080049	 -0.602997	 1.196117

	symmetry c1
}
set optking {
	frozen_dihedral = ("
		1 2 3 4
	")
}

ee = optimize('scf')
oeprop('DIPOLE', 'QUADRUPOLE', 'MULLIKEN_CHARGES')
f=open( 'psi4out.xyz', 'w' )
f.write( "18  " )
f.write( str(ee) + "\n" )
f.write( MOL.save_string_xyz() )
f.close()
--------------------------------------------------------------------------

    Molecular point group: c1
  Charge       = 0
  Multiplicity = 1
  Basis Set: 6-31G*
  Basis Set:
  @DF-RHF Final Energy:  -271.17777026987687
    Total Energy =                       -271.1777702698765893
    Molecular point group: c1
  Basis Set: 6-31G*
  Basis Set:
  Basis Set: 6-31G*
  Basis Set:
  @DF-RHF Final Energy:  -271.17811884928096
    Total Energy =                       -271.1781188492811339
  Basis Set: 6-31G*
  Basis Set:
  Basis Set: 6-31G*
  Basis Set:
  @DF-RHF Final Energy:  -271.17823555520823
    Total Energy =                       -271.1782355552081754
  Basis Set: 6-31G*
  Basis Set:
  Charge       = 0
  Multiplicity = 1
  Basis Set: 6-31G*
  Basis Set:

    Orbital Energies (a.u.)
    -----------------------

    Doubly Occupied:

       1A    -20.551895     2A    -11.268334     3A    -11.213814
       4A    -11.211834     5A    -11.211073     6A    -11.207461
       7A     -1.358067     8A     -1.077252     9A     -1.010027
      10A     -0.916499    11A     -0.821963    12A     -0.786322
      13A     -0.704590    14A     -0.637579    15A     -0.627174
      16A     -0.583087    17A     -0.572467    18A     -0.565731
      19A     -0.523237    20A     -0.500859    21A     -0.479718
      22A     -0.476543    23A     -0.462859    24A     -0.459819
      25A     -0.421524

  @DF-RHF Final Energy:  -271.17823470102269

   => Energetics <=

    Nuclear Repulsion Energy =            248.7883429016583534
    One-Electron Energy =                -860.6337005009243057
    Two-Electron Energy =                 340.6671228982431785
    DFT Exchange-Correlation Energy =       0.0000000000000000
    Empirical Dispersion Energy =           0.0000000000000000
    PCM Polarization Energy =               0.0000000000000000
    EFP Energy =                            0.0000000000000000
    Total Energy =                       -271.1782347010228023
    Molecular point group: c1
  Basis Set: 6-31G*
  Basis Set:

  -Total Gradient:
     Atom            X                  Y                   Z
    ------   -----------------  -----------------  -----------------
       1       -0.000013538949     0.000041167931    -0.000027497806
       2       -0.000017700875     0.000049638762     0.000036448104
       3        0.000045763927    -0.000023493492     0.000133347114
       4        0.000019824855    -0.000011649887    -0.000109820398
       5        0.000019978793    -0.000003846170     0.000004141315
       6       -0.000032771431    -0.000033418694     0.000004374438
       7       -0.000012238956    -0.000009213807     0.000022338286
       8       -0.000001171199    -0.000024443637    -0.000029072436
       9       -0.000022281078    -0.000050030090    -0.000034190058
      10        0.000032997326     0.000032909279     0.000046920039
      11        0.000000532382     0.000033528321    -0.000076121009
      12       -0.000018167672    -0.000018026649    -0.000008060841
      13        0.000002851952     0.000019374209     0.000022349192
      14       -0.000014198248    -0.000032617048     0.000027205618
      15        0.000013392147     0.000028107074    -0.000011228964
      16       -0.000007608670     0.000000820497    -0.000001665730
      17       -0.000003043118     0.000000919893    -0.000001594721
      18        0.000007378816     0.000000273506     0.000002127857

  **** Optimization is complete! (in 4 steps) ****
    Final optimized geometry and variables:
    Molecular point group: c1

    Geometry (in Angstrom), charge = 0, multiplicity = 1:

    H           -2.477896248398    -1.558950305381     0.327136803381
    O           -2.364365892128    -0.868013629520    -0.306423544503
    C           -2.025130096395     0.338250115770     0.338705248347
    C           -0.672707322393     0.845155933984    -0.140169787085
    H           -2.793689353082     1.071313998392     0.114991668231
    H           -2.011889009414     0.205028103503     1.418199693574
    C            0.489945250444    -0.076769563926     0.227068977170
    H           -0.717119248166     0.967387938241    -1.219389436422
    H           -0.508387592379     1.835042172279     0.282802071961
    C            1.845230883839     0.440903052951    -0.257766593631
    H            0.307568094382    -1.060828515829    -0.195012228006
    H            0.522561188010    -0.202418576245     1.309420812026
    C            3.004627782059    -0.482194252916     0.115304488555
    H            1.815822331998     0.563878962280    -1.338125051521
    H            2.024480165516     1.430739322855     0.157173296776
    H            2.870899993425    -1.471326480587    -0.313486349544
    H            3.951221656855    -0.090986551281    -0.244688466510
    H            3.083188032954    -0.597757673524     1.192813947045

  Mulliken Charges: (a.u.)
   Center  Symbol    Alpha    Beta     Spin     Total
       1     H     0.27909  0.27909  0.00000  0.44181
       2     O     4.37210  4.37210  0.00000 -0.74419
       3     C     2.99985  2.99985  0.00000  0.00030
       4     C     3.15691  3.15691  0.00000 -0.31383
       5     H     0.42029  0.42029  0.00000  0.15941
       6     H     0.43221  0.43221  0.00000  0.13559
       7     C     3.15559  3.15559  0.00000 -0.31118
       8     H     0.41496  0.41496  0.00000  0.17008
       9     H     0.42576  0.42576  0.00000  0.14847
      10     C     3.15109  3.15109  0.00000 -0.30219
      11     H     0.41438  0.41438  0.00000  0.17124
      12     H     0.42926  0.42926  0.00000  0.14148
      13     C     3.23916  3.23916  0.00000 -0.47833
      14     H     0.42148  0.42148  0.00000  0.15704
      15     H     0.42423  0.42423  0.00000  0.15155
      16     H     0.42132  0.42132  0.00000  0.15737
      17     H     0.41949  0.41949  0.00000  0.16102
      18     H     0.42281  0.42281  0.00000  0.15437

   Total alpha = 25.00000, Total beta = 25.00000, Total charge =  0.00000
