  ==> Input File <==

--------------------------------------------------------------------------
set {
	reference rhf
	basis 6-31G*
}

set_num_threads( 4 )
memory 2 gb

molecule MOL {
0 1

H	 -2.568052	 0.610902	 0.490183
O	 -2.315789	 -0.143634	 -0.024262
C	 -0.945151	 -0.064130	 -0.333158
H	 -0.813375	 -0.223047	 -1.403232
C	 -0.232801	 -1.184051	 0.407206
C	 -0.355424	 1.302939	 0.054523
H	 -0.318824	 -0.992899	 1.473524
H	 -0.742411	 -2.122033	 0.217954
C	 1.248522	 -1.270719	 -0.013048
H	 -0.546144	 2.018388	 -0.742941
H	 -0.890929	 1.656788	 0.930149
C	 1.156425	 1.235120	 0.355905
H	 1.825384	 -1.683246	 0.809111
H	 1.357782	 -1.965923	 -0.840362
C	 1.828244	 0.099899	 -0.419275
H	 1.626109	 2.185622	 0.123525
H	 1.309438	 1.071213	 1.419539
H	 2.901447	 0.112642	 -0.255830
H	 1.681817	 0.263413	 -1.484607

	symmetry c1
}
set optking {
	frozen_dihedral = ("
		1 2 3 4
	")
}

ee = optimize('scf')
oeprop('DIPOLE', 'QUADRUPOLE', 'MULLIKEN_CHARGES')
f=open( 'psi4out.xyz', 'w' )
f.write( "19  " )
f.write( str(ee) + "\n" )
f.write( MOL.save_string_xyz() )
f.close()
--------------------------------------------------------------------------

    Molecular point group: c1
  Charge       = 0
  Multiplicity = 1
  Basis Set: 6-31G*
  Basis Set:
  @DF-RHF Final Energy:  -309.04533230451301
    Total Energy =                       -309.0453323045134084
    Molecular point group: c1
  Basis Set: 6-31G*
  Basis Set:
  Basis Set: 6-31G*
  Basis Set:
  @DF-RHF Final Energy:  -309.04608961196766
    Total Energy =                       -309.0460896119677159
  Basis Set: 6-31G*
  Basis Set:
  Basis Set: 6-31G*
  Basis Set:
  @DF-RHF Final Energy:  -309.04625812466821
    Total Energy =                       -309.0462581246680429
  Basis Set: 6-31G*
  Basis Set:
  Basis Set: 6-31G*
  Basis Set:
  @DF-RHF Final Energy:  -309.04626286410223
    Total Energy =                       -309.0462628641020046
  Basis Set: 6-31G*
  Basis Set:
  Charge       = 0
  Multiplicity = 1
  Basis Set: 6-31G*
  Basis Set:

    Orbital Energies (a.u.)
    -----------------------

    Doubly Occupied:

       1A    -20.547329     2A    -11.268826     3A    -11.222649
       4A    -11.221387     5A    -11.217869     6A    -11.216009
       7A    -11.207907     8A     -1.356902     9A     -1.110764
      10A     -1.005073    11A     -0.989201    12A     -0.846183
      13A     -0.841679    14A     -0.747286    15A     -0.674007
      16A     -0.666974    17A     -0.617121    18A     -0.605658
      19A     -0.580837    20A     -0.553544    21A     -0.529405
      22A     -0.521765    23A     -0.502647    24A     -0.486819
      25A     -0.468516    26A     -0.450364    27A     -0.428323
      28A     -0.409189

  @DF-RHF Final Energy:  -309.04626363408994

   => Energetics <=

    Nuclear Repulsion Energy =            331.2558726636084998
    One-Electron Energy =               -1076.0157999331872816
    Two-Electron Energy =                 435.7136636354886718
    DFT Exchange-Correlation Energy =       0.0000000000000000
    Empirical Dispersion Energy =           0.0000000000000000
    PCM Polarization Energy =               0.0000000000000000
    EFP Energy =                            0.0000000000000000
    Total Energy =                       -309.0462636340901668
    Molecular point group: c1
  Basis Set: 6-31G*
  Basis Set:

  -Total Gradient:
     Atom            X                  Y                   Z
    ------   -----------------  -----------------  -----------------
       1       -0.000120921325     0.000451552780    -0.000716868080
       2        0.000169290345    -0.000420459518     0.000872178153
       3        0.000017351569    -0.000789835998    -0.000019373998
       4       -0.000031389979     0.000712442116    -0.000106353765
       5       -0.000048420973     0.000018905950    -0.000031416860
       6        0.000024732840    -0.000005863804    -0.000000616550
       7        0.000005294079    -0.000009707447    -0.000005935995
       8        0.000013831942    -0.000011999457     0.000006317578
       9       -0.000015914033    -0.000005488298     0.000043676929
      10        0.000006420690     0.000018803968    -0.000010731934
      11        0.000006203244     0.000012206762    -0.000002066300
      12       -0.000010910542     0.000013136566    -0.000003546484
      13        0.000015250311    -0.000016291001    -0.000003612595
      14       -0.000012583145     0.000004805635    -0.000003150517
      15       -0.000008315076     0.000029820783    -0.000034461380
      16       -0.000004714163     0.000011312149     0.000014346007
      17       -0.000004334946    -0.000000531702     0.000005239038
      18       -0.000014560369    -0.000012615126     0.000004536871
      19        0.000013689538    -0.000000194357    -0.000008160117

  **** Optimization is complete! (in 5 steps) ****
    Final optimized geometry and variables:
    Molecular point group: c1

    Geometry (in Angstrom), charge = 0, multiplicity = 1:

    H           -2.620621214567     0.611740180701     0.415738143563
    O           -2.334671960907    -0.129565849818    -0.096407464669
    C           -0.944833689514    -0.065609558005    -0.320535120408
    H           -0.804373598783    -0.209765832140    -1.387736282045
    C           -0.227512746594    -1.188960394475     0.416614766079
    C           -0.356104633468     1.298810855765     0.071851987584
    H           -0.306582629931    -1.004752018722     1.485950246009
    H           -0.738830356734    -2.125941626893     0.226624266740
    C            1.252236256114    -1.275073764927    -0.011550998738
    H           -0.572877342472     2.020752108899    -0.710361057947
    H           -0.861627884664     1.651625513094     0.969924263832
    C            1.161330734090     1.232358142528     0.346681634227
    H            1.838100381654    -1.678195117458     0.809003061626
    H            1.358475958297    -1.975669999241    -0.834500564711
    C            1.822902364164     0.094699550284    -0.433644050647
    H            1.624412868602     2.182951795538     0.102399346723
    H            1.333048779549     1.072907026250     1.408067136530
    H            2.898018525685     0.111758169720    -0.284310596354
    H            1.661884973328     0.253161280610    -1.497292368905

  Mulliken Charges: (a.u.)
   Center  Symbol    Alpha    Beta     Spin     Total
       1     H     0.28052  0.28052  0.00000  0.43896
       2     O     4.38576  4.38576  0.00000 -0.77151
       3     C     2.89517  2.89517  0.00000  0.20966
       4     H     0.42185  0.42185  0.00000  0.15630
       5     C     3.16808  3.16808  0.00000 -0.33616
       6     C     3.18200  3.18200  0.00000 -0.36400
       7     H     0.42379  0.42379  0.00000  0.15241
       8     H     0.40885  0.40885  0.00000  0.18230
       9     C     3.16146  3.16146  0.00000 -0.32292
      10     H     0.41338  0.41338  0.00000  0.17324
      11     H     0.42601  0.42601  0.00000  0.14797
      12     C     3.16242  3.16242  0.00000 -0.32483
      13     H     0.41818  0.41818  0.00000  0.16364
      14     H     0.41745  0.41745  0.00000  0.16511
      15     C     3.16464  3.16464  0.00000 -0.32929
      16     H     0.41546  0.41546  0.00000  0.16908
      17     H     0.41877  0.41877  0.00000  0.16246
      18     H     0.41604  0.41604  0.00000  0.16793
      19     H     0.42018  0.42018  0.00000  0.15964

   Total alpha = 28.00000, Total beta = 28.00000, Total charge = -0.00000
