                              Psi4 1.0.54 Driver

  ==> Input File <==

--------------------------------------------------------------------------
set {
	reference rhf
	basis cc-pvtz
}

set_num_threads( 4 )
memory 2 gb

molecule MOL {
0 1

H	 2.614283	 2.028610	 0.296620
O	 3.358864	 1.662087	 -0.142800
C	 3.565468	 0.338079	 0.273842
C	 5.032856	 -0.015916	 0.463961
H	 3.044606	 0.240465	 1.216792
H	 3.101169	 -0.356147	 -0.423960
C	 5.854329	 0.002330	 -0.823167
H	 5.464234	 0.674008	 1.183041
H	 5.082544	 -1.007114	 0.908321
C	 7.313944	 -0.389922	 -0.598448
H	 5.810050	 0.993161	 -1.262821
H	 5.408607	 -0.680437	 -1.544588
C	 8.166852	 -0.460263	 -1.866460
H	 7.767557	 0.308305	 0.100795
H	 7.339235	 -1.361859	 -0.113506
C	 8.408752	 0.880167	 -2.558178
H	 9.128872	 -0.893274	 -1.606563
H	 7.706589	 -1.150174	 -2.570261
C	 9.344999	 0.772233	 -3.759095
H	 8.827392	 1.582657	 -1.840739
H	 7.465817	 1.306619	 -2.886833
C	 9.585700	 2.108128	 -4.454322
H	 10.296255	 0.358165	 -3.436237
H	 8.932355	 0.064339	 -4.473009
H	 10.028263	 2.828863	 -3.774677
H	 10.255564	 1.996467	 -5.299261
H	 8.656869	 2.530968	 -4.822875

	symmetry c1
}
set optking {
	frozen_dihedral = ("
		4 3 2 1
	")
}

ee,wfn = optimize('scf', return_wfn=True)
oeprop( wfn, 'DIPOLE', 'QUADRUPOLE', 'MULLIKEN_CHARGES')
f=open( 'psi4out.xyz', 'w' )
f.write( "27  " )
f.write( str(ee) + "\n" )
f.write( MOL.save_string_xyz() )
f.close()
--------------------------------------------------------------------------

    Molecular point group: c1
  Charge       = 0
  Multiplicity = 1
  Basis Set: CC-PVTZ
  Basis Set:
  @DF-RHF Final Energy:  -388.42571673876915
    Total Energy =                       -388.4257167387697791
    Molecular point group: c1
  Basis Set: CC-PVTZ
  Basis Set:
  Basis Set: CC-PVTZ
  Basis Set:
  @DF-RHF Final Energy:  -388.31994854387892
    Total Energy =                       -388.3199485438788088
  Basis Set: CC-PVTZ
  Basis Set:
  Basis Set: CC-PVTZ
  Basis Set:
  @DF-RHF Final Energy:  -388.40695857381030
    Total Energy =                       -388.4069585738102433
  Basis Set: CC-PVTZ
  Basis Set:
  Basis Set: CC-PVTZ
  Basis Set:
  @DF-RHF Final Energy:  -388.42675576424250
    Total Energy =                       -388.4267557642424435
  Basis Set: CC-PVTZ
  Basis Set:
  @DF-RHF Final Energy:  -388.42717106493131
    Total Energy =                       -388.4271710649315992
  Basis Set: CC-PVTZ
  Basis Set:
  @DF-RHF Final Energy:  -388.42723086020959
    Total Energy =                       -388.4272308602098747
  Basis Set: CC-PVTZ
  Basis Set:
  Basis Set: CC-PVTZ
  Basis Set:
  @DF-RHF Final Energy:  -388.42722367479320
    Total Energy =                       -388.4272236747929128
  Basis Set: CC-PVTZ
  Basis Set:
  Basis Set: CC-PVTZ
  Basis Set:
  @DF-RHF Final Energy:  -388.42724079199809
    Total Energy =                       -388.4272407919978605
  Basis Set: CC-PVTZ
  Basis Set:
  Charge       = 0
  Multiplicity = 1
  Basis Set: CC-PVTZ
  Basis Set:

    Orbital Energies (a.u.)
    -----------------------

    Doubly Occupied:

       1A    -20.545340     2A    -11.266078     3A    -11.209885
       4A    -11.208173     5A    -11.206877     6A    -11.206198
       7A    -11.204573     8A    -11.203749     9A    -11.202177
      10A     -1.362922    11A     -1.088962    12A     -1.057152
      13A     -1.008579    14A     -0.943572    15A     -0.880099
      16A     -0.812100    17A     -0.795409    18A     -0.771509
      19A     -0.704568    20A     -0.647167    21A     -0.640591
      22A     -0.611044    23A     -0.588282    24A     -0.582867
      25A     -0.569462    26A     -0.545598    27A     -0.538658
      28A     -0.521564    29A     -0.504697    30A     -0.497158
      31A     -0.476060    32A     -0.469774    33A     -0.460427
      34A     -0.453879    35A     -0.443599    36A     -0.432359
      37A     -0.429355

  @DF-RHF Final Energy:  -388.42724095240567

   => Energetics <=

    Nuclear Repulsion Energy =            460.5061122936087941
    One-Electron Energy =               -1439.6857713547428830
    Two-Electron Energy =                 590.7524181087286479
    DFT Exchange-Correlation Energy =       0.0000000000000000
    Empirical Dispersion Energy =           0.0000000000000000
    PCM Polarization Energy =               0.0000000000000000
    EFP Energy =                            0.0000000000000000
    Total Energy =                       -388.4272409524054410
    Molecular point group: c1
  Basis Set: CC-PVTZ
  Basis Set:

  -Total Gradient:
     Atom            X                  Y                   Z
    ------   -----------------  -----------------  -----------------
       1        0.000636815309     0.000836679205     0.000879051813
       2       -0.000845976535    -0.000915592081    -0.000784023214
       3        0.000293313701    -0.000200931273    -0.000896611332
       4       -0.000084265149     0.000281259703     0.000791250494
       5       -0.000014098309     0.000009836779    -0.000003623020
       6       -0.000007469722    -0.000021539825     0.000020331847
       7        0.000015000325    -0.000026650815     0.000020323707
       8       -0.000001798269    -0.000003832858    -0.000001765582
       9        0.000012114939    -0.000000802963    -0.000011748689
      10       -0.000006696789     0.000039629448     0.000005943259
      11        0.000008419323    -0.000007186284     0.000015399469
      12       -0.000007982752    -0.000005896069     0.000000054334
      13       -0.000007579104    -0.000006298111    -0.000019879672
      14        0.000005929859     0.000007866435     0.000007023007
      15       -0.000019938599     0.000004410342    -0.000010294898
      16        0.000019175083     0.000009209117     0.000017022333
      17       -0.000011100503     0.000006036996    -0.000006350376
      18       -0.000002482707    -0.000006576173    -0.000003692298
      19       -0.000008781199    -0.000003404137    -0.000020269892
      20       -0.000004111787     0.000009637309     0.000006256880
      21        0.000032795319    -0.000006555518    -0.000007519830
      22        0.000002092789    -0.000000267027     0.000004939750
      23       -0.000016319591     0.000006041855     0.000000641520
      24        0.000002228713    -0.000005464635    -0.000003626982
      25        0.000003413280     0.000000794108    -0.000005202032
      26        0.000002123636     0.000005931407     0.000003108634
      27        0.000005178742    -0.000006334931     0.000003260773

  **** Optimization is complete! (in 9 steps) ****
    Final optimized geometry and variables:
    Molecular point group: c1

    Geometry (in Angstrom), charge = 0, multiplicity = 1:

    H           -4.070528897625    -0.051765227467     1.992167524512
    O           -3.263075506536    -0.201771934619     1.539739971825
    C           -2.592914859926    -1.312164022782     2.085477775013
    C           -1.101726877761    -1.039455888581     2.158358368636
    H           -2.967386441000    -1.526948665902     3.081827566778
    H           -2.783734739760    -2.188484970564     1.471014177385
    C           -0.455630080133    -0.806746428975     0.795050669427
    H           -0.940844154945    -0.173220215817     2.793285561225
    H           -0.626638456435    -1.885432763213     2.649411379313
    C            1.038752807376    -0.506839323303     0.895555765596
    H           -0.970985518600     0.005966389609     0.300044132685
    H           -0.602377801338    -1.689946910894     0.176431024734
    C            1.755452315946    -0.351097549483    -0.447064481627
    H            1.184421656056     0.395395071028     1.485237633944
    H            1.519075206651    -1.309488360348     1.449293148247
    C            1.337910732641     0.871233054448    -1.262479830751
    H            2.824503800022    -0.293536169357    -0.260504045295
    H            1.601223043844    -1.248986329823    -1.041318014376
    C            2.140563624541     1.032792742850    -2.550805675879
    H            1.456728237595     1.764728974624    -0.653267302360
    H            0.283168698115     0.810783057467    -1.511043473113
    C            1.724498730097     2.251267435053    -3.368173210654
    H            3.197507690429     1.105724042625    -2.309133556778
    H            2.028836274102     0.137981650301    -3.157348214467
    H            1.855911222249     3.166583628633    -2.800514268181
    H            2.313577525111     2.337221865862    -4.274231261695
    H            0.680463518739     2.190761610226    -3.657015005637

  Mulliken Charges: (a.u.)
   Center  Symbol    Alpha    Beta     Spin     Total
       1     H     0.39309  0.39309  0.00000  0.21382
       2     O     4.20180  4.20180  0.00000 -0.40361
       3     C     2.97476  2.97476  0.00000  0.05048
       4     C     3.08566  3.08566  0.00000 -0.17132
       5     H     0.46599  0.46599  0.00000  0.06801
       6     H     0.47137  0.47137  0.00000  0.05727
       7     C     3.09485  3.09485  0.00000 -0.18970
       8     H     0.45570  0.45570  0.00000  0.08860
       9     H     0.45537  0.45537  0.00000  0.08927
      10     C     3.09858  3.09858  0.00000 -0.19717
      11     H     0.44117  0.44117  0.00000  0.11767
      12     H     0.45765  0.45765  0.00000  0.08469
      13     C     3.09753  3.09753  0.00000 -0.19506
      14     H     0.45366  0.45366  0.00000  0.09269
      15     H     0.45031  0.45031  0.00000  0.09938
      16     C     3.08791  3.08791  0.00000 -0.17582
      17     H     0.44949  0.44949  0.00000  0.10103
      18     H     0.45455  0.45455  0.00000  0.09090
      19     C     3.08378  3.08378  0.00000 -0.16756
      20     H     0.45559  0.45559  0.00000  0.08881
      21     H     0.45162  0.45162  0.00000  0.09676
      22     C     3.14972  3.14972  0.00000 -0.29945
      23     H     0.45490  0.45490  0.00000  0.09019
      24     H     0.45516  0.45516  0.00000  0.08967
      25     H     0.45551  0.45551  0.00000  0.08897
      26     H     0.44926  0.44926  0.00000  0.10147
      27     H     0.45500  0.45500  0.00000  0.09000

   Total alpha = 37.00000, Total beta = 37.00000, Total charge = -0.00000

*** Psi4 exiting successfully. Buy a developer a beer!
