  ==> Input File <==

--------------------------------------------------------------------------
set {
	reference rhf
	basis 6-31G*
}

set_num_threads( 4 )
memory 2 gb

molecule MOL {
0 1

H	 -1.553274	 -1.526099	 -3.036047
C	 -2.270558	 -1.186721	 -2.278453
C	 -2.015582	 -1.700160	 -0.884187
O	 -3.166434	 -0.468365	 -2.583610
C	 -0.576540	 -1.442637	 -0.416112
H	 -2.739091	 -1.248262	 -0.215583
H	 -2.200360	 -2.773597	 -0.899874
C	 -0.252658	 0.041456	 -0.226725
H	 -0.420507	 -1.968388	 0.521185
H	 0.119364	 -1.882217	 -1.129025
C	 1.180775	 0.282413	 0.250794
H	 -0.950911	 0.469518	 0.489552
H	 -0.414096	 0.576542	 -1.160621
C	 2.148627	 -0.814315	 -0.201312
H	 1.516199	 1.249228	 -0.115937
H	 1.192670	 0.346017	 1.338083
C	 3.580890	 -0.659131	 0.322722
H	 2.166869	 -0.852443	 -1.289387
H	 1.762857	 -1.776509	 0.128956
C	 4.324889	 0.564933	 -0.213704
H	 4.142010	 -1.551473	 0.056605
H	 3.564836	 -0.624694	 1.410140
H	 4.342616	 0.565491	 -1.300421
H	 3.866655	 1.493402	 0.110242
H	 5.353900	 0.572371	 0.132816

	symmetry c1
}
set optking {
	frozen_dihedral = ("
		12 8 11 14
	")
}

ee = optimize('scf')
oeprop('DIPOLE', 'QUADRUPOLE', 'MULLIKEN_CHARGES')
f=open( 'psi4out.xyz', 'w' )
f.write( "25  " )
f.write( str(ee) + "\n" )
f.write( MOL.save_string_xyz() )
f.close()
--------------------------------------------------------------------------

    Molecular point group: c1
  Charge       = 0
  Multiplicity = 1
  Basis Set: 6-31G*
  Basis Set:
  @DF-RHF Final Energy:  -387.11200977872960
    Total Energy =                       -387.1120097787293162
    Molecular point group: c1
  Basis Set: 6-31G*
  Basis Set:
  Basis Set: 6-31G*
  Basis Set:
  @DF-RHF Final Energy:  -387.11233098682015
    Total Energy =                       -387.1123309868205524
  Basis Set: 6-31G*
  Basis Set:
  Basis Set: 6-31G*
  Basis Set:
  @DF-RHF Final Energy:  -387.11508746073753
    Total Energy =                       -387.1150874607372998
  Basis Set: 6-31G*
  Basis Set:
  Basis Set: 6-31G*
  Basis Set:
  @DF-RHF Final Energy:  -387.11542529742530
    Total Energy =                       -387.1154252974262135
  Basis Set: 6-31G*
  Basis Set:
  @DF-RHF Final Energy:  -387.11532731405305
    Total Energy =                       -387.1153273140535021
  @DF-RHF Final Energy:  -387.11549911808737
    Total Energy =                       -387.1154991180881098
  @DF-RHF Final Energy:  -387.11551518259353
    Total Energy =                       -387.1155151825931853
  Basis Set: 6-31G*
  Basis Set:
  @DF-RHF Final Energy:  -387.11545083546969
    Total Energy =                       -387.1154508354695736
  Basis Set: 6-31G*
  Basis Set:
  Basis Set: 6-31G*
  Basis Set:
  @DF-RHF Final Energy:  -387.11552613823386
    Total Energy =                       -387.1155261382339177
  Basis Set: 6-31G*
  Basis Set:
  Basis Set: 6-31G*
  Basis Set:
  @DF-RHF Final Energy:  -387.11552454992199
    Total Energy =                       -387.1155245499219291
  Basis Set: 6-31G*
  Basis Set:
  Charge       = 0
  Multiplicity = 1
  Basis Set: 6-31G*
  Basis Set:

    Orbital Energies (a.u.)
    -----------------------

    Doubly Occupied:

       1A    -20.561752     2A    -11.325983     3A    -11.234722
       4A    -11.234126     5A    -11.224882     6A    -11.220470
       7A    -11.219644     8A    -11.218982     9A    -11.211307
      10A     -1.401710    11A     -1.103329    12A     -1.068853
      13A     -1.011232    14A     -0.940373    15A     -0.884808
      16A     -0.823126    17A     -0.793565    18A     -0.767613
      19A     -0.664793    20A     -0.655640    21A     -0.634073
      22A     -0.628707    23A     -0.608262    24A     -0.588449
      25A     -0.575468    26A     -0.555344    27A     -0.538057
      28A     -0.523896    29A     -0.516843    30A     -0.499274
      31A     -0.484157    32A     -0.478882    33A     -0.457526
      34A     -0.452075    35A     -0.448172    36A     -0.408897

  @DF-RHF Final Energy:  -387.11552544535556

   => Energetics <=

    Nuclear Repulsion Energy =            444.0468520896429823
    One-Electron Energy =               -1404.3947772785845700
    Two-Electron Energy =                 573.2323997435853471
    DFT Exchange-Correlation Energy =       0.0000000000000000
    Empirical Dispersion Energy =           0.0000000000000000
    PCM Polarization Energy =               0.0000000000000000
    EFP Energy =                            0.0000000000000000
    Total Energy =                       -387.1155254453562975
    Molecular point group: c1
  Basis Set: 6-31G*
  Basis Set:

  -Total Gradient:
     Atom            X                  Y                   Z
    ------   -----------------  -----------------  -----------------
       1       -0.000004114209    -0.000003343868     0.000006057995
       2       -0.000005477701     0.000006602508     0.000000310866
       3        0.000005606032    -0.000010246801    -0.000028165979
       4        0.000002304173     0.000002099392     0.000002464206
       5        0.000041271781    -0.000016335203     0.000084226445
       6        0.000007182249    -0.000006530789     0.000006812680
       7        0.000006654571     0.000013777149    -0.000025989602
       8       -0.000111873403     0.005530313148    -0.001946523484
       9        0.000025633123    -0.000010094245     0.000014972344
      10       -0.000000092745    -0.000008343597    -0.000016700236
      11        0.001354723821     0.002313729995    -0.004763107456
      12       -0.000241967495    -0.005385110714     0.002926745781
      13       -0.000010345648     0.000030416793     0.000010434787
      14       -0.001023045709    -0.002447787366     0.003715810048
      15       -0.000064083214    -0.000051610255    -0.000003775327
      16       -0.000013464399     0.000049601577     0.000027224198
      17       -0.000020429501     0.000031759296     0.000010312481
      18        0.000018776009    -0.000001845249    -0.000016482054
      19       -0.000006728303    -0.000009697677    -0.000003949266
      20        0.000020964311    -0.000016394108    -0.000013229242
      21        0.000010528183    -0.000000468157     0.000020441195
      22       -0.000032600580     0.000014009965    -0.000003097415
      23       -0.000028127188     0.000009554992    -0.000001303376
      24        0.000056060515    -0.000015566455     0.000015430935
      25        0.000012645327    -0.000018490329    -0.000018920526

  **** Optimization is complete! (in 11 steps) ****
    Final optimized geometry and variables:
    Molecular point group: c1

    Geometry (in Angstrom), charge = 0, multiplicity = 1:

    H           -2.044062913672    -0.910576607938    -2.357294115012
    C           -2.706820872942    -0.530702432610    -1.569693183685
    C           -2.437107323064    -1.078193195951    -0.191112743888
    O           -3.564662593215     0.247358483118    -1.835429553336
    C           -0.965408422937    -0.934428481819     0.223394493750
    H           -3.100731046899    -0.583639578836     0.508785164969
    H           -2.700782039951    -2.134964075217    -0.210904897519
    C           -0.546218560444     0.530208329943     0.411340758145
    H           -0.818202944117    -1.479700423469     1.151151287607
    H           -0.339441699573    -1.421733862780    -0.519162928081
    C            0.886944840615     0.753059305216     0.943166529374
    H           -1.242731455655     0.954694982794     1.129168180919
    H           -0.681829070723     1.066289491031    -0.524260474885
    C            1.932720417013    -0.295413760623     0.546258929714
    H            1.212750537449     1.740757983736     0.634955535611
    H            0.850180355260     0.778267637465     2.030850246041
    C            3.337711522206    -0.004538511659     1.089145215231
    H            1.984654901710    -0.381447620398    -0.538634899638
    H            1.622468688072    -1.268019536405     0.915198223673
    C            4.022912158972     1.215376791160     0.470465870800
    H            3.960250525859    -0.878077137344     0.911953317811
    H            3.287592936946     0.116822984004     2.169408199717
    H            4.073728424476     1.126684036663    -0.611401314830
    H            3.502813680867     2.138491839274     0.702748199723
    H            5.038722257136     1.313864919798     0.840614051706

  Mulliken Charges: (a.u.)
   Center  Symbol    Alpha    Beta     Spin     Total
       1     H     0.43274  0.43274  0.00000  0.13452
       2     C     2.83089  2.83089  0.00000  0.33823
       3     C     3.20803  3.20803  0.00000 -0.41607
       4     O     4.23787  4.23787  0.00000 -0.47575
       5     C     3.17058  3.17058  0.00000 -0.34116
       6     H     0.40008  0.40008  0.00000  0.19984
       7     H     0.40649  0.40649  0.00000  0.18702
       8     C     3.15579  3.15579  0.00000 -0.31159
       9     H     0.41323  0.41323  0.00000  0.17355
      10     H     0.41691  0.41691  0.00000  0.16617
      11     C     3.15625  3.15625  0.00000 -0.31251
      12     H     0.41625  0.41625  0.00000  0.16750
      13     H     0.41731  0.41731  0.00000  0.16538
      14     C     3.15690  3.15690  0.00000 -0.31379
      15     H     0.41595  0.41595  0.00000  0.16809
      16     H     0.42237  0.42237  0.00000  0.15525
      17     C     3.15270  3.15270  0.00000 -0.30541
      18     H     0.42492  0.42492  0.00000  0.15015
      19     H     0.42010  0.42010  0.00000  0.15980
      20     C     3.24127  3.24127  0.00000 -0.48254
      21     H     0.42043  0.42043  0.00000  0.15915
      22     H     0.42284  0.42284  0.00000  0.15432
      23     H     0.42188  0.42188  0.00000  0.15623
      24     H     0.41972  0.41972  0.00000  0.16056
      25     H     0.41847  0.41847  0.00000  0.16306

   Total alpha = 36.00000, Total beta = 36.00000, Total charge = -0.00000
