  ==> Input File <==

--------------------------------------------------------------------------
set {
	reference rhf
	basis 6-31G*
}

set_num_threads( 1 )
memory 2 gb

molecule MOL {
0 1

H	 2.870979	 -2.852164	 -3.110947
C	 2.838292	 -1.767376	 -3.084705
C	 1.568660	 -1.269541	 -2.395233
H	 3.725740	 -1.422281	 -2.562510
H	 2.896510	 -1.409738	 -4.109159
C	 1.487416	 0.257843	 -2.347142
H	 1.530218	 -1.665814	 -1.385733
H	 0.698004	 -1.659708	 -2.920039
C	 0.218090	 0.786063	 -1.678517
H	 2.351363	 0.651701	 -1.823582
H	 1.526877	 0.647821	 -3.361736
C	 0.169600	 0.576866	 -0.172154
H	 0.134193	 1.858885	 -1.845204
H	 -0.669725	 0.348358	 -2.129490
C	 -1.181045	 0.701995	 0.511084
O	 1.155796	 0.340983	 0.458863
C	 -2.285934	 -0.139295	 -0.145128
H	 -1.449051	 1.751551	 0.493206
H	 -1.071135	 0.403303	 1.551943
C	 -3.651768	 0.085446	 0.506485
H	 -2.346596	 0.110469	 -1.202272
H	 -2.034737	 -1.195320	 -0.088721
C	 -4.759797	 -0.746382	 -0.137905
H	 -3.908762	 1.140117	 0.445781
H	 -3.588286	 -0.154158	 1.565709
H	 -4.868882	 -0.505166	 -1.191300
H	 -4.548009	 -1.809175	 -0.062213
H	 -5.715422	 -0.564821	 0.343442

	symmetry c1
}
set optking {
	frozen_dihedral = ("
		10 6 3 2,
		12 15 17 21
	")
}

ee = energy('scf')
oeprop('DIPOLE', 'QUADRUPOLE', 'MULLIKEN_CHARGES')
f=open( 'psi4out.xyz', 'w' )
f.write( "28  " )
f.write( str(ee) + "\n" )
f.write( MOL.save_string_xyz() )
f.close()
--------------------------------------------------------------------------

    Molecular point group: c1

    Geometry (in Angstrom), charge = 0, multiplicity = 1:

       Center              X                  Y                   Z               Mass
    ------------   -----------------  -----------------  -----------------  -----------------
           H          3.315982389052    -2.717826099541    -2.255853773701     1.007825032070
           C          3.283295389052    -1.633038099541    -2.229611773701    12.000000000000
           C          2.013663389052    -1.135203099541    -1.540139773701    12.000000000000
           H          4.170743389052    -1.287943099541    -1.707416773701     1.007825032070
           H          3.341513389052    -1.275400099541    -3.254065773701     1.007825032070
           C          1.932419389052     0.392180900459    -1.492048773701    12.000000000000
           H          1.975221389052    -1.531476099541    -0.530639773701     1.007825032070
           H          1.143007389052    -1.525370099541    -2.064945773701     1.007825032070
           C          0.663093389052     0.920400900459    -0.823423773701    12.000000000000
           H          2.796366389052     0.786038900459    -0.968488773701     1.007825032070
           H          1.971880389052     0.782158900459    -2.506642773701     1.007825032070
           C          0.614603389052     0.711203900459     0.682939226299    12.000000000000
           H          0.579196389052     1.993222900459    -0.990110773701     1.007825032070
           H         -0.224721610948     0.482695900459    -1.274396773701     1.007825032070
           C         -0.736041610948     0.836332900459     1.366177226299    12.000000000000
           O          1.600799389052     0.475320900459     1.313956226299    15.994914619560
           C         -1.840930610948    -0.004957099541     0.709965226299    12.000000000000
           H         -1.004047610948     1.885888900459     1.348299226299     1.007825032070
           H         -0.626131610948     0.537640900459     2.407036226299     1.007825032070
           C         -3.206764610948     0.219783900459     1.361578226299    12.000000000000
           H         -1.901592610948     0.244806900459    -0.347178773701     1.007825032070
           H         -1.589733610948    -1.060982099541     0.766372226299     1.007825032070
           C         -4.314793610948    -0.612044099541     0.717188226299    12.000000000000
           H         -3.463758610948     1.274454900459     1.300874226299     1.007825032070
           H         -3.143282610948    -0.019820099541     2.420802226299     1.007825032070
           H         -4.423878610948    -0.370828099541    -0.336206773701     1.007825032070
           H         -4.103005610948    -1.674837099541     0.792880226299     1.007825032070
           H         -5.270418610948    -0.430483099541     1.198535226299     1.007825032070

  Charge       = 0
  Multiplicity = 1
  Basis Set: 6-31G*
  Basis Set:

    Orbital Energies (a.u.)
    -----------------------

    Doubly Occupied:

       1A    -20.547407     2A    -11.322259     3A    -11.231377
       4A    -11.229551     5A    -11.229056     6A    -11.226127
       7A    -11.216572     8A    -11.216391     9A    -11.212482
      10A    -11.205825    11A     -1.392668    12A     -1.096601
      13A     -1.076882    14A     -1.023094    15A     -0.990479
      16A     -0.906963    17A     -0.874074    18A     -0.809750
      19A     -0.800857    20A     -0.721914    21A     -0.666551
      22A     -0.657857    23A     -0.627803    24A     -0.619332
      25A     -0.609937    26A     -0.589033    27A     -0.578968
      28A     -0.573592    29A     -0.545979    30A     -0.527624
      31A     -0.523437    32A     -0.507798    33A     -0.498513
      34A     -0.486347    35A     -0.478061    36A     -0.473644
      37A     -0.471157    38A     -0.463955    39A     -0.455963
      40A     -0.392074

  @DF-RHF Final Energy:  -426.16594632392912

   => Energetics <=

    Nuclear Repulsion Energy =            536.8279351269280824
    One-Electron Energy =               -1641.8317171387675444
    Two-Electron Energy =                 678.8378356879113653
    DFT Exchange-Correlation Energy =       0.0000000000000000
    Empirical Dispersion Energy =           0.0000000000000000
    PCM Polarization Energy =               0.0000000000000000
    EFP Energy =                            0.0000000000000000
    Total Energy =                       -426.1659463239282104

  Mulliken Charges: (a.u.)
   Center  Symbol    Alpha    Beta     Spin     Total
       1     H     0.41943  0.41943  0.00000  0.16114
       2     C     3.24010  3.24010  0.00000 -0.48019
       3     C     3.15636  3.15636  0.00000 -0.31273
       4     H     0.41821  0.41821  0.00000  0.16359
       5     H     0.42359  0.42359  0.00000  0.15282
       6     C     3.14829  3.14829  0.00000 -0.29658
       7     H     0.41074  0.41074  0.00000  0.17851
       8     H     0.42779  0.42779  0.00000  0.14442
       9     C     3.21425  3.21425  0.00000 -0.42849
      10     H     0.40666  0.40666  0.00000  0.18667
      11     H     0.42205  0.42205  0.00000  0.15590
      12     C     2.72982  2.72982  0.00000  0.54035
      13     H     0.40497  0.40497  0.00000  0.19006
      14     H     0.40923  0.40923  0.00000  0.18154
      15     C     3.20194  3.20194  0.00000 -0.40387
      16     O     4.26823  4.26823  0.00000 -0.53646
      17     C     3.16529  3.16529  0.00000 -0.33058
      18     H     0.40999  0.40999  0.00000  0.18002
      19     H     0.39933  0.39933  0.00000  0.20134
      20     C     3.15116  3.15116  0.00000 -0.30232
      21     H     0.41937  0.41937  0.00000  0.16125
      22     H     0.41433  0.41433  0.00000  0.17135
      23     C     3.24018  3.24018  0.00000 -0.48035
      24     H     0.42142  0.42142  0.00000  0.15715
      25     H     0.41924  0.41924  0.00000  0.16151
      26     H     0.42117  0.42117  0.00000  0.15765
      27     H     0.41994  0.41994  0.00000  0.16011
      28     H     0.41691  0.41691  0.00000  0.16618

   Total alpha = 40.00000, Total beta = 40.00000, Total charge = -0.00000
