                              Psi4 1.0.54 Driver

  ==> Input File <==

--------------------------------------------------------------------------
set {
	reference rhf
	basis cc-pvtz
}

set_num_threads( 4 )
memory 2 gb

molecule MOL {
0 1

H	 -2.266619	 1.169943	 0.000098
O	 -1.438073	 1.611259	 0.000041
C	 -0.408657	 0.734701	 0.000005
C	 0.066780	 0.329773	 -1.233446
C	 0.155396	 0.254538	 1.176185
H	 -0.395128	 0.723009	 -2.117718
C	 1.114984	 -0.562765	 -1.308349
C	 1.207214	 -0.641080	 1.070944
C	 -0.364571	 0.697411	 2.521436
H	 1.478789	 -0.872625	 -2.269397
C	 1.692468	 -1.054389	 -0.153686
H	 1.654004	 -1.021434	 1.970765
H	 -1.410222	 0.434940	 2.655754
H	 0.190180	 0.225139	 3.319340
H	 -0.272137	 1.771551	 2.655614
H	 2.508176	 -1.748964	 -0.204247

	symmetry c1
}
set optking {
	frozen_dihedral = ("
		4 3 2 1
	")
}

ee,wfn = optimize('scf', return_wfn=True)
oeprop( wfn, 'DIPOLE', 'QUADRUPOLE', 'MULLIKEN_CHARGES')
f=open( 'psi4out.xyz', 'w' )
f.write( "16  " )
f.write( str(ee) + "\n" )
f.write( MOL.save_string_xyz() )
f.close()
--------------------------------------------------------------------------

    Molecular point group: c1
  Charge       = 0
  Multiplicity = 1
  Basis Set: CC-PVTZ
  Basis Set:
  @DF-RHF Final Energy:  -344.71501355957497
    Total Energy =                       -344.7150135595752545
    Molecular point group: c1
  Basis Set: CC-PVTZ
  Basis Set:
  Basis Set: CC-PVTZ
  Basis Set:
  @DF-RHF Final Energy:  -344.71602809623096
    Total Energy =                       -344.7160280962308434
  Basis Set: CC-PVTZ
  Basis Set:
  Basis Set: CC-PVTZ
  Basis Set:
  @DF-RHF Final Energy:  -344.71609620906719
    Total Energy =                       -344.7160962090673024
  Basis Set: CC-PVTZ
  Basis Set:
  Basis Set: CC-PVTZ
  Basis Set:
  @DF-RHF Final Energy:  -344.71610446169200
    Total Energy =                       -344.7161044616918275
  Basis Set: CC-PVTZ
  Basis Set:
  Basis Set: CC-PVTZ
  Basis Set:
  @DF-RHF Final Energy:  -344.71610704484124
    Total Energy =                       -344.7161070448412374
  Basis Set: CC-PVTZ
  Basis Set:
  Charge       = 0
  Multiplicity = 1
  Basis Set: CC-PVTZ
  Basis Set:

    Orbital Energies (a.u.)
    -----------------------

    Doubly Occupied:

       1A    -20.569571     2A    -11.282384     3A    -11.233535
       4A    -11.227093     5A    -11.226118     6A    -11.223130
       7A    -11.222912     8A    -11.218248     9A     -1.395778
      10A     -1.153574    11A     -1.048174    12A     -1.006982
      13A     -0.935315    14A     -0.833019    15A     -0.808881
      16A     -0.730172    17A     -0.669906    18A     -0.659923
      19A     -0.625402    20A     -0.594079    21A     -0.573705
      22A     -0.567787    23A     -0.546248    24A     -0.521287
      25A     -0.502802    26A     -0.487931    27A     -0.465961
      28A     -0.333711    29A     -0.322484

  @DF-RHF Final Energy:  -344.71610763540571

   => Energetics <=

    Nuclear Repulsion Energy =            350.4329479274719006
    One-Electron Energy =               -1162.3258883459284334
    Two-Electron Energy =                 467.1768327830507133
    DFT Exchange-Correlation Energy =       0.0000000000000000
    Empirical Dispersion Energy =           0.0000000000000000
    PCM Polarization Energy =               0.0000000000000000
    EFP Energy =                            0.0000000000000000
    Total Energy =                       -344.7161076354058196
    Molecular point group: c1
  Basis Set: CC-PVTZ
  Basis Set:

  -Total Gradient:
     Atom            X                  Y                   Z
    ------   -----------------  -----------------  -----------------
       1        0.000020143242    -0.000003042830     0.000045407186
       2       -0.000068340254     0.000084272928    -0.000065163142
       3        0.000051796605    -0.000150581974    -0.000015085192
       4       -0.000071447642     0.000105442033    -0.000006908902
       5        0.000044758005    -0.000020216679     0.000029858084
       6        0.000009052755    -0.000008443275     0.000013765228
       7        0.000068532603    -0.000051385793     0.000033672761
       8       -0.000069065197     0.000067861257     0.000045087563
       9       -0.000002308582    -0.000041891337    -0.000018891167
      10        0.000004177906    -0.000005970931    -0.000005425871
      11        0.000003927711     0.000002901504    -0.000075968771
      12        0.000001872588    -0.000005501529     0.000006811916
      13       -0.000004416083     0.000003009518    -0.000003747244
      14        0.000004035819    -0.000001286931     0.000013927422
      15        0.000013156595     0.000024144111     0.000001674805
      16       -0.000005876073     0.000000689931     0.000000985327

  **** Optimization is complete! (in 6 steps) ****
    Final optimized geometry and variables:
    Molecular point group: c1

    Geometry (in Angstrom), charge = 0, multiplicity = 1:

    H           -2.449116145179     0.992756544188    -0.242815870460
    O           -1.611359335565     1.421770919006    -0.235961635795
    C           -0.596497748947     0.502806853429    -0.295597432178
    C           -0.116424162679     0.107425476555    -1.526392325279
    C           -0.034866149993     0.027468297152     0.882671832776
    H           -0.566711653644     0.512361342165    -2.412098776484
    C            0.934808358760    -0.786769031068    -1.605596123725
    C            1.018409885463    -0.865846363985     0.780510678485
    C           -0.559611157257     0.480558801151     2.220174353189
    H            1.306028988164    -1.092394504904    -2.564947446506
    C            1.503135891146    -1.276105524431    -0.448137733218
    H            1.468639451564    -1.245746997733     1.678526966033
    H           -1.589192897162     0.172475303596     2.366347194545
    H            0.030289667548     0.061500290890     3.023997816110
    H           -0.535377247838     1.559667684679     2.301707453525
    H            2.321643786951    -1.968301087117    -0.496722744190

  Mulliken Charges: (a.u.)
   Center  Symbol    Alpha    Beta     Spin     Total
       1     H     0.39026  0.39026  0.00000  0.21949
       2     O     4.18900  4.18900  0.00000 -0.37799
       3     C     2.88685  2.88685  0.00000  0.22630
       4     C     3.10746  3.10746  0.00000 -0.21491
       5     C     2.99298  2.99298  0.00000  0.01405
       6     H     0.41860  0.41860  0.00000  0.16280
       7     C     3.07740  3.07740  0.00000 -0.15480
       8     C     3.09510  3.09510  0.00000 -0.19020
       9     C     3.14425  3.14425  0.00000 -0.28849
      10     H     0.42205  0.42205  0.00000  0.15589
      11     C     3.07880  3.07880  0.00000 -0.15761
      12     H     0.42443  0.42443  0.00000  0.15115
      13     H     0.45531  0.45531  0.00000  0.08937
      14     H     0.45211  0.45211  0.00000  0.09578
      15     H     0.44143  0.44143  0.00000  0.11713
      16     H     0.42397  0.42397  0.00000  0.15205

   Total alpha = 29.00000, Total beta = 29.00000, Total charge = -0.00000

*** Psi4 exiting successfully. Buy a developer a beer!
