  ==> Input File <==

--------------------------------------------------------------------------
set {
	reference rhf
	basis 6-31G*
}

set_num_threads( 1 )
memory 2 gb

molecule MOL {
0 1

H	 2.502559	 0.351305	 1.128519
O	 1.646564	 -0.061891	 1.186211
C	 1.050492	 0.053836	 0.000068
C	 -0.318135	 -0.576402	 0.000164
O	 1.571629	 0.596276	 -0.919264
C	 -1.454360	 0.441875	 -0.000474
H	 -0.374042	 -1.230163	 -0.866135
H	 -0.374274	 -1.229227	 0.867154
C	 -2.826123	 -0.230780	 0.000056
H	 -1.357605	 1.085198	 -0.868380
H	 -1.357504	 1.086451	 0.866496
H	 -2.959731	 -0.858053	 -0.876869
H	 -3.619374	 0.509403	 -0.000080
H	 -2.959371	 -0.857318	 0.877556

	symmetry c1
}
set optking {
	frozen_dihedral = ("
		7 4 6 10,
		1 2 3 5
	")
}

ee = energy('scf')
oeprop('DIPOLE', 'QUADRUPOLE', 'MULLIKEN_CHARGES')
f=open( 'psi4out.xyz', 'w' )
f.write( "14  " )
f.write( str(ee) + "\n" )
f.write( MOL.save_string_xyz() )
f.close()
--------------------------------------------------------------------------

    Molecular point group: c1

    Geometry (in Angstrom), charge = 0, multiplicity = 1:

       Center              X                  Y                   Z               Mass
    ------------   -----------------  -----------------  -----------------  -----------------
           H          2.521687256122     0.309756491663     1.067139067812     1.007825032070
           O          1.665692256122    -0.103439508337     1.124831067812    15.994914619560
           C          1.069620256122     0.012287491663    -0.061311932188    12.000000000000
           C         -0.299006743878    -0.617950508337    -0.061215932188    12.000000000000
           O          1.590757256122     0.554727491663    -0.980643932188    15.994914619560
           C         -1.435231743878     0.400326491663    -0.061853932188    12.000000000000
           H         -0.354913743878    -1.271711508337    -0.927514932188     1.007825032070
           H         -0.355145743878    -1.270775508337     0.805774067812     1.007825032070
           C         -2.806994743878    -0.272328508337    -0.061323932188    12.000000000000
           H         -1.338476743878     1.043649491663    -0.929759932188     1.007825032070
           H         -1.338375743878     1.044902491663     0.805116067812     1.007825032070
           H         -2.940602743878    -0.899601508337    -0.938248932188     1.007825032070
           H         -3.600245743878     0.467854491663    -0.061459932188     1.007825032070
           H         -2.940242743878    -0.898866508337     0.816176067812     1.007825032070

  Charge       = 0
  Multiplicity = 1
  Basis Set: 6-31G*
  Basis Set:

    Orbital Energies (a.u.)
    -----------------------

    Doubly Occupied:

       1A    -20.613832     2A    -20.549760     3A    -11.380674
       4A    -11.239149     5A    -11.235098     6A    -11.221270
       7A     -1.474533     8A     -1.364919     9A     -1.086800
      10A     -0.980404    11A     -0.855860    12A     -0.804160
      13A     -0.702440    14A     -0.685425    15A     -0.645570
      16A     -0.631407    17A     -0.594764    18A     -0.570259
      19A     -0.549093    20A     -0.516321    21A     -0.499575
      22A     -0.487616    23A     -0.471941    24A     -0.439524

  @DF-RHF Final Energy:  -305.87830073230521

   => Energetics <=

    Nuclear Repulsion Energy =            239.8305506683409760
    One-Electron Energy =                -892.2168831098736064
    Two-Electron Energy =                 346.5080317092273390
    DFT Exchange-Correlation Energy =       0.0000000000000000
    Empirical Dispersion Energy =           0.0000000000000000
    PCM Polarization Energy =               0.0000000000000000
    EFP Energy =                            0.0000000000000000
    Total Energy =                       -305.8783007323053198

  Mulliken Charges: (a.u.)
   Center  Symbol    Alpha    Beta     Spin     Total
       1     H     0.26854  0.26854  0.00000  0.46292
       2     O     4.34715  4.34715  0.00000 -0.69429
       3     C     2.63063  2.63063  0.00000  0.73873
       4     C     3.20204  3.20204  0.00000 -0.40409
       5     O     4.27853  4.27853  0.00000 -0.55707
       6     C     3.16200  3.16200  0.00000 -0.32401
       7     H     0.39976  0.39976  0.00000  0.20047
       8     H     0.40062  0.40062  0.00000  0.19876
       9     C     3.24210  3.24210  0.00000 -0.48419
      10     H     0.40540  0.40540  0.00000  0.18920
      11     H     0.41266  0.41266  0.00000  0.17468
      12     H     0.41784  0.41784  0.00000  0.16432
      13     H     0.41418  0.41418  0.00000  0.17164
      14     H     0.41854  0.41854  0.00000  0.16292

   Total alpha = 24.00000, Total beta = 24.00000, Total charge = -0.00000
