  ==> Input File <==

--------------------------------------------------------------------------
set {
	reference rhf
	basis cc-pvtz
}

set_num_threads( 4 )
memory 2 gb

molecule MOL {
0 1

H	 2.190573	 -0.629143	 -0.208718
O	 1.355408	 -0.529451	 0.208662
C	 0.700177	 0.619554	 -0.266242
C	 -0.713111	 0.588314	 0.266177
H	 0.678680	 0.627133	 -1.351786
H	 1.199747	 1.521489	 0.077736
O	 -1.421673	 -0.521378	 -0.196983
H	 -1.244794	 1.469161	 -0.069059
H	 -0.685100	 0.604721	 1.352683
H	 -1.454145	 -0.484702	 -1.136996

	symmetry c1
}
set optking {
	frozen_dihedral = ("
		10 7 4 3
	")
}

ee = optimize('scf')
oeprop('DIPOLE', 'QUADRUPOLE', 'MULLIKEN_CHARGES')
f=open( 'psi4out.xyz', 'w' )
f.write( "10  " )
f.write( str(ee) + "\n" )
f.write( MOL.save_string_xyz() )
f.close()
--------------------------------------------------------------------------

    Molecular point group: c1
  Charge       = 0
  Multiplicity = 1
  Basis Set: CC-PVTZ
  Basis Set:
  @DF-RHF Final Energy:  -229.02135244886949
    Total Energy =                       -229.0213524488695498
    Molecular point group: c1
  Basis Set: CC-PVTZ
  Basis Set:
  Basis Set: CC-PVTZ
  Basis Set:
  @DF-RHF Final Energy:  -229.02320223868733
    Total Energy =                       -229.0232022386873609
  Basis Set: CC-PVTZ
  Basis Set:
  Basis Set: CC-PVTZ
  Basis Set:
  @DF-RHF Final Energy:  -229.02343729232015
    Total Energy =                       -229.0234372923201249
  Basis Set: CC-PVTZ
  Basis Set:
  Basis Set: CC-PVTZ
  Basis Set:
  @DF-RHF Final Energy:  -229.02344759787189
    Total Energy =                       -229.0234475978718933
  Basis Set: CC-PVTZ
  Basis Set:
  Basis Set: CC-PVTZ
  Basis Set:
  @DF-RHF Final Energy:  -229.02344895164836
    Total Energy =                       -229.0234489516484473
  Basis Set: CC-PVTZ
  Basis Set:
  Charge       = 0
  Multiplicity = 1
  Basis Set: CC-PVTZ
  Basis Set:

    Orbital Energies (a.u.)
    -----------------------

    Doubly Occupied:

       1A    -20.551570     2A    -20.546222     3A    -11.274537
       4A    -11.268554     5A     -1.379023     6A     -1.358150
       7A     -1.003919     8A     -0.846907     9A     -0.723085
      10A     -0.678176    11A     -0.658843    12A     -0.600927
      13A     -0.573615    14A     -0.544462    15A     -0.480166
      16A     -0.449100    17A     -0.440676

  @DF-RHF Final Energy:  -229.02344916843649

   => Energetics <=

    Nuclear Repulsion Energy =            133.4441345190305981
    One-Electron Energy =                -578.1793065265711675
    Two-Electron Energy =                 215.7117228391040271
    DFT Exchange-Correlation Energy =       0.0000000000000000
    Empirical Dispersion Energy =           0.0000000000000000
    PCM Polarization Energy =               0.0000000000000000
    EFP Energy =                            0.0000000000000000
    Total Energy =                       -229.0234491684365139
    Molecular point group: c1
  Basis Set: CC-PVTZ
  Basis Set:

  -Total Gradient:
     Atom            X                  Y                   Z
    ------   -----------------  -----------------  -----------------
       1       -0.000003582095    -0.000013905054     0.000007160603
       2       -0.000003388428     0.000028889979    -0.000018572327
       3        0.000043367388    -0.000065193334     0.000050764160
       4       -0.000046051735     0.000022833283    -0.000015581907
       5       -0.000000993463     0.000014838337    -0.000022397082
       6       -0.000005498406     0.000010570663    -0.000011146007
       7        0.000054301665    -0.000012534435    -0.000000159326
       8       -0.000007371730    -0.000004899953     0.000006305187
       9        0.000000816138     0.000008516706     0.000008978486
      10       -0.000031599335     0.000010883809    -0.000005351787

  **** Optimization is complete! (in 6 steps) ****
    Final optimized geometry and variables:
    Molecular point group: c1

    Geometry (in Angstrom), charge = 0, multiplicity = 1:

    H            2.277306688180    -0.561872326971    -0.108326819405
    O            1.407139377869    -0.534542393018     0.243970304277
    C            0.716696303474     0.571502169471    -0.257073470396
    C           -0.700677784815     0.566089227979     0.271212558563
    H            0.698971237933     0.557874450257    -1.346922355562
    H            1.191734727174     1.501139158227     0.050656019168
    O           -1.469287220993    -0.508529923322    -0.181353093416
    H           -1.166991082262     1.514800758058     0.012301194014
    H           -0.675899220323     0.490683989970     1.349415504937
    H           -1.529520738174    -0.493417311772    -1.119255820264

  Mulliken Charges: (a.u.)
   Center  Symbol    Alpha    Beta     Spin     Total
       1     H     0.39599  0.39599  0.00000  0.20801
       2     O     4.19051  4.19051  0.00000 -0.38102
       3     C     2.96599  2.96599  0.00000  0.06802
       4     C     2.96531  2.96531  0.00000  0.06937
       5     H     0.48273  0.48273  0.00000  0.03454
       6     H     0.47548  0.47548  0.00000  0.04903
       7     O     4.19653  4.19653  0.00000 -0.39306
       8     H     0.47459  0.47459  0.00000  0.05083
       9     H     0.45590  0.45590  0.00000  0.08821
      10     H     0.39697  0.39697  0.00000  0.20606

   Total alpha = 17.00000, Total beta = 17.00000, Total charge =  0.00000
