  ==> Input File <==

--------------------------------------------------------------------------
set {
	reference rhf
	basis 6-31G*
}

set_num_threads( 4 )
memory 2 gb

molecule MOL {
0 1

O	 1.752836	 1.009553	 2.461957
C	 1.856165	 0.084669	 1.722380
C	 1.245376	 -0.013843	 0.345420
O	 2.541882	 -1.011413	 2.022424
C	 0.455112	 1.231400	 -0.050772
H	 2.054372	 -0.219829	 -0.347607
H	 0.613178	 -0.898103	 0.334967
C	 -0.998893	 1.219485	 0.433193
H	 0.482531	 1.345121	 -1.130325
H	 0.957290	 2.103070	 0.354729
C	 -1.883438	 0.145884	 -0.207175
H	 -1.431207	 2.195402	 0.224832
H	 -1.019646	 1.105716	 1.516076
C	 -3.347647	 0.245583	 0.225435
H	 -1.822183	 0.231698	 -1.291012
H	 -1.510341	 -0.844814	 0.042401
C	 -4.239992	 -0.825570	 -0.404234
H	 -3.732888	 1.230466	 -0.033079
H	 -3.408585	 0.170602	 1.310038
C	 -5.701275	 -0.716658	 0.029921
H	 -4.179496	 -0.752714	 -1.488058
H	 -3.859041	 -1.810759	 -0.143352
H	 -6.308102	 -1.488908	 -0.432678
H	 -6.122175	 0.245478	 -0.248167
H	 -5.799072	 -0.820114	 1.106957
C	 3.167270	 -1.050625	 3.292163
H	 3.884550	 -0.248177	 3.387508
H	 3.665623	 -2.005987	 3.346346
H	 2.433000	 -0.966092	 4.080350

	symmetry c1
}
set optking {
	frozen_dihedral = ("
		6 3 5 9
	")
}

ee = optimize('scf')
oeprop('DIPOLE', 'QUADRUPOLE', 'MULLIKEN_CHARGES')
f=open( 'psi4out.xyz', 'w' )
f.write( "29  " )
f.write( str(ee) + "\n" )
f.write( MOL.save_string_xyz() )
f.close()
--------------------------------------------------------------------------

    Molecular point group: c1
  Charge       = 0
  Multiplicity = 1
  Basis Set: 6-31G*
  Basis Set:
  @DF-RHF Final Energy:  -501.04199972372101
    Total Energy =                       -501.0419997237215739
    Molecular point group: c1
  Basis Set: 6-31G*
  Basis Set:
  Basis Set: 6-31G*
  Basis Set:
  @DF-RHF Final Energy:  -501.04213338558623
    Total Energy =                       -501.0421333855863395
  Basis Set: 6-31G*
  Basis Set:
  Basis Set: 6-31G*
  Basis Set:
  @DF-RHF Final Energy:  -501.04241493739949
    Total Energy =                       -501.0424149373998262
  Basis Set: 6-31G*
  Basis Set:
  Basis Set: 6-31G*
  Basis Set:
  @DF-RHF Final Energy:  -501.04237488824754
    Total Energy =                       -501.0423748882481050
  Basis Set: 6-31G*
  Basis Set:
  @DF-RHF Final Energy:  -501.04232755582552
    Total Energy =                       -501.0423275558262048
  Basis Set: 6-31G*
  Basis Set:
  @DF-RHF Final Energy:  -501.04245957544890
    Total Energy =                       -501.0424595754489019
  Basis Set: 6-31G*
  Basis Set:
  Basis Set: 6-31G*
  Basis Set:
  @DF-RHF Final Energy:  -501.04245740082990
    Total Energy =                       -501.0424574008304717
  Basis Set: 6-31G*
  Basis Set:
  Basis Set: 6-31G*
  Basis Set:
  @DF-RHF Final Energy:  -501.04246286740488
    Total Energy =                       -501.0424628674046517
  Basis Set: 6-31G*
  Basis Set:
  Charge       = 0
  Multiplicity = 1
  Basis Set: 6-31G*
  Basis Set:

    Orbital Energies (a.u.)
    -----------------------

    Doubly Occupied:

       1A    -20.604231     2A    -20.546216     3A    -11.372861
       4A    -11.281288     5A    -11.234645     6A    -11.218594
       7A    -11.214374     8A    -11.213743     9A    -11.212651
      10A    -11.212268    11A    -11.207735    12A     -1.470011
      13A     -1.363312    14A     -1.095532    15A     -1.065327
      16A     -1.017952    17A     -0.976856    18A     -0.927006
      19A     -0.860593    20A     -0.800550    21A     -0.789320
      22A     -0.763097    23A     -0.699603    24A     -0.681913
      25A     -0.671518    26A     -0.651490    27A     -0.619455
      28A     -0.613450    29A     -0.589649    30A     -0.579923
      31A     -0.564473    32A     -0.548045    33A     -0.536797
      34A     -0.526989    35A     -0.517549    36A     -0.502052
      37A     -0.500399    38A     -0.476462    39A     -0.468705
      40A     -0.460759    41A     -0.457521    42A     -0.456054
      43A     -0.437769    44A     -0.435223

  @DF-RHF Final Energy:  -501.04246316619151

   => Energetics <=

    Nuclear Repulsion Energy =            620.0149871766830074
    One-Electron Energy =               -1911.2269838358042762
    Two-Electron Energy =                 790.1695334929297587
    DFT Exchange-Correlation Energy =       0.0000000000000000
    Empirical Dispersion Energy =           0.0000000000000000
    PCM Polarization Energy =               0.0000000000000000
    EFP Energy =                            0.0000000000000000
    Total Energy =                       -501.0424631661915100
    Molecular point group: c1
  Basis Set: 6-31G*
  Basis Set:

  -Total Gradient:
     Atom            X                  Y                   Z
    ------   -----------------  -----------------  -----------------
       1       -0.000063578735     0.000010278284     0.000010628087
       2        0.000073911912     0.000017163319    -0.000057670552
       3        0.002823354217     0.002655684392     0.002010858436
       4       -0.000015594800    -0.000000720049    -0.000000821234
       5       -0.003420376256    -0.002538715635    -0.000586007583
       6       -0.001817045530    -0.001794058861    -0.001564994222
       7       -0.000038196691    -0.000016840594     0.000002353056
       8        0.000024164947    -0.000018282775     0.000005042334
       9        0.002405487071     0.001675469583     0.000167950688
      10        0.000006300608     0.000010646894     0.000000725439
      11        0.000005026597    -0.000031074163     0.000050118183
      12       -0.000004537271     0.000009745694     0.000000293383
      13        0.000011481399    -0.000012828238    -0.000011329714
      14        0.000001936457     0.000009252903    -0.000012511126
      15        0.000017576103     0.000012961875     0.000007330738
      16        0.000004253293    -0.000011149119    -0.000007766895
      17       -0.000002601595     0.000020899746    -0.000018404161
      18        0.000000542126     0.000005605742    -0.000008899314
      19       -0.000010511362     0.000009324608    -0.000000506245
      20        0.000006099787    -0.000019235465     0.000019722052
      21       -0.000009443504     0.000008604047    -0.000001236260
      22        0.000005070032     0.000002555756    -0.000011655267
      23        0.000001971442    -0.000006519804     0.000006868007
      24        0.000005434298    -0.000004614514    -0.000007456292
      25       -0.000005329275     0.000006019978     0.000005578332
      26       -0.000003193632     0.000001170367     0.000004468553
      27       -0.000001910023    -0.000000504299    -0.000001934451
      28       -0.000001234944    -0.000000683678    -0.000001500779
      29        0.000000943317    -0.000000155991     0.000000756799

  **** Optimization is complete! (in 9 steps) ****
    Final optimized geometry and variables:
    Molecular point group: c1

    Geometry (in Angstrom), charge = 0, multiplicity = 1:

    O            2.217788472558     1.022029935502     1.520299535069
    C            2.319409153567     0.076394628542     0.806671905295
    C            1.717566853383    -0.059615989544    -0.571534937007
    O            2.995156637894    -1.015062700465     1.142044480813
    C            0.895969276664     1.155754544540    -1.011687467470
    H            2.525322210244    -0.264420568366    -1.267718725307
    H            1.123360285111    -0.968074259212    -0.567008112353
    C           -0.554057299700     1.164719752151    -0.515440716642
    H            0.921552809936     1.222213717346    -2.096224738115
    H            1.393521602628     2.047222761382    -0.647512390728
    C           -1.469267920876     0.146679119377    -1.201559584380
    H           -0.962928269379     2.159457718779    -0.675860839325
    H           -0.563582841068     1.006213175241     0.560208276985
    C           -2.912351097942     0.208204883230    -0.696691160232
    H           -1.456643677189     0.323444321561    -2.275966662778
    H           -1.089257021927    -0.862396679628    -1.056208681519
    C           -3.838222721196    -0.798207112863    -1.382279960987
    H           -3.302936851895     1.213535574565    -0.845195216095
    H           -2.925231771697     0.033431990108     0.377851038837
    C           -5.276423475971    -0.732881695664    -0.869351815557
    H           -3.829977728399    -0.621774517484    -2.455852912487
    H           -3.448927863153    -1.803658091891    -1.235917249750
    H           -5.907670545901    -1.458549267157    -1.372997568272
    H           -5.706990460383     0.250811473506    -1.034156762252
    H           -5.322199103783    -0.937977444008     0.196515477733
    C            3.615864063881    -1.021673990321     2.414833498396
    H            4.337994841101    -0.221444474206     2.489669297579
    H            4.107734699221    -1.978251380682     2.498147472610
    H            2.879212637328    -0.909863127238     3.197346287220

  Mulliken Charges: (a.u.)
   Center  Symbol    Alpha    Beta     Spin     Total
       1     O     4.28623  4.28623  0.00000 -0.57245
       2     C     2.60752  2.60752  0.00000  0.78496
       3     C     3.21077  3.21077  0.00000 -0.42153
       4     O     4.30624  4.30624  0.00000 -0.61249
       5     C     3.16016  3.16016  0.00000 -0.32032
       6     H     0.39755  0.39755  0.00000  0.20489
       7     H     0.39893  0.39893  0.00000  0.20214
       8     C     3.15692  3.15692  0.00000 -0.31384
       9     H     0.41946  0.41946  0.00000  0.16107
      10     H     0.40241  0.40241  0.00000  0.19518
      11     C     3.15407  3.15407  0.00000 -0.30815
      12     H     0.41938  0.41938  0.00000  0.16123
      13     H     0.41438  0.41438  0.00000  0.17125
      14     C     3.15023  3.15023  0.00000 -0.30046
      15     H     0.42417  0.42417  0.00000  0.15165
      16     H     0.42556  0.42556  0.00000  0.14888
      17     C     3.15133  3.15133  0.00000 -0.30266
      18     H     0.42339  0.42339  0.00000  0.15323
      19     H     0.42330  0.42330  0.00000  0.15340
      20     C     3.23926  3.23926  0.00000 -0.47853
      21     H     0.42331  0.42331  0.00000  0.15338
      22     H     0.42376  0.42376  0.00000  0.15247
      23     H     0.41963  0.41963  0.00000  0.16074
      24     H     0.42162  0.42162  0.00000  0.15675
      25     H     0.42167  0.42167  0.00000  0.15665
      26     C     3.09226  3.09226  0.00000 -0.18452
      27     H     0.40895  0.40895  0.00000  0.18210
      28     H     0.40841  0.40841  0.00000  0.18318
      29     H     0.40911  0.40911  0.00000  0.18178

   Total alpha = 44.00000, Total beta = 44.00000, Total charge = -0.00000
