  ==> Input File <==

--------------------------------------------------------------------------
set {
	reference rhf
	basis 6-31G*
}

set_num_threads( 1 )
memory 2 gb

molecule MOL {
0 1

H	 -2.508706	 -0.620617	 0.747695
O	 -2.176272	 0.126401	 1.225021
C	 -1.099140	 0.691395	 0.526768
C	 0.150279	 -0.161666	 0.656800
H	 -1.334371	 0.837385	 -0.523809
H	 -0.918617	 1.664366	 0.961728
O	 1.171513	 0.459272	 -0.058250
H	 -0.037684	 -1.163404	 0.265429
H	 0.413308	 -0.266496	 1.707709
C	 2.397842	 -0.198080	 -0.002151
H	 2.508049	 -0.905315	 -0.822092
H	 3.173794	 0.550865	 -0.078850
H	 2.517602	 -0.735921	 0.936026

	symmetry c1
}
set optking {
	frozen_dihedral = ("
		8 4 3 5,
		1 2 3 5,
		10 7 4 8
	")
}

ee = energy('scf')
oeprop('DIPOLE', 'QUADRUPOLE', 'MULLIKEN_CHARGES')
f=open( 'psi4out.xyz', 'w' )
f.write( "13  " )
f.write( str(ee) + "\n" )
f.write( MOL.save_string_xyz() )
f.close()
--------------------------------------------------------------------------

    Molecular point group: c1

    Geometry (in Angstrom), charge = 0, multiplicity = 1:

       Center              X                  Y                   Z               Mass
    ------------   -----------------  -----------------  -----------------  -----------------
           H         -2.576553304782    -0.787652286666     0.273571627035     1.007825032070
           O         -2.244119304782    -0.040634286666     0.750897627035    15.994914619560
           C         -1.166987304782     0.524359713334     0.052644627035    12.000000000000
           C          0.082431695218    -0.328701286666     0.182676627035    12.000000000000
           H         -1.402218304782     0.670349713334    -0.997932372965     1.007825032070
           H         -0.986464304782     1.497330713334     0.487604627035     1.007825032070
           O          1.103665695218     0.292236713334    -0.532373372965    15.994914619560
           H         -0.105531304782    -1.330439286666    -0.208694372965     1.007825032070
           H          0.345460695218    -0.433531286666     1.233585627035     1.007825032070
           C          2.329994695218    -0.365115286666    -0.476274372965    12.000000000000
           H          2.440201695218    -1.072350286666    -1.296215372965     1.007825032070
           H          3.105946695218     0.383829713334    -0.552973372965     1.007825032070
           H          2.449754695218    -0.902956286666     0.461902627035     1.007825032070

  Charge       = 0
  Multiplicity = 1
  Basis Set: 6-31G*
  Basis Set:

    Orbital Energies (a.u.)
    -----------------------

    Doubly Occupied:

       1A    -20.561059     2A    -20.560069     3A    -11.271187
       4A    -11.269707     5A    -11.268797     6A     -1.388434
       7A     -1.365101     8A     -1.018311     9A     -0.913211
      10A     -0.842458    11A     -0.709532    12A     -0.672690
      13A     -0.659978    14A     -0.638304    15A     -0.595141
      16A     -0.570048    17A     -0.545478    18A     -0.490643
      19A     -0.482067    20A     -0.438338    21A     -0.419427

  @DF-RHF Final Energy:  -267.94852960285886

   => Energetics <=

    Nuclear Repulsion Energy =            190.2626147193993802
    One-Electron Energy =                -743.0623515420340937
    Two-Electron Energy =                 284.8512072197759721
    DFT Exchange-Correlation Energy =       0.0000000000000000
    Empirical Dispersion Energy =           0.0000000000000000
    PCM Polarization Energy =               0.0000000000000000
    EFP Energy =                            0.0000000000000000
    Total Energy =                       -267.9485296028587413

  Mulliken Charges: (a.u.)
   Center  Symbol    Alpha    Beta     Spin     Total
       1     H     0.28127  0.28127  0.00000  0.43747
       2     O     4.37089  4.37089  0.00000 -0.74178
       3     C     3.00487  3.00487  0.00000 -0.00974
       4     C     2.99757  2.99757  0.00000  0.00486
       5     H     0.42226  0.42226  0.00000  0.15549
       6     H     0.40850  0.40850  0.00000  0.18299
       7     O     4.30836  4.30836  0.00000 -0.61672
       8     H     0.43773  0.43773  0.00000  0.12454
       9     H     0.42249  0.42249  0.00000  0.15503
      10     C     3.07851  3.07851  0.00000 -0.15701
      11     H     0.42561  0.42561  0.00000  0.14878
      12     H     0.41309  0.41309  0.00000  0.17382
      13     H     0.42887  0.42887  0.00000  0.14226

   Total alpha = 21.00000, Total beta = 21.00000, Total charge =  0.00000
