  ==> Input File <==

--------------------------------------------------------------------------
set {
	reference rhf
	basis cc-pvtz
}

set_num_threads( 4 )
memory 2 gb

molecule MOL {
0 1

H	 3.459101	 0.139266	 -0.762951
C	 2.749156	 -0.051729	 0.031265
C	 1.322304	 0.099773	 -0.484271
H	 2.929445	 -1.053887	 0.403481
H	 2.954281	 0.646699	 0.834672
C	 0.308557	 -0.162619	 0.622645
H	 1.143368	 -0.594400	 -1.295960
H	 1.169532	 1.100095	 -0.870217
N	 -1.069352	 -0.004081	 0.085342
H	 0.371632	 -1.172932	 0.991288
H	 0.400391	 0.548875	 1.426218
O	 -1.486214	 1.100187	 -0.021402
O	 -1.668530	 -0.993721	 -0.172615

	symmetry c1
}
set optking {
	frozen_dihedral = ("
		12 9 6 3
	")
}

ee = optimize('scf')
oeprop('DIPOLE', 'QUADRUPOLE', 'MULLIKEN_CHARGES')
f=open( 'psi4out.xyz', 'w' )
f.write( "13  " )
f.write( str(ee) + "\n" )
f.write( MOL.save_string_xyz() )
f.close()
--------------------------------------------------------------------------

    Molecular point group: c1
  Charge       = 0
  Multiplicity = 1
  Basis Set: CC-PVTZ
  Basis Set:
  @DF-RHF Final Energy:  -321.86129877357428
    Total Energy =                       -321.8612987735743900
    Molecular point group: c1
  Basis Set: CC-PVTZ
  Basis Set:
  Basis Set: CC-PVTZ
  Basis Set:
  @DF-RHF Final Energy:  -321.85724193462727
    Total Energy =                       -321.8572419346274955
  Basis Set: CC-PVTZ
  Basis Set:
  Basis Set: CC-PVTZ
  Basis Set:
  @DF-RHF Final Energy:  -321.86142729011328
    Total Energy =                       -321.8614272901131699
  Basis Set: CC-PVTZ
  Basis Set:
  Basis Set: CC-PVTZ
  Basis Set:
  @DF-RHF Final Energy:  -321.86151025683364
    Total Energy =                       -321.8615102568336397
  Basis Set: CC-PVTZ
  Basis Set:
  Charge       = 0
  Multiplicity = 1
  Basis Set: CC-PVTZ
  Basis Set:

    Orbital Energies (a.u.)
    -----------------------

    Doubly Occupied:

       1A    -20.591217     2A    -20.589539     3A    -15.836957
       4A    -11.297329     5A    -11.254066     6A    -11.237199
       7A     -1.636027     8A     -1.420281     9A     -1.134289
      10A     -1.027899    11A     -0.884088    12A     -0.834279
      13A     -0.761670    14A     -0.738799    15A     -0.727673
      16A     -0.673228    17A     -0.604221    18A     -0.588257
      19A     -0.551463    20A     -0.520759    21A     -0.514615
      22A     -0.486965    23A     -0.475145    24A     -0.452951

  @DF-RHF Final Energy:  -321.86151115644168

   => Energetics <=

    Nuclear Repulsion Energy =            248.0087636406523188
    One-Electron Energy =                -930.0627179878639481
    Two-Electron Energy =                 360.1924431907700637
    DFT Exchange-Correlation Energy =       0.0000000000000000
    Empirical Dispersion Energy =           0.0000000000000000
    PCM Polarization Energy =               0.0000000000000000
    EFP Energy =                            0.0000000000000000
    Total Energy =                       -321.8615111564415656
    Molecular point group: c1
  Basis Set: CC-PVTZ
  Basis Set:

  -Total Gradient:
     Atom            X                  Y                   Z
    ------   -----------------  -----------------  -----------------
       1       -0.000007357848     0.000009026873    -0.000002230018
       2       -0.000012248614     0.000020980903     0.000018230434
       3        0.000000958053     0.000089904740     0.000027804476
       4       -0.000007781366     0.000002509065    -0.000011682982
       5        0.000008712009    -0.000003029965     0.000012682583
       6        0.000041358526    -0.000229871666    -0.000099033263
       7       -0.000009992983    -0.000007084352     0.000016727636
       8       -0.000002574895     0.000004288285    -0.000013699087
       9        0.000029075579     0.000230708416     0.000325530433
      10        0.000046357289    -0.000017526319     0.000001891048
      11       -0.000006471883    -0.000015423393    -0.000011005314
      12       -0.000020442178    -0.000135847315    -0.000230644191
      13       -0.000059591692     0.000051364729    -0.000034571756

  **** Optimization is complete! (in 5 steps) ****
    Final optimized geometry and variables:
    Molecular point group: c1

    Geometry (in Angstrom), charge = 0, multiplicity = 1:

    H            3.458416510088     0.136286409095    -0.774443087094
    C            2.750305550359    -0.052033940540     0.022042668262
    C            1.322403295059     0.102941650355    -0.489640476920
    H            2.929600886303    -1.053933272937     0.395347589469
    H            2.959337163165     0.647207584742     0.823837375246
    C            0.311748109561    -0.157350459806     0.620207588970
    H            1.140730119800    -0.592298246847    -1.300720860468
    H            1.169612128064     1.102192185639    -0.876210772110
    N           -1.069387153135    -0.004962866513     0.088668736000
    H            0.378254022441    -1.162813153631     0.999636678678
    H            0.404093675061     0.562480257308     1.417352099528
    O           -1.487403711857     1.099160446335    -0.019333972579
    O           -1.649603609545    -0.992219549930    -0.215935169079

  Mulliken Charges: (a.u.)
   Center  Symbol    Alpha    Beta     Spin     Total
       1     H     0.44166  0.44166  0.00000  0.11668
       2     C     3.15110  3.15110  0.00000 -0.30220
       3     C     3.09606  3.09606  0.00000 -0.19211
       4     H     0.45160  0.45160  0.00000  0.09680
       5     H     0.45165  0.45165  0.00000  0.09669
       6     C     3.03939  3.03939  0.00000 -0.07877
       7     H     0.43972  0.43972  0.00000  0.12056
       8     H     0.43629  0.43629  0.00000  0.12741
       9     N     3.27611  3.27611  0.00000  0.44777
      10     H     0.43400  0.43400  0.00000  0.13200
      11     H     0.43532  0.43532  0.00000  0.12936
      12     O     4.17494  4.17494  0.00000 -0.34988
      13     O     4.17215  4.17215  0.00000 -0.34431

   Total alpha = 24.00000, Total beta = 24.00000, Total charge = -0.00000
