                              Psi4 1.0.54 Driver

  ==> Input File <==

--------------------------------------------------------------------------
set {
	reference rhf
	basis cc-pvtz
}

set_num_threads( 4 )
memory 2 gb

molecule MOL {
0 1

H	 1.763560	 -1.684256	 0.238989
O	 1.087260	 -1.112860	 -0.074349
C	 1.135873	 0.113391	 0.608264
C	 0.027642	 1.012027	 0.090274
H	 2.093675	 0.600377	 0.443256
H	 1.032093	 -0.043918	 1.678285
C	 -1.138737	 0.285728	 -0.581921
H	 0.464661	 1.708096	 -0.618252
H	 -0.340737	 1.603071	 0.925246
C	 -1.933983	 -0.631436	 0.343653
H	 -0.763151	 -0.285569	 -1.422081
H	 -1.808359	 1.035291	 -0.992333
H	 -2.789188	 -1.049673	 -0.174718
H	 -1.335629	 -1.461368	 0.700418
H	 -2.305435	 -0.092167	 1.209725

	symmetry c1
}
set optking {
	frozen_dihedral = ("
		2 3 4 8
	")
}

ee,wfn = optimize('scf', return_wfn=True)
oeprop( wfn, 'DIPOLE', 'QUADRUPOLE', 'MULLIKEN_CHARGES')
f=open( 'psi4out.xyz', 'w' )
f.write( "15  " )
f.write( str(ee) + "\n" )
f.write( MOL.save_string_xyz() )
f.close()
--------------------------------------------------------------------------

    Molecular point group: c1
  Charge       = 0
  Multiplicity = 1
  Basis Set: CC-PVTZ
  Basis Set:
  @DF-RHF Final Energy:  -232.23109690674266
    Total Energy =                       -232.2310969067426072
    Molecular point group: c1
  Basis Set: CC-PVTZ
  Basis Set:
  Basis Set: CC-PVTZ
  Basis Set:
  @DF-RHF Final Energy:  -232.23110037524521
    Total Energy =                       -232.2311003752452621
  Basis Set: CC-PVTZ
  Basis Set:
  Basis Set: CC-PVTZ
  Basis Set:
  @DF-RHF Final Energy:  -232.23233204359636
    Total Energy =                       -232.2323320435961023
  Basis Set: CC-PVTZ
  Basis Set:
  Basis Set: CC-PVTZ
  Basis Set:
  @DF-RHF Final Energy:  -232.23239396936435
    Total Energy =                       -232.2323939693645229
  Basis Set: CC-PVTZ
  Basis Set:
  Basis Set: CC-PVTZ
  Basis Set:
  @DF-RHF Final Energy:  -232.23241505145296
    Total Energy =                       -232.2324150514529606
  Basis Set: CC-PVTZ
  Basis Set:
  Charge       = 0
  Multiplicity = 1
  Basis Set: CC-PVTZ
  Basis Set:

    Orbital Energies (a.u.)
    -----------------------

    Doubly Occupied:

       1A    -20.547218     2A    -11.267038     3A    -11.211452
       4A    -11.205645     5A    -11.197013     6A     -1.365073
       7A     -1.061564     8A     -0.969032     9A     -0.866842
      10A     -0.774938    11A     -0.705422    12A     -0.650910
      13A     -0.608925    14A     -0.572616    15A     -0.563040
      16A     -0.528015    17A     -0.508092    18A     -0.477804
      19A     -0.463927    20A     -0.451735    21A     -0.428822

  @DF-RHF Final Energy:  -232.23241586635388

   => Energetics <=

    Nuclear Repulsion Energy =            193.3594291085651378
    One-Electron Energy =                -698.3334423356950538
    Two-Electron Energy =                 272.7415973607759838
    DFT Exchange-Correlation Energy =       0.0000000000000000
    Empirical Dispersion Energy =           0.0000000000000000
    PCM Polarization Energy =               0.0000000000000000
    EFP Energy =                            0.0000000000000000
    Total Energy =                       -232.2324158663539606
    Molecular point group: c1
  Basis Set: CC-PVTZ
  Basis Set:

  -Total Gradient:
     Atom            X                  Y                   Z
    ------   -----------------  -----------------  -----------------
       1       -0.000024827567     0.000029003428    -0.000015712467
       2       -0.003420066064    -0.002197540457     0.003190014306
       3        0.004542914007     0.003935624086    -0.002992091314
       4       -0.001295159070    -0.006031754919    -0.005208821650
       5       -0.000011610039    -0.000004570521     0.000010410270
       6        0.000012932258    -0.000042718634    -0.000021777639
       7        0.000047593046     0.000046980459    -0.000035953540
       8        0.000140171765     0.004259124629     0.005003683957
       9       -0.000014570938     0.000008061684     0.000012625024
      10       -0.000001282427     0.000013653032     0.000057604319
      11        0.000005744982     0.000022853695     0.000021320137
      12        0.000014191352    -0.000027194248     0.000003042272
      13        0.000010645740     0.000003887250     0.000017222918
      14       -0.000022207517     0.000010543707    -0.000021719944
      15        0.000015530475    -0.000025953194    -0.000019846648

  **** Optimization is complete! (in 6 steps) ****
    Final optimized geometry and variables:
    Molecular point group: c1

    Geometry (in Angstrom), charge = 0, multiplicity = 1:

    H            2.101943569911    -1.386500548210     0.333056352477
    O            1.375262136056    -0.924745407478    -0.041894270036
    C            1.195593334952     0.299624084752     0.623514077486
    C            0.067258828900     1.108774849150    -0.029366033122
    H            2.112792865783     0.880361901392     0.611441193679
    H            0.949700503610     0.105844363721     1.664259455140
    C           -1.002382312998     0.304920849644    -0.765678196374
    H            0.496025359410     1.862278896861    -0.681498031269
    H           -0.412587689416     1.680576001897     0.761767282199
    C           -1.833150393108    -0.596834076980     0.143255063716
    H           -0.539923289496    -0.290006054305    -1.542016865952
    H           -1.661965637371     1.010098587509    -1.262361681168
    H           -2.603188723667    -1.108916732415    -0.422685349079
    H           -1.217883707757    -1.349880859782     0.618381879332
    H           -2.325683562553    -0.021278904649     0.921214864382

  Mulliken Charges: (a.u.)
   Center  Symbol    Alpha    Beta     Spin     Total
       1     H     0.39694  0.39694  0.00000  0.20611
       2     O     4.19512  4.19512  0.00000 -0.39023
       3     C     2.97892  2.97892  0.00000  0.04216
       4     C     3.10122  3.10122  0.00000 -0.20245
       5     H     0.46200  0.46200  0.00000  0.07600
       6     H     0.46932  0.46932  0.00000  0.06135
       7     C     3.08258  3.08258  0.00000 -0.16516
       8     H     0.44866  0.44866  0.00000  0.10268
       9     H     0.45691  0.45691  0.00000  0.08618
      10     C     3.15151  3.15151  0.00000 -0.30302
      11     H     0.44795  0.44795  0.00000  0.10410
      12     H     0.45070  0.45070  0.00000  0.09860
      13     H     0.44927  0.44927  0.00000  0.10147
      14     H     0.44987  0.44987  0.00000  0.10027
      15     H     0.45903  0.45903  0.00000  0.08193

   Total alpha = 21.00000, Total beta = 21.00000, Total charge = -0.00000

*** Psi4 exiting successfully. Buy a developer a beer!
