  ==> Input File <==

--------------------------------------------------------------------------
set {
	reference rhf
	basis cc-pvtz
}

set_num_threads( 4 )
memory 2 gb

molecule MOL {
0 1

H	 -2.799582	 0.433858	 0.365075
O	 -2.041679	 -0.058866	 0.103463
C	 -0.959304	 0.780994	 -0.094939
C	 0.354905	 0.037902	 -0.006215
H	 -0.985899	 1.279578	 -1.057596
H	 -0.969809	 1.529522	 0.682889
F	 0.412060	 -0.931028	 -0.902708
F	 1.359641	 0.856111	 -0.239961
F	 0.545380	 -0.506387	 1.171682

	symmetry c1
}
set optking {
	frozen_dihedral = ("
		1 2 3 5
	")
}

ee = optimize('scf')
oeprop('DIPOLE', 'QUADRUPOLE', 'MULLIKEN_CHARGES')
f=open( 'psi4out.xyz', 'w' )
f.write( "9  " )
f.write( str(ee) + "\n" )
f.write( MOL.save_string_xyz() )
f.close()
--------------------------------------------------------------------------

    Molecular point group: c1
  Charge       = 0
  Multiplicity = 1
  Basis Set: CC-PVTZ
  Basis Set:
  @DF-RHF Final Energy:  -450.84294168792610
    Total Energy =                       -450.8429416879260998
    Molecular point group: c1
  Basis Set: CC-PVTZ
  Basis Set:
  Basis Set: CC-PVTZ
  Basis Set:
  @DF-RHF Final Energy:  -450.84427630036066
    Total Energy =                       -450.8442763003607752
  Basis Set: CC-PVTZ
  Basis Set:
  Basis Set: CC-PVTZ
  Basis Set:
  @DF-RHF Final Energy:  -450.84451673260139
    Total Energy =                       -450.8445167326014484
  Basis Set: CC-PVTZ
  Basis Set:
  Basis Set: CC-PVTZ
  Basis Set:
  @DF-RHF Final Energy:  -450.84452845395140
    Total Energy =                       -450.8445284539513978
  Basis Set: CC-PVTZ
  Basis Set:
  Basis Set: CC-PVTZ
  Basis Set:
  @DF-RHF Final Energy:  -450.84453047699930
    Total Energy =                       -450.8445304769993527
  Basis Set: CC-PVTZ
  Basis Set:
  Charge       = 0
  Multiplicity = 1
  Basis Set: CC-PVTZ
  Basis Set:

    Orbital Energies (a.u.)
    -----------------------

    Doubly Occupied:

       1A    -26.333616     2A    -26.330213     3A    -26.330030
       4A    -20.582613     5A    -11.490677     6A    -11.310077
       7A     -1.741913     8A     -1.638101     9A     -1.636618
      10A     -1.406322    11A     -1.050787    12A     -0.923461
      13A     -0.833234    14A     -0.831553    15A     -0.788464
      16A     -0.739114    17A     -0.714058    18A     -0.703908
      19A     -0.672736    20A     -0.657368    21A     -0.642933
      22A     -0.641772    23A     -0.600380    24A     -0.531096
      25A     -0.483580

  @DF-RHF Final Energy:  -450.84453060581166

   => Energetics <=

    Nuclear Repulsion Energy =            277.8088316958254609
    One-Electron Energy =               -1178.0774767762527517
    Two-Electron Energy =                 449.4241144746157488
    DFT Exchange-Correlation Energy =       0.0000000000000000
    Empirical Dispersion Energy =           0.0000000000000000
    PCM Polarization Energy =               0.0000000000000000
    EFP Energy =                            0.0000000000000000
    Total Energy =                       -450.8445306058115420
    Molecular point group: c1
  Basis Set: CC-PVTZ
  Basis Set:

  -Total Gradient:
     Atom            X                  Y                   Z
    ------   -----------------  -----------------  -----------------
       1        0.000071130428    -0.000025661359     0.000270754251
       2       -0.000046063901    -0.000020177040    -0.000341571597
       3       -0.000166210462     0.000217918587     0.000158399273
       4        0.000030953777    -0.000004452998     0.000001890587
       5        0.000148935411    -0.000170759560    -0.000091443984
       6       -0.000003177667    -0.000018410512    -0.000002863932
       7       -0.000025092122    -0.000001727435    -0.000001570298
       8       -0.000005851847     0.000004136398     0.000019045887
       9       -0.000004623617     0.000019133917    -0.000012640184

  **** Optimization is complete! (in 6 steps) ****
    Final optimized geometry and variables:
    Molecular point group: c1

    Geometry (in Angstrom), charge = 0, multiplicity = 1:

    H           -2.775868176311     0.377377414946     0.335986400748
    O           -1.994437227734    -0.087508095383     0.101388096377
    C           -0.944614177804     0.796286440201    -0.099081026910
    C            0.350332363056     0.023203396950    -0.022491736825
    H           -0.982548488867     1.264448741573    -1.076468929724
    H           -0.898196101511     1.568269493068     0.660059432656
    F            0.410375925379    -0.930172425966    -0.922173965323
    F            1.362569191015     0.841990370668    -0.238601608089
    F            0.528579140357    -0.526048948489     1.156471613254

  Mulliken Charges: (a.u.)
   Center  Symbol    Alpha    Beta     Spin     Total
       1     H     0.38951  0.38951  0.00000  0.22097
       2     O     4.18583  4.18583  0.00000 -0.37165
       3     C     2.98605  2.98605  0.00000  0.02790
       4     C     2.67646  2.67646  0.00000  0.64708
       5     H     0.46509  0.46509  0.00000  0.06982
       6     H     0.46485  0.46485  0.00000  0.07030
       7     F     4.60869  4.60869  0.00000 -0.21738
       8     F     4.61437  4.61437  0.00000 -0.22874
       9     F     4.60915  4.60915  0.00000 -0.21830

   Total alpha = 25.00000, Total beta = 25.00000, Total charge = -0.00000
