  ==> Input File <==

--------------------------------------------------------------------------
set {
	reference rhf
	basis cc-pvtz
}

set_num_threads( 4 )
memory 2 gb

molecule MOL {
0 1

H	 1.870644	 -0.250218	 -2.933264
O	 2.329335	 0.158520	 -2.221044
C	 1.530910	 0.324705	 -1.151707
C	 2.083659	 0.918811	 -0.026262
C	 0.210162	 -0.070185	 -1.145001
H	 3.112605	 1.218348	 -0.052815
C	 1.314398	 1.114533	 1.097696
H	 -0.241926	 -0.530717	 -1.998714
C	 -0.532034	 0.141680	 0.000000
H	 1.750086	 1.574457	 1.962793
C	 -0.014625	 0.726349	 1.128597
N	 -1.937041	 -0.281114	 0.000000
H	 -0.623759	 0.871889	 1.993754
O	 -2.159542	 -1.446261	 0.000000
O	 -2.764978	 0.565773	 0.000000

	symmetry c1
}
set optking {
	frozen_dihedral = ("
		11 9 12 14
	")
}

ee = optimize('scf')
oeprop('DIPOLE', 'QUADRUPOLE', 'MULLIKEN_CHARGES')
f=open( 'psi4out.xyz', 'w' )
f.write( "15  " )
f.write( str(ee) + "\n" )
f.write( MOL.save_string_xyz() )
f.close()
--------------------------------------------------------------------------

    Molecular point group: c1
  Charge       = 0
  Multiplicity = 1
  Basis Set: CC-PVTZ
  Basis Set:
  @DF-RHF Final Energy:  -509.21075293335394
    Total Energy =                       -509.2107529333541152
    Molecular point group: c1
  Basis Set: CC-PVTZ
  Basis Set:
  Basis Set: CC-PVTZ
  Basis Set:
  @DF-RHF Final Energy:  -509.20450364160087
    Total Energy =                       -509.2045036416008088
  Basis Set: CC-PVTZ
  Basis Set:
  Basis Set: CC-PVTZ
  Basis Set:
  @DF-RHF Final Energy:  -509.21076368550990
    Total Energy =                       -509.2107636855098463
  Basis Set: CC-PVTZ
  Basis Set:
  Basis Set: CC-PVTZ
  Basis Set:
  @DF-RHF Final Energy:  -509.21116119883459
    Total Energy =                       -509.2111611988345885
  Basis Set: CC-PVTZ
  Basis Set:
  Basis Set: CC-PVTZ
  Basis Set:
  @DF-RHF Final Energy:  -509.21116244780808
    Total Energy =                       -509.2111624478081922
  Basis Set: CC-PVTZ
  Basis Set:
  Charge       = 0
  Multiplicity = 1
  Basis Set: CC-PVTZ
  Basis Set:

    Orbital Energies (a.u.)
    -----------------------

    Doubly Occupied:

       1A    -20.610480     2A    -20.600321     3A    -20.599922
       4A    -15.850758     5A    -11.330545     6A    -11.314129
       7A    -11.265108     8A    -11.263988     9A    -11.258064
      10A    -11.250953    11A     -1.647766    12A     -1.443428
      13A     -1.430984    14A     -1.204568    15A     -1.096671
      16A     -1.049947    17A     -0.966862    18A     -0.886743
      19A     -0.833759    20A     -0.793882    21A     -0.767668
      22A     -0.741006    23A     -0.725037    24A     -0.712662
      25A     -0.672938    26A     -0.636163    27A     -0.623747
      28A     -0.596621    29A     -0.565587    30A     -0.550043
      31A     -0.536712    32A     -0.495444    33A     -0.488352
      34A     -0.461062    35A     -0.376816    36A     -0.346433

  @DF-RHF Final Energy:  -509.21116267624177

   => Energetics <=

    Nuclear Repulsion Energy =            503.9861516442290394
    One-Electron Energy =               -1694.4042822431949844
    Two-Electron Energy =                 681.2069679227238339
    DFT Exchange-Correlation Energy =       0.0000000000000000
    Empirical Dispersion Energy =           0.0000000000000000
    PCM Polarization Energy =               0.0000000000000000
    EFP Energy =                            0.0000000000000000
    Total Energy =                       -509.2111626762421110
    Molecular point group: c1
  Basis Set: CC-PVTZ
  Basis Set:

  -Total Gradient:
     Atom            X                  Y                   Z
    ------   -----------------  -----------------  -----------------
       1       -0.000002445204     0.000001461124    -0.000002256551
       2        0.000014381334    -0.000008670179    -0.000003469190
       3       -0.000057376645     0.000003262054     0.000008568007
       4       -0.000003686979     0.000029104312     0.000016154515
       5        0.000010123464     0.000073790133    -0.000025623159
       6        0.000000548875     0.000000596860    -0.000002022094
       7        0.000036524360    -0.000044563630    -0.000005267491
       8       -0.000008097119    -0.000004787673    -0.000009191799
       9       -0.001503898296     0.004649349032    -0.000053668397
      10       -0.000005678478     0.000002829371    -0.000002429139
      11        0.001043427328    -0.003308772463     0.001130255805
      12        0.000392321037    -0.001294667648    -0.005348364391
      13       -0.000007262721     0.000005677033     0.000009911528
      14        0.000075785942    -0.000110588152     0.004284481537
      15        0.000015333115     0.000005979826     0.000002920817

  **** Optimization is complete! (in 6 steps) ****
    Final optimized geometry and variables:
    Molecular point group: c1

    Geometry (in Angstrom), charge = 0, multiplicity = 1:

    H            1.925062937372    -0.437643237425    -2.662346111445
    O            2.380371329693    -0.025926452690    -1.949761244580
    C            1.581619424193     0.143532864936    -0.883590857692
    C            2.134701023830     0.730699278397     0.245306494921
    C            0.258132322018    -0.250984360347    -0.879123303483
    H            3.166086734903     1.020979809616     0.223958830956
    C            1.362766725288     0.926214232202     1.367021032260
    H           -0.185947199252    -0.732241583686    -1.728936957041
    C           -0.484044088497    -0.014003884737     0.255743453795
    H            1.801225546806     1.372928456223     2.237844358042
    C            0.027111410975     0.556877307611     1.389883878573
    N           -1.878803179629    -0.463304919832     0.266869756346
    H           -0.587460722468     0.715466973451     2.252097079069
    O           -2.067027007330    -1.632689944969     0.247900164920
    O           -2.715437185969     0.372270101987     0.326109627331

  Mulliken Charges: (a.u.)
   Center  Symbol    Alpha    Beta     Spin     Total
       1     H     0.38455  0.38455  0.00000  0.23090
       2     O     4.16719  4.16719  0.00000 -0.33438
       3     C     2.84173  2.84173  0.00000  0.31653
       4     C     3.10736  3.10736  0.00000 -0.21472
       5     C     3.14008  3.14008  0.00000 -0.28017
       6     H     0.41420  0.41420  0.00000  0.17159
       7     C     3.04941  3.04941  0.00000 -0.09882
       8     H     0.42224  0.42224  0.00000  0.15553
       9     C     2.92128  2.92128  0.00000  0.15745
      10     H     0.41632  0.41632  0.00000  0.16737
      11     C     3.10753  3.10753  0.00000 -0.21506
      12     N     3.28827  3.28827  0.00000  0.42346
      13     H     0.41267  0.41267  0.00000  0.17465
      14     O     4.16396  4.16396  0.00000 -0.32792
      15     O     4.16321  4.16321  0.00000 -0.32643

   Total alpha = 36.00000, Total beta = 36.00000, Total charge = -0.00000
