  ==> Input File <==

--------------------------------------------------------------------------
set {
	reference rhf
	basis 6-31G*
}

set_num_threads( 1 )
memory 2 gb

molecule MOL {
0 1

H	 -2.570561	 -0.626790	 -0.776789
O	 -2.347518	 -0.290803	 0.079804
C	 -1.184022	 0.487508	 -0.006784
C	 0.062599	 -0.378592	 0.031606
H	 -1.176523	 1.099369	 -0.904519
H	 -1.187323	 1.153111	 0.844927
O	 1.171513	 0.459272	 -0.058250
H	 0.050699	 -1.089204	 -0.797170
H	 0.078739	 -0.954914	 0.954740
C	 2.397842	 -0.198080	 -0.002151
H	 2.508049	 -0.905315	 -0.822092
H	 3.173794	 0.550865	 -0.078850
H	 2.517602	 -0.735921	 0.936026

	symmetry c1
}
set optking {
	frozen_dihedral = ("
		8 4 3 5,
		10 7 4 8,
		4 7 10 13
	")
}

ee = energy('scf')
oeprop('DIPOLE', 'QUADRUPOLE', 'MULLIKEN_CHARGES')
f=open( 'psi4out.xyz', 'w' )
f.write( "13  " )
f.write( str(ee) + "\n" )
f.write( MOL.save_string_xyz() )
f.close()
--------------------------------------------------------------------------

    Molecular point group: c1

    Geometry (in Angstrom), charge = 0, multiplicity = 1:

       Center              X                  Y                   Z               Mass
    ------------   -----------------  -----------------  -----------------  -----------------
           H         -2.569613841782    -0.628158448992    -0.776368792586     1.007825032070
           O         -2.346570841782    -0.292171448992     0.080224207414    15.994914619560
           C         -1.183074841782     0.486139551008    -0.006363792586    12.000000000000
           C          0.063546158218    -0.379960448992     0.032026207414    12.000000000000
           H         -1.175575841782     1.098000551008    -0.904098792586     1.007825032070
           H         -1.186375841782     1.151742551008     0.845347207414     1.007825032070
           O          1.172460158218     0.457903551008    -0.057829792586    15.994914619560
           H          0.051646158218    -1.090572448992    -0.796749792586     1.007825032070
           H          0.079686158218    -0.956282448992     0.955160207414     1.007825032070
           C          2.398789158218    -0.199448448992    -0.001730792586    12.000000000000
           H          2.508996158218    -0.906683448992    -0.821671792586     1.007825032070
           H          3.174741158218     0.549496551008    -0.078429792586     1.007825032070
           H          2.518549158218    -0.737289448992     0.936446207414     1.007825032070

  Charge       = 0
  Multiplicity = 1
  Basis Set: 6-31G*
  Basis Set:

    Orbital Energies (a.u.)
    -----------------------

    Doubly Occupied:

       1A    -20.561694     2A    -20.560022     3A    -11.269767
       4A    -11.269747     5A    -11.268884     6A     -1.388206
       7A     -1.365077     8A     -1.018136     9A     -0.912989
      10A     -0.840185    11A     -0.710729    12A     -0.674048
      13A     -0.658366    14A     -0.638247    15A     -0.596634
      16A     -0.566063    17A     -0.545710    18A     -0.487413
      19A     -0.483644    20A     -0.437945    21A     -0.421290

  @DF-RHF Final Energy:  -267.95054178312552

   => Energetics <=

    Nuclear Repulsion Energy =            190.1882250088073079
    One-Electron Energy =                -742.9279002057454591
    Two-Electron Energy =                 284.7891334138129196
    DFT Exchange-Correlation Energy =       0.0000000000000000
    Empirical Dispersion Energy =           0.0000000000000000
    PCM Polarization Energy =               0.0000000000000000
    EFP Energy =                            0.0000000000000000
    Total Energy =                       -267.9505417831252316

  Mulliken Charges: (a.u.)
   Center  Symbol    Alpha    Beta     Spin     Total
       1     H     0.28048  0.28048  0.00000  0.43905
       2     O     4.37121  4.37121  0.00000 -0.74243
       3     C     3.00608  3.00608  0.00000 -0.01215
       4     C     2.99503  2.99503  0.00000  0.00994
       5     H     0.42245  0.42245  0.00000  0.15511
       6     H     0.40908  0.40908  0.00000  0.18183
       7     O     4.30774  4.30774  0.00000 -0.61547
       8     H     0.43666  0.43666  0.00000  0.12667
       9     H     0.42349  0.42349  0.00000  0.15302
      10     C     3.07985  3.07985  0.00000 -0.15969
      11     H     0.42929  0.42929  0.00000  0.14142
      12     H     0.41092  0.41092  0.00000  0.17817
      13     H     0.42773  0.42773  0.00000  0.14453

   Total alpha = 21.00000, Total beta = 21.00000, Total charge = -0.00000
