  ==> Input File <==

--------------------------------------------------------------------------
set {
	reference rhf
	basis 6-31G*
}

set_num_threads( 4 )
memory 2 gb

molecule MOL {
0 1

H	 -3.892951	 0.981613	 -0.358725
C	 -3.196921	 0.361773	 0.172313
C	 -2.076860	 -0.007332	 -0.404944
H	 -3.439953	 0.057760	 1.173024
O	 -1.445745	 0.775552	 -1.319081
H	 -1.584035	 -0.935921	 -0.176817
C	 -0.368910	 0.241272	 -2.009604
C	 -0.813454	 -0.512322	 -3.242799
H	 0.220807	 -0.431570	 -1.397059
H	 0.256504	 1.061364	 -2.330218
F	 0.250135	 -0.970913	 -3.886443
F	 -1.575271	 -1.549362	 -2.936181
F	 -1.491590	 0.252894	 -4.072839

	symmetry c1
}
set optking {
	frozen_dihedral = ("
		6 3 2 1
	")
}

ee = optimize('scf')
oeprop('DIPOLE', 'QUADRUPOLE', 'MULLIKEN_CHARGES')
f=open( 'psi4out.xyz', 'w' )
f.write( "13  " )
f.write( str(ee) + "\n" )
f.write( MOL.save_string_xyz() )
f.close()
--------------------------------------------------------------------------

    Molecular point group: c1
  Charge       = 0
  Multiplicity = 1
  Basis Set: 6-31G*
  Basis Set:
  @DF-RHF Final Energy:  -527.51646029659275
    Total Energy =                       -527.5164602965928680
    Molecular point group: c1
  Basis Set: 6-31G*
  Basis Set:
  Basis Set: 6-31G*
  Basis Set:
  @DF-RHF Final Energy:  -527.52695207502279
    Total Energy =                       -527.5269520750232459
  Basis Set: 6-31G*
  Basis Set:
  Basis Set: 6-31G*
  Basis Set:
  @DF-RHF Final Energy:  -527.52799189088023
    Total Energy =                       -527.5279918908803438
  Basis Set: 6-31G*
  Basis Set:
  Basis Set: 6-31G*
  Basis Set:
  @DF-RHF Final Energy:  -527.52806498921336
    Total Energy =                       -527.5280649892135898
  Basis Set: 6-31G*
  Basis Set:
  @DF-RHF Final Energy:  -527.52807327830737
    Total Energy =                       -527.5280732783073745
  @DF-RHF Final Energy:  -527.52807721162856
    Total Energy =                       -527.5280772116285561
  @DF-RHF Final Energy:  -527.52807636635430
    Total Energy =                       -527.5280763663545258
  @DF-RHF Final Energy:  -527.52807500779772
    Total Energy =                       -527.5280750077976109
  @DF-RHF Final Energy:  -527.46016428953078
    Total Energy =                       -527.4601642895308942
  @DF-RHF Final Energy:  -527.42051576058520
    Total Energy =                       -527.4205157605849763
  @DF-RHF Final Energy:  -527.51158136314962
    Total Energy =                       -527.5115813631497304
  @DF-RHF Final Energy:  -527.51602045959260
    Total Energy =                       -527.5160204595927098
  @DF-RHF Final Energy:  -527.52286272677861
    Total Energy =                       -527.5228627267784987
  @DF-RHF Final Energy:  -527.52690512444974
    Total Energy =                       -527.5269051244497405
  @DF-RHF Final Energy:  -527.52802220136391
    Total Energy =                       -527.5280222013639104
  @DF-RHF Final Energy:  -527.52804372180799
    Total Energy =                       -527.5280437218077623
  @DF-RHF Final Energy:  -527.52805298329349
    Total Energy =                       -527.5280529832939465
  @DF-RHF Final Energy:  -527.49990528261469
    Total Energy =                       -527.4999052826150319
  @DF-RHF Final Energy:  -527.52601780186478
    Total Energy =                       -527.5260178018647821
  @DF-RHF Final Energy:  -527.52806520101558
    Total Energy =                       -527.5280652010156928
  @DF-RHF Final Energy:  -527.52807412293919
    Total Energy =                       -527.5280741229391879
  @DF-RHF Final Energy:  -527.52807462993837
    Total Energy =                       -527.5280746299386010
  @DF-RHF Final Energy:  -527.52807459696635
    Total Energy =                       -527.5280745969666896
  @DF-RHF Final Energy:  -527.52807446372947
    Total Energy =                       -527.5280744637292401
  @DF-RHF Final Energy:  -527.52807212983248
    Total Energy =                       -527.5280721298324806
  @DF-RHF Final Energy:  -527.52797552857396
    Total Energy =                       -527.5279755285743022
  @DF-RHF Final Energy:  -527.52807461792759
    Total Energy =                       -527.5280746179273592
  @DF-RHF Final Energy:  -527.52807459887833
    Total Energy =                       -527.5280745988782201
  @DF-RHF Final Energy:  -527.52799696937109
    Total Energy =                       -527.5279969693716566
  @DF-RHF Final Energy:  -527.52807460658926
    Total Energy =                       -527.5280746065891435
  @DF-RHF Final Energy:  -527.52807430491248
    Total Energy =                       -527.5280743049127068
  @DF-RHF Final Energy:  -527.52807401558437
    Total Energy =                       -527.5280740155841386
  @DF-RHF Final Energy:  -527.52395933792070
    Total Energy =                       -527.5239593379207008
  @DF-RHF Final Energy:  -527.52786318306551
    Total Energy =                       -527.5278631830651648
  @DF-RHF Final Energy:  -527.52807372947848
    Total Energy =                       -527.5280737294782512
  @DF-RHF Final Energy:  -527.52807250388651
    Total Energy =                       -527.5280725038863920
  Basis Set: 6-31G*
  Basis Set:
  @DF-RHF Final Energy:  -527.52807476350495
    Total Energy =                       -527.5280747635047192
  Basis Set: 6-31G*
  Basis Set:
  Basis Set: 6-31G*
  Basis Set:
  @DF-RHF Final Energy:  -527.52807476803036
    Total Energy =                       -527.5280747680303648
  Basis Set: 6-31G*
  Basis Set:
  Basis Set: 6-31G*
  Basis Set:
  @DF-RHF Final Energy:  -527.52807475911027
    Total Energy =                       -527.5280747591102681
  Basis Set: 6-31G*
  Basis Set:
  Charge       = 0
  Multiplicity = 1
  Basis Set: 6-31G*
  Basis Set:

    Orbital Energies (a.u.)
    -----------------------

    Doubly Occupied:

       1A    -26.345414     2A    -26.344995     3A    -26.341444
       4A    -20.608123     5A    -11.503846     6A    -11.318792
       7A    -11.301191     8A    -11.215922     9A     -1.742720
      10A     -1.640912    11A     -1.639217    12A     -1.438054
      13A     -1.084439    14A     -1.016858    15A     -0.925975
      16A     -0.837392    17A     -0.832011    18A     -0.822060
      19A     -0.791502    20A     -0.722821    21A     -0.711947
      22A     -0.696845    23A     -0.676081    24A     -0.661007
      25A     -0.655434    26A     -0.644116    27A     -0.634430
      28A     -0.584676    29A     -0.563598    30A     -0.524515
      31A     -0.511367    32A     -0.348825

  @DF-RHF Final Energy:  -527.52807437911133

   => Energetics <=

    Nuclear Repulsion Energy =            414.0468103222668788
    One-Electron Energy =               -1551.7767105375585288
    Two-Electron Energy =                 610.2018258361806602
    DFT Exchange-Correlation Energy =       0.0000000000000000
    Empirical Dispersion Energy =           0.0000000000000000
    PCM Polarization Energy =               0.0000000000000000
    EFP Energy =                            0.0000000000000000
    Total Energy =                       -527.5280743791111036
    Molecular point group: c1
  Basis Set: 6-31G*
  Basis Set:

  -Total Gradient:
     Atom            X                  Y                   Z
    ------   -----------------  -----------------  -----------------
       1       -0.008028472203    -0.013109755425    -0.008655230967
       2        0.007793774831     0.015732661116     0.006105763688
       3        0.008468042009     0.003094993246     0.016201705057
       4        0.000026894432     0.000166349610     0.000154670796
       5        0.000478087806     0.000113805475     0.000132979505
       6       -0.008539060165    -0.006101481987    -0.014023259207
       7       -0.000125209296     0.000098760257     0.000033727640
       8       -0.000213744103    -0.000255937073    -0.000151777734
       9        0.000018481021     0.000000702588    -0.000023171601
      10        0.000008634342     0.000000446648     0.000017186218
      11        0.000059680304     0.000225551404     0.000058557359
      12       -0.000069610533     0.000196280012     0.000013901784
      13        0.000122501558    -0.000162375873     0.000134947457

    Molecular point group: c1

    Geometry (in Angstrom), charge = 0, multiplicity = 1:

    H           -2.477756674657     1.415422716356     2.094058106782
    C           -1.850508537777     0.653843350894     2.519560446174
    C           -0.707848222537     0.279268909751     1.950590506248
    H           -2.322701634618     0.023587299419     3.249703901339
    O           -0.119790598119     1.073582868761     1.013289794049
    H           -0.330139082006    -0.705864597789     2.048460503101
    C            0.952257646233     0.515382372429     0.289290768857
    C            0.471251852565    -0.307557912169    -0.879649207185
    H            1.574810540332    -0.115741078961     0.912774616937
    H            1.542058119098     1.338272721181    -0.085182321622
    F            1.487568913818    -0.800898245677    -1.558742740768
    F           -0.262148942056    -1.348655968890    -0.491932527084
    F           -0.300937343195     0.421299114257    -1.689066866954

  Mulliken Charges: (a.u.)
   Center  Symbol    Alpha    Beta     Spin     Total
       1     H     0.40072  0.40072  0.00000  0.19856
       2     C     3.23132  3.23132  0.00000 -0.46264
       3     C     2.90063  2.90063  0.00000  0.19874
       4     H     0.41003  0.41003  0.00000  0.17993
       5     O     4.29934  4.29934  0.00000 -0.59868
       6     H     0.40519  0.40519  0.00000  0.18963
       7     C     3.06423  3.06423  0.00000 -0.12846
       8     C     2.45604  2.45604  0.00000  1.08791
       9     H     0.40550  0.40550  0.00000  0.18901
      10     H     0.38989  0.38989  0.00000  0.22023
      11     F     4.68252  4.68252  0.00000 -0.36504
      12     F     4.68023  4.68023  0.00000 -0.36045
      13     F     4.67437  4.67437  0.00000 -0.34874

   Total alpha = 32.00000, Total beta = 32.00000, Total charge =  0.00000
