  ==> Input File <==

--------------------------------------------------------------------------
set {
	reference rhf
	basis cc-pvtz
}

set_num_threads( 4 )
memory 2 gb

molecule MOL {
0 1

H	 -2.189887	 -0.813019	 0.526964
C	 -1.781504	 -0.921517	 -0.472584
O	 -0.775228	 0.000056	 -0.739966
H	 -2.574398	 -0.731550	 -1.182079
H	 -1.451184	 -1.947054	 -0.602175
C	 0.406133	 -0.000384	 0.036994
C	 1.526415	 -0.003194	 -0.997339
C	 0.498772	 1.259027	 0.900673
C	 0.495883	 -1.257378	 0.904465
H	 1.452279	 0.872071	 -1.630204
H	 1.451276	 -0.881020	 -1.626529
H	 2.497919	 -0.002741	 -0.517601
H	 0.368981	 2.144239	 0.289753
H	 1.470064	 1.313479	 1.377660
H	 -0.248448	 1.271586	 1.684297
H	 0.363971	 -2.144195	 0.296316
H	 1.467114	 -1.312636	 1.381470
H	 -0.251246	 -1.265768	 1.688235

	symmetry c1
}
set optking {
	frozen_dihedral = ("
		2 3 6 7
	")
}

ee = optimize('scf')
oeprop('DIPOLE', 'QUADRUPOLE', 'MULLIKEN_CHARGES')
f=open( 'psi4out.xyz', 'w' )
f.write( "18  " )
f.write( str(ee) + "\n" )
f.write( MOL.save_string_xyz() )
f.close()
--------------------------------------------------------------------------

    Molecular point group: c1
  Charge       = 0
  Multiplicity = 1
  Basis Set: CC-PVTZ
  Basis Set:
  @DF-RHF Final Energy:  -271.26969529323509
    Total Energy =                       -271.2696952932353724
    Molecular point group: c1
  Basis Set: CC-PVTZ
  Basis Set:
  Basis Set: CC-PVTZ
  Basis Set:
  @DF-RHF Final Energy:  -271.27023354698542
    Total Energy =                       -271.2702335469855370
  Basis Set: CC-PVTZ
  Basis Set:
  Basis Set: CC-PVTZ
  Basis Set:
  @DF-RHF Final Energy:  -271.27242706659382
    Total Energy =                       -271.2724270665938775
  Basis Set: CC-PVTZ
  Basis Set:
  Basis Set: CC-PVTZ
  Basis Set:
  @DF-RHF Final Energy:  -271.27261015046440
    Total Energy =                       -271.2726101504647431
  Basis Set: CC-PVTZ
  Basis Set:
  Basis Set: CC-PVTZ
  Basis Set:
  @DF-RHF Final Energy:  -271.27262022263483
    Total Energy =                       -271.2726202226347141
  Basis Set: CC-PVTZ
  Basis Set:
  Basis Set: CC-PVTZ
  Basis Set:
  @DF-RHF Final Energy:  -271.27262842258000
    Total Energy =                       -271.2726284225797713
  Basis Set: CC-PVTZ
  Basis Set:
  Basis Set: CC-PVTZ
  Basis Set:
  @DF-RHF Final Energy:  -271.27263186947363
    Total Energy =                       -271.2726318694736847
  Basis Set: CC-PVTZ
  Basis Set:
  Charge       = 0
  Multiplicity = 1
  Basis Set: CC-PVTZ
  Basis Set:

    Orbital Energies (a.u.)
    -----------------------

    Doubly Occupied:

       1A    -20.537189     2A    -11.280721     3A    -11.259490
       4A    -11.211458     5A    -11.202680     6A    -11.201968
       7A     -1.369452     8A     -1.075531     9A     -0.951146
      10A     -0.936130    11A     -0.912161    12A     -0.752213
      13A     -0.657621    14A     -0.648147    15A     -0.638397
      16A     -0.583108    17A     -0.577787    18A     -0.548784
      19A     -0.543122    20A     -0.526718    21A     -0.515330
      22A     -0.491905    23A     -0.483978    24A     -0.442780
      25A     -0.399299

  @DF-RHF Final Energy:  -271.27263173809996

   => Energetics <=

    Nuclear Repulsion Energy =            272.0531082648599863
    One-Electron Energy =                -907.1572447502394425
    Two-Electron Energy =                 363.8315047472796095
    DFT Exchange-Correlation Energy =       0.0000000000000000
    Empirical Dispersion Energy =           0.0000000000000000
    PCM Polarization Energy =               0.0000000000000000
    EFP Energy =                            0.0000000000000000
    Total Energy =                       -271.2726317380999035
    Molecular point group: c1
  Basis Set: CC-PVTZ
  Basis Set:

  -Total Gradient:
     Atom            X                  Y                   Z
    ------   -----------------  -----------------  -----------------
       1        0.000002194081     0.000002035872     0.000031638472
       2        0.000717523439    -0.001245186544    -0.001331866013
       3       -0.001144693498     0.001337583135     0.001963586431
       4       -0.000000139878    -0.000005262202    -0.000005693540
       5       -0.000042114563     0.000043474731    -0.000004992539
       6        0.000411216577     0.001380871255    -0.000661222662
       7        0.000011740593    -0.001525541194    -0.000034200497
       8       -0.000015249953    -0.000011876540     0.000013716181
       9        0.000034627923    -0.000002564763    -0.000006772228
      10       -0.000007452190     0.000010578451     0.000022138031
      11       -0.000002551971     0.000006434285    -0.000018817546
      12        0.000004727093    -0.000018659711    -0.000007094470
      13        0.000021664713    -0.000023080535    -0.000010680207
      14       -0.000005202049    -0.000011513221     0.000019913539
      15       -0.000006318004     0.000032532708     0.000007929314
      16        0.000017644737     0.000016295747     0.000019220166
      17        0.000011888470     0.000002643416    -0.000001204624
      18       -0.000009505519     0.000011235110     0.000004402193

  **** Optimization is complete! (in 8 steps) ****
    Final optimized geometry and variables:
    Molecular point group: c1

    Geometry (in Angstrom), charge = 0, multiplicity = 1:

    H           -2.267472176278    -0.628832551298     0.598706461338
    C           -1.874681872358    -0.702965520384    -0.411500214385
    O           -0.831053348046     0.183572953066    -0.646621325656
    H           -2.665586956265    -0.435332679505    -1.097998721564
    H           -1.598696788296    -1.734960440715    -0.600341377247
    C            0.381380886677     0.136950625778     0.092233878353
    C            1.499474884100     0.143264569334    -0.946769577621
    C            0.428515839264     1.400334047268     0.948696939536
    C            0.520704950423    -1.101379473190     0.979571646232
    H            1.394319572389     0.999800532959    -1.600497530806
    H            1.452294244787    -0.751696450498    -1.555391296098
    H            2.474323334134     0.187697379035    -0.474242159742
    H            0.327807395058     2.276827627999     0.321465027476
    H            1.362345233494     1.471605268596     1.495124357605
    H           -0.385488953706     1.404217312304     1.664684116908
    H            0.496768487789    -2.015673415187     0.400461181541
    H            1.475053986702    -1.061236988336     1.489460577075
    H           -0.251968542365    -1.151836774890     1.735828067599

  Mulliken Charges: (a.u.)
   Center  Symbol    Alpha    Beta     Spin     Total
       1     H     0.46994  0.46994  0.00000  0.06012
       2     C     3.04093  3.04093  0.00000 -0.08186
       3     O     4.19970  4.19970  0.00000 -0.39940
       4     H     0.44260  0.44260  0.00000  0.11480
       5     H     0.46873  0.46873  0.00000  0.06253
       6     C     2.87070  2.87070  0.00000  0.25861
       7     C     3.14041  3.14041  0.00000 -0.28083
       8     C     3.14265  3.14265  0.00000 -0.28529
       9     C     3.17698  3.17698  0.00000 -0.35396
      10     H     0.44778  0.44778  0.00000  0.10445
      11     H     0.45221  0.45221  0.00000  0.09557
      12     H     0.45865  0.45865  0.00000  0.08269
      13     H     0.44800  0.44800  0.00000  0.10400
      14     H     0.45696  0.45696  0.00000  0.08608
      15     H     0.45177  0.45177  0.00000  0.09645
      16     H     0.44504  0.44504  0.00000  0.10991
      17     H     0.44246  0.44246  0.00000  0.11507
      18     H     0.44448  0.44448  0.00000  0.11104

   Total alpha = 25.00000, Total beta = 25.00000, Total charge = -0.00000
