  ==> Input File <==

--------------------------------------------------------------------------
set {
	reference rhf
	basis 6-31G*
}

set_num_threads( 1 )
memory 2 gb

molecule MOL {
0 1

H	 1.809159	 -1.310850	 0.304640
C	 1.951159	 -0.223429	 0.317018
C	 0.692068	 0.589600	 0.160137
O	 3.039800	 0.234781	 0.447532
C	 -0.558097	 -0.297372	 0.091132
H	 0.791645	 1.202255	 -0.728243
H	 0.616171	 1.253469	 1.020572
C	 -1.850991	 0.512573	 -0.019058
H	 -0.476753	 -0.965681	 -0.762987
H	 -0.604799	 -0.930658	 0.975228
C	 -3.096943	 -0.368295	 -0.099594
H	 -1.800724	 1.150330	 -0.898172
H	 -1.931651	 1.177355	 0.838044
H	 -3.060452	 -1.020287	 -0.967456
H	 -3.996858	 0.233488	 -0.175704
H	 -3.191959	 -0.995686	 0.782074

	symmetry c1
}
set optking {
	frozen_dihedral = ("
		9 5 8 12,
		6 3 5 9
	")
}

ee = energy('scf')
oeprop('DIPOLE', 'QUADRUPOLE', 'MULLIKEN_CHARGES')
f=open( 'psi4out.xyz', 'w' )
f.write( "16  " )
f.write( str(ee) + "\n" )
f.write( MOL.save_string_xyz() )
f.close()
--------------------------------------------------------------------------

    Molecular point group: c1

    Geometry (in Angstrom), charge = 0, multiplicity = 1:

       Center              X                  Y                   Z               Mass
    ------------   -----------------  -----------------  -----------------  -----------------
           H          1.782103234095    -1.381770443361     0.154245992534     1.007825032070
           C          1.924103234095    -0.294349443361     0.166623992534    12.000000000000
           C          0.665012234095     0.518679556639     0.009742992534    12.000000000000
           O          3.012744234095     0.163860556639     0.297137992534    15.994914619560
           C         -0.585152765905    -0.368292443361    -0.059262007466    12.000000000000
           H          0.764589234095     1.131334556639    -0.878637007466     1.007825032070
           H          0.589115234095     1.182548556639     0.870177992534     1.007825032070
           C         -1.878046765905     0.441652556639    -0.169452007466    12.000000000000
           H         -0.503808765905    -1.036601443361    -0.913381007466     1.007825032070
           H         -0.631854765905    -1.001578443361     0.824833992534     1.007825032070
           C         -3.123998765905    -0.439215443361    -0.249988007466    12.000000000000
           H         -1.827779765905     1.079409556639    -1.048566007466     1.007825032070
           H         -1.958706765905     1.106434556639     0.687649992534     1.007825032070
           H         -3.087507765905    -1.091207443361    -1.117850007466     1.007825032070
           H         -4.023913765905     0.162567556639    -0.326098007466     1.007825032070
           H         -3.219014765905    -1.066606443361     0.631679992534     1.007825032070

  Charge       = 0
  Multiplicity = 1
  Basis Set: 6-31G*
  Basis Set:

    Orbital Energies (a.u.)
    -----------------------

    Doubly Occupied:

       1A    -20.561686     2A    -11.327190     3A    -11.236084
       4A    -11.234491     5A    -11.229243     6A    -11.218623
       7A     -1.402085     8A     -1.097136     9A     -1.019418
      10A     -0.904396    11A     -0.812143    12A     -0.796266
      13A     -0.664540    14A     -0.659193    15A     -0.631943
      16A     -0.603471    17A     -0.589284    18A     -0.541250
      19A     -0.537852    20A     -0.495275    21A     -0.488425
      22A     -0.486250    23A     -0.478969    24A     -0.409853

  @DF-RHF Final Energy:  -270.01837126212320

   => Energetics <=

    Nuclear Repulsion Energy =            228.2418268713986151
    One-Electron Energy =                -817.6702824515660950
    Two-Electron Energy =                 319.4100843180440279
    DFT Exchange-Correlation Energy =       0.0000000000000000
    Empirical Dispersion Energy =           0.0000000000000000
    PCM Polarization Energy =               0.0000000000000000
    EFP Energy =                            0.0000000000000000
    Total Energy =                       -270.0183712621234235

  Mulliken Charges: (a.u.)
   Center  Symbol    Alpha    Beta     Spin     Total
       1     H     0.42951  0.42951  0.00000  0.14099
       2     C     2.83404  2.83404  0.00000  0.33192
       3     C     3.20527  3.20527  0.00000 -0.41054
       4     O     4.24111  4.24111  0.00000 -0.48223
       5     C     3.16641  3.16641  0.00000 -0.33282
       6     H     0.39812  0.39812  0.00000  0.20376
       7     H     0.39952  0.39952  0.00000  0.20097
       8     C     3.15177  3.15177  0.00000 -0.30355
       9     H     0.41877  0.41877  0.00000  0.16246
      10     H     0.41845  0.41845  0.00000  0.16310
      11     C     3.24009  3.24009  0.00000 -0.48019
      12     H     0.41996  0.41996  0.00000  0.16008
      13     H     0.41997  0.41997  0.00000  0.16006
      14     H     0.42024  0.42024  0.00000  0.15951
      15     H     0.41647  0.41647  0.00000  0.16707
      16     H     0.42030  0.42030  0.00000  0.15941

   Total alpha = 24.00000, Total beta = 24.00000, Total charge =  0.00000
