                              Psi4 1.0.54 Driver

  ==> Input File <==

--------------------------------------------------------------------------
set {
	reference rhf
	basis cc-pvtz
}

set_num_threads( 4 )
memory 2 gb

molecule MOL {
0 1

O	 -1.377167	 1.140585	 -0.458243
C	 -1.081510	 0.147522	 0.122720
C	 0.327029	 -0.064006	 0.641890
C	 -2.080760	 -0.959879	 0.358161
C	 1.349460	 -0.017068	 -0.500215
H	 0.399029	 -1.014606	 1.159950
H	 0.538021	 0.726928	 1.350471
C	 2.779782	 -0.209014	 -0.009215
H	 1.115007	 -0.782959	 -1.233891
H	 1.259071	 0.936707	 -1.006644
H	 3.481860	 -0.160270	 -0.833072
H	 2.903471	 -1.171535	 0.475559
H	 3.052569	 0.559584	 0.705428
H	 -1.671991	 -1.915952	 0.050606
H	 -2.993909	 -0.757371	 -0.180027
H	 -2.293485	 -1.029146	 1.420141

	symmetry c1
}
set optking {
	frozen_dihedral = ("
		4 2 3 5
	")
}

ee,wfn = optimize('scf', return_wfn=True)
oeprop( wfn, 'DIPOLE', 'QUADRUPOLE', 'MULLIKEN_CHARGES')
f=open( 'psi4out.xyz', 'w' )
f.write( "16  " )
f.write( str(ee) + "\n" )
f.write( MOL.save_string_xyz() )
f.close()
--------------------------------------------------------------------------

    Molecular point group: c1
  Charge       = 0
  Multiplicity = 1
  Basis Set: CC-PVTZ
  Basis Set:
  @DF-RHF Final Energy:  -270.12913608335589
    Total Energy =                       -270.1291360833558883
    Molecular point group: c1
  Basis Set: CC-PVTZ
  Basis Set:
  Basis Set: CC-PVTZ
  Basis Set:
  @DF-RHF Final Energy:  -270.12809042084632
    Total Energy =                       -270.1280904208463198
  Basis Set: CC-PVTZ
  Basis Set:
  Basis Set: CC-PVTZ
  Basis Set:
  @DF-RHF Final Energy:  -270.12924083912912
    Total Energy =                       -270.1292408391290110
  Basis Set: CC-PVTZ
  Basis Set:
  Basis Set: CC-PVTZ
  Basis Set:
  @DF-RHF Final Energy:  -270.12931575084019
    Total Energy =                       -270.1293157508403056
  Basis Set: CC-PVTZ
  Basis Set:
  Basis Set: CC-PVTZ
  Basis Set:
  @DF-RHF Final Energy:  -270.12934182424777
    Total Energy =                       -270.1293418242477173
  Basis Set: CC-PVTZ
  Basis Set:
  Basis Set: CC-PVTZ
  Basis Set:
  @DF-RHF Final Energy:  -270.12935220253053
    Total Energy =                       -270.1293522025307539
  Basis Set: CC-PVTZ
  Basis Set:
  Basis Set: CC-PVTZ
  Basis Set:
  @DF-RHF Final Energy:  -270.12935559676936
    Total Energy =                       -270.1293555967693578
  Basis Set: CC-PVTZ
  Basis Set:
  Charge       = 0
  Multiplicity = 1
  Basis Set: CC-PVTZ
  Basis Set:

    Orbital Energies (a.u.)
    -----------------------

    Doubly Occupied:

       1A    -20.537445     2A    -11.320612     3A    -11.228934
       4A    -11.227855     5A    -11.226199     6A    -11.214974
       7A     -1.398089     8A     -1.080545     9A     -1.015672
      10A     -0.949268    11A     -0.826913    12A     -0.735478
      13A     -0.660175    14A     -0.650648    15A     -0.617118
      16A     -0.605583    17A     -0.573831    18A     -0.561322
      19A     -0.543379    20A     -0.513480    21A     -0.500145
      22A     -0.482846    23A     -0.473762    24A     -0.400904

  @DF-RHF Final Energy:  -270.12935653105194

   => Energetics <=

    Nuclear Repulsion Energy =            237.3333656087370684
    One-Electron Energy =                -836.2350905320269021
    Two-Electron Energy =                 328.7723683922379223
    DFT Exchange-Correlation Energy =       0.0000000000000000
    Empirical Dispersion Energy =           0.0000000000000000
    PCM Polarization Energy =               0.0000000000000000
    EFP Energy =                            0.0000000000000000
    Total Energy =                       -270.1293565310519398
    Molecular point group: c1
  Basis Set: CC-PVTZ
  Basis Set:

  -Total Gradient:
     Atom            X                  Y                   Z
    ------   -----------------  -----------------  -----------------
       1       -0.000016371089     0.000038534658    -0.000022257254
       2       -0.000083640107     0.000031365629     0.000249177955
       3        0.000087551638     0.000159692864    -0.000084092824
       4        0.000047025128    -0.000094497135    -0.000203700574
       5       -0.000020886282    -0.000159954448    -0.000002086039
       6        0.000001331770     0.000009561986     0.000006358653
       7       -0.000002336042     0.000001432498     0.000008552140
       8        0.000001402484     0.000007389907     0.000008212665
       9       -0.000011091585    -0.000000508714    -0.000004014983
      10       -0.000003605898    -0.000008008324     0.000002746309
      11       -0.000004674539    -0.000000506772     0.000002701431
      12        0.000002769029     0.000003465507    -0.000001575692
      13        0.000008708317    -0.000002278643     0.000002734178
      14       -0.000005905377     0.000006586363     0.000015738168
      15       -0.000003049669    -0.000002333274     0.000012625890
      16        0.000002772223     0.000010057897     0.000008879976

  **** Optimization is complete! (in 8 steps) ****
    Final optimized geometry and variables:
    Molecular point group: c1

    Geometry (in Angstrom), charge = 0, multiplicity = 1:

    O           -1.370747349890     1.139864654200    -0.481909719381
    C           -1.078010103020     0.142127915295     0.092344165620
    C            0.334421475953    -0.074122900790     0.607612549869
    C           -2.082764372677    -0.956712439488     0.335391338565
    C            1.365744429835    -0.040796104474    -0.522840081397
    H            0.401617902235    -1.010576684779     1.149922491405
    H            0.541153704915     0.725658978969     1.311567522847
    C            2.794016532374    -0.199897638651    -0.014840092435
    H            1.145097076253    -0.831268377223    -1.234782177089
    H            1.262673627105     0.894594071647    -1.057329402986
    H            3.501480556371    -0.175526887658    -0.835166137172
    H            2.925493135225    -1.141752976832     0.507430623606
    H            3.055060579287     0.598305475350     0.671648417157
    H           -1.727141465104    -1.884252762052    -0.101364072264
    H           -3.037799703453    -0.691242405368    -0.091092213746
    H           -2.189540417775    -1.126831449786     1.401775716917

  Mulliken Charges: (a.u.)
   Center  Symbol    Alpha    Beta     Spin     Total
       1     O     4.17631  4.17631  0.00000 -0.35262
       2     C     2.85790  2.85790  0.00000  0.28420
       3     C     3.10085  3.10085  0.00000 -0.20169
       4     C     3.15337  3.15337  0.00000 -0.30674
       5     C     3.08646  3.08646  0.00000 -0.17292
       6     H     0.44876  0.44876  0.00000  0.10249
       7     H     0.44255  0.44255  0.00000  0.11490
       8     C     3.14931  3.14931  0.00000 -0.29862
       9     H     0.45402  0.45402  0.00000  0.09195
      10     H     0.43908  0.43908  0.00000  0.12184
      11     H     0.44623  0.44623  0.00000  0.10754
      12     H     0.45588  0.45588  0.00000  0.08823
      13     H     0.45318  0.45318  0.00000  0.09363
      14     H     0.45054  0.45054  0.00000  0.09892
      15     H     0.43641  0.43641  0.00000  0.12718
      16     H     0.44915  0.44915  0.00000  0.10170

   Total alpha = 24.00000, Total beta = 24.00000, Total charge =  0.00000

*** Psi4 exiting successfully. Buy a developer a beer!
