  ==> Input File <==

--------------------------------------------------------------------------
set {
	reference rhf
	basis 6-31G*
}

set_num_threads( 1 )
memory 2 gb

molecule MOL {
0 1

H	 3.287898	 -1.478349	 2.621900
C	 2.982555	 -1.365035	 1.586682
C	 1.682983	 -0.568294	 1.480476
H	 3.791248	 -0.869339	 1.057035
H	 2.872287	 -2.359958	 1.164524
C	 1.217350	 -0.386724	 0.039429
H	 1.806516	 0.412043	 1.929995
H	 0.903562	 -1.073665	 2.048362
N	 0.000003	 0.397874	 -0.023260
H	 1.984295	 0.140866	 -0.521291
H	 1.106200	 -1.367095	 -0.435855
C	 -1.217365	 -0.386708	 0.039277
H	 -0.000031	 1.072115	 0.718656
C	 -2.452633	 0.504241	 -0.042481
H	 -1.215291	 -1.074557	 -0.802042
H	 -1.269739	 -1.003477	 0.942735
C	 -3.758029	 -0.289423	 -0.010781
H	 -2.394220	 1.093569	 -0.952170
H	 -2.440793	 1.210787	 0.785871
H	 -3.816659	 -0.981993	 -0.845726
H	 -4.617837	 0.370165	 -0.069296
H	 -3.847478	 -0.867502	 0.904682

	symmetry c1
}
set optking {
	frozen_dihedral = ("
		15 12 14 18
	")
}

ee = energy('scf')
oeprop('DIPOLE', 'QUADRUPOLE', 'MULLIKEN_CHARGES')
f=open( 'psi4out.xyz', 'w' )
f.write( "22  " )
f.write( str(ee) + "\n" )
f.write( MOL.save_string_xyz() )
f.close()
--------------------------------------------------------------------------

    Molecular point group: c1

    Geometry (in Angstrom), charge = 0, multiplicity = 1:

       Center              X                  Y                   Z               Mass
    ------------   -----------------  -----------------  -----------------  -----------------
           H          3.509631534680    -1.170189052522     2.172932691685     1.007825032070
           C          3.204288534680    -1.056875052522     1.137714691685    12.000000000000
           C          1.904716534680    -0.260134052522     1.031508691685    12.000000000000
           H          4.012981534680    -0.561179052522     0.608067691685     1.007825032070
           H          3.094020534680    -2.051798052522     0.715556691685     1.007825032070
           C          1.439083534680    -0.078564052522    -0.409538308315    12.000000000000
           H          2.028249534680     0.720202947478     1.481027691685     1.007825032070
           H          1.125295534680    -0.765505052522     1.599394691685     1.007825032070
           N          0.221736534680     0.706033947478    -0.472227308315    14.003074004780
           H          2.206028534680     0.449025947478    -0.970258308315     1.007825032070
           H          1.327933534680    -1.058935052522    -0.884822308315     1.007825032070
           C         -0.995631465320    -0.078548052522    -0.409690308315    12.000000000000
           H          0.221702534680     1.380274947478     0.269688691685     1.007825032070
           C         -2.230899465320     0.812400947478    -0.491448308315    12.000000000000
           H         -0.993557465320    -0.766397052522    -1.251009308315     1.007825032070
           H         -1.048005465320    -0.695317052522     0.493767691685     1.007825032070
           C         -3.536295465320     0.018736947478    -0.459748308315    12.000000000000
           H         -2.172486465320     1.401728947478    -1.401137308315     1.007825032070
           H         -2.219059465320     1.518946947478     0.336903691685     1.007825032070
           H         -3.594925465320    -0.673833052522    -1.294693308315     1.007825032070
           H         -4.396103465320     0.678324947478    -0.518263308315     1.007825032070
           H         -3.625744465320    -0.559342052522     0.455714691685     1.007825032070

  Charge       = 0
  Multiplicity = 1
  Basis Set: 6-31G*
  Basis Set:

    Orbital Energies (a.u.)
    -----------------------

    Doubly Occupied:

       1A    -15.530708     2A    -11.237853     3A    -11.237431
       4A    -11.215252     5A    -11.212760     6A    -11.211152
       7A    -11.209281     8A     -1.206114     9A     -1.058939
      10A     -1.026067    11A     -0.928655    12A     -0.869423
      13A     -0.808560    14A     -0.803376    15A     -0.656005
      16A     -0.642259    17A     -0.614827    18A     -0.601825
      19A     -0.578479    20A     -0.552996    21A     -0.547891
      22A     -0.519426    23A     -0.514068    24A     -0.488511
      25A     -0.485983    26A     -0.477634    27A     -0.470654
      28A     -0.454992    29A     -0.350386

  @DF-RHF Final Energy:  -290.37785146921772

   => Energetics <=

    Nuclear Repulsion Energy =            317.2142451358704420
    One-Electron Energy =               -1020.1611071284521586
    Two-Electron Energy =                 412.5690105233640566
    DFT Exchange-Correlation Energy =       0.0000000000000000
    Empirical Dispersion Energy =           0.0000000000000000
    PCM Polarization Energy =               0.0000000000000000
    EFP Energy =                            0.0000000000000000
    Total Energy =                       -290.3778514692176600

  Mulliken Charges: (a.u.)
   Center  Symbol    Alpha    Beta     Spin     Total
       1     H     0.41832  0.41832  0.00000  0.16335
       2     C     3.24339  3.24339  0.00000 -0.48678
       3     C     3.16329  3.16329  0.00000 -0.32657
       4     H     0.42033  0.42033  0.00000  0.15933
       5     H     0.42102  0.42102  0.00000  0.15796
       6     C     3.05250  3.05250  0.00000 -0.10500
       7     H     0.42476  0.42476  0.00000  0.15047
       8     H     0.42087  0.42087  0.00000  0.15827
       9     N     3.85468  3.85468  0.00000 -0.70936
      10     H     0.41800  0.41800  0.00000  0.16400
      11     H     0.42136  0.42136  0.00000  0.15727
      12     C     3.05070  3.05070  0.00000 -0.10141
      13     H     0.33375  0.33375  0.00000  0.33249
      14     C     3.15494  3.15494  0.00000 -0.30988
      15     H     0.42118  0.42118  0.00000  0.15764
      16     H     0.43720  0.43720  0.00000  0.12560
      17     C     3.24316  3.24316  0.00000 -0.48631
      18     H     0.41286  0.41286  0.00000  0.17428
      19     H     0.42707  0.42707  0.00000  0.14587
      20     H     0.42083  0.42083  0.00000  0.15833
      21     H     0.41785  0.41785  0.00000  0.16430
      22     H     0.42193  0.42193  0.00000  0.15614

   Total alpha = 29.00000, Total beta = 29.00000, Total charge =  0.00000
