  ==> Input File <==

--------------------------------------------------------------------------
set {
	reference rhf
	basis 6-31G*
}

set_num_threads( 1 )
memory 2 gb

molecule MOL {
0 1

H	 -3.261111	 -0.295142	 1.469456
C	 -3.306842	 -0.277400	 0.373456
C	 -2.660244	 0.921717	 -0.272021
O	 -3.838538	 -1.161155	 -0.216482
C	 -1.220012	 1.144545	 0.209990
H	 -2.705793	 0.797307	 -1.347733
H	 -3.263782	 1.790044	 -0.010477
C	 -0.252658	 0.041456	 -0.226725
H	 -0.873521	 2.100229	 -0.171974
H	 -1.211708	 1.231594	 1.295398
C	 1.180775	 0.282413	 0.250794
H	 -0.266029	 -0.034465	 -1.312038
H	 -0.597733	 -0.921000	 0.146291
C	 2.148627	 -0.814315	 -0.201312
H	 1.516199	 1.249228	 -0.115937
H	 1.192670	 0.346017	 1.338083
C	 3.580890	 -0.659131	 0.322722
H	 2.166869	 -0.852443	 -1.289387
H	 1.762857	 -1.776509	 0.128956
C	 4.381531	 0.463921	 -0.338602
H	 4.106223	 -1.598347	 0.168296
H	 3.555465	 -0.499859	 1.398783
H	 4.410106	 0.339396	 -1.417929
H	 3.959943	 1.441388	 -0.129327
H	 5.406421	 0.468701	 0.019969

	symmetry c1
}
set optking {
	frozen_dihedral = ("
		6 3 5 8,
		6 3 2 4,
		3 5 8 12,
		12 8 11 14,
		8 11 14 18
	")
}

ee = energy('scf')
oeprop('DIPOLE', 'QUADRUPOLE', 'MULLIKEN_CHARGES')
f=open( 'psi4out.xyz', 'w' )
f.write( "25  " )
f.write( str(ee) + "\n" )
f.write( MOL.save_string_xyz() )
f.close()
--------------------------------------------------------------------------

    Molecular point group: c1

    Geometry (in Angstrom), charge = 0, multiplicity = 1:

       Center              X                  Y                   Z               Mass
    ------------   -----------------  -----------------  -----------------  -----------------
           H         -3.267739058012    -0.283291109729     1.484061227950     1.007825032070
           C         -3.313470058012    -0.265549109729     0.388061227950    12.000000000000
           C         -2.666872058012     0.933567890271    -0.257415772050    12.000000000000
           O         -3.845166058012    -1.149304109729    -0.201876772050    15.994914619560
           C         -1.226640058012     1.156395890271     0.224595227950    12.000000000000
           H         -2.712421058012     0.809157890271    -1.333127772050     1.007825032070
           H         -3.270410058012     1.801894890271     0.004128227950     1.007825032070
           C         -0.259286058012     0.053306890271    -0.212119772050    12.000000000000
           H         -0.880149058012     2.112079890271    -0.157368772050     1.007825032070
           H         -1.218336058012     1.243444890271     1.310003227950     1.007825032070
           C          1.174146941988     0.294263890271     0.265399227950    12.000000000000
           H         -0.272657058012    -0.022614109729    -1.297432772050     1.007825032070
           H         -0.604361058012    -0.909149109729     0.160896227950     1.007825032070
           C          2.141998941988    -0.802464109729    -0.186706772050    12.000000000000
           H          1.509570941988     1.261078890271    -0.101331772050     1.007825032070
           H          1.186041941988     0.357867890271     1.352688227950     1.007825032070
           C          3.574261941988    -0.647280109729     0.337327227950    12.000000000000
           H          2.160240941988    -0.840592109729    -1.274781772050     1.007825032070
           H          1.756228941988    -1.764658109729     0.143561227950     1.007825032070
           C          4.374902941988     0.475771890271    -0.323996772050    12.000000000000
           H          4.099594941988    -1.586496109729     0.182901227950     1.007825032070
           H          3.548836941988    -0.488008109729     1.413388227950     1.007825032070
           H          4.403477941988     0.351246890271    -1.403323772050     1.007825032070
           H          3.953314941988     1.453238890271    -0.114721772050     1.007825032070
           H          5.399792941988     0.480551890271     0.034574227950     1.007825032070

  Charge       = 0
  Multiplicity = 1
  Basis Set: 6-31G*
  Basis Set:

    Orbital Energies (a.u.)
    -----------------------

    Doubly Occupied:

       1A    -20.562013     2A    -11.326142     3A    -11.235359
       4A    -11.234660     5A    -11.223983     6A    -11.220008
       7A    -11.217883     8A    -11.216868     9A    -11.210707
      10A     -1.401992    11A     -1.103982    12A     -1.069620
      13A     -1.013675    14A     -0.942666    15A     -0.874449
      16A     -0.820102    17A     -0.788257    18A     -0.782699
      19A     -0.664528    20A     -0.661772    21A     -0.632162
      22A     -0.625959    23A     -0.601936    24A     -0.594647
      25A     -0.575462    26A     -0.549592    27A     -0.535333
      28A     -0.525260    29A     -0.507970    30A     -0.495685
      31A     -0.491152    32A     -0.479723    33A     -0.465811
      34A     -0.458383    35A     -0.440894    36A     -0.409564

  @DF-RHF Final Energy:  -387.12184909660220

   => Energetics <=

    Nuclear Repulsion Energy =            438.6967766408499756
    One-Electron Energy =               -1393.7153271831650727
    Two-Electron Energy =                 567.8967014457128926
    DFT Exchange-Correlation Energy =       0.0000000000000000
    Empirical Dispersion Energy =           0.0000000000000000
    PCM Polarization Energy =               0.0000000000000000
    EFP Energy =                            0.0000000000000000
    Total Energy =                       -387.1218490966022046

  Mulliken Charges: (a.u.)
   Center  Symbol    Alpha    Beta     Spin     Total
       1     H     0.43260  0.43260  0.00000  0.13480
       2     C     2.83085  2.83085  0.00000  0.33831
       3     C     3.20814  3.20814  0.00000 -0.41627
       4     O     4.23775  4.23775  0.00000 -0.47550
       5     C     3.16656  3.16656  0.00000 -0.33313
       6     H     0.39968  0.39968  0.00000  0.20063
       7     H     0.40669  0.40669  0.00000  0.18662
       8     C     3.15496  3.15496  0.00000 -0.30992
       9     H     0.41284  0.41284  0.00000  0.17431
      10     H     0.41962  0.41962  0.00000  0.16077
      11     C     3.15366  3.15366  0.00000 -0.30732
      12     H     0.41796  0.41796  0.00000  0.16408
      13     H     0.41836  0.41836  0.00000  0.16328
      14     C     3.15342  3.15342  0.00000 -0.30684
      15     H     0.42132  0.42132  0.00000  0.15737
      16     H     0.42358  0.42358  0.00000  0.15284
      17     C     3.15329  3.15329  0.00000 -0.30659
      18     H     0.42280  0.42280  0.00000  0.15440
      19     H     0.42061  0.42061  0.00000  0.15879
      20     C     3.24068  3.24068  0.00000 -0.48136
      21     H     0.41992  0.41992  0.00000  0.16016
      22     H     0.42317  0.42317  0.00000  0.15366
      23     H     0.42169  0.42169  0.00000  0.15662
      24     H     0.42106  0.42106  0.00000  0.15787
      25     H     0.41879  0.41879  0.00000  0.16242

   Total alpha = 36.00000, Total beta = 36.00000, Total charge =  0.00000
