  ==> Input File <==

--------------------------------------------------------------------------
set {
	reference rhf
	basis 6-31G*
}

set_num_threads( 1 )
memory 2 gb

molecule MOL {
0 1

O	 -0.682937	 1.318834	 -0.186099
C	 -0.860635	 0.152188	 -0.042321
C	 -2.173363	 -0.477127	 0.338347
O	 0.083258	 -0.765189	 -0.202595
H	 -2.477673	 -1.180929	 -0.427595
H	 -2.923125	 0.290956	 0.455536
H	 -2.058825	 -1.029004	 1.264191
C	 1.010517	 -0.976910	 0.859555
C	 0.451521	 -1.923156	 1.905876
H	 1.276457	 -0.025002	 1.293476
H	 1.880547	 -1.400964	 0.379216
H	 1.206301	 -2.123978	 2.660004
H	 -0.411710	 -1.490380	 2.395677
H	 0.163340	 -2.865561	 1.452842

	symmetry c1
}
set optking {
	frozen_dihedral = ("
		10 8 4 2
	")
}

ee = energy('scf')
oeprop('DIPOLE', 'QUADRUPOLE', 'MULLIKEN_CHARGES')
f=open( 'psi4out.xyz', 'w' )
f.write( "14  " )
f.write( str(ee) + "\n" )
f.write( MOL.save_string_xyz() )
f.close()
--------------------------------------------------------------------------

    Molecular point group: c1

    Geometry (in Angstrom), charge = 0, multiplicity = 1:

       Center              X                  Y                   Z               Mass
    ------------   -----------------  -----------------  -----------------  -----------------
           O         -0.321491042435     1.770227534322    -0.641144171728    15.994914619560
           C         -0.499189042435     0.603581534322    -0.497366171728    12.000000000000
           C         -1.811917042435    -0.025733465678    -0.116698171728    12.000000000000
           O          0.444703957565    -0.313795465678    -0.657640171728    15.994914619560
           H         -2.116227042435    -0.729535465678    -0.882640171728     1.007825032070
           H         -2.561679042435     0.742349534322     0.000490828272     1.007825032070
           H         -1.697379042435    -0.577610465678     0.809145828272     1.007825032070
           C          1.371962957565    -0.525516465678     0.404509828272    12.000000000000
           C          0.812966957565    -1.471762465678     1.450830828272    12.000000000000
           H          1.637902957565     0.426391534322     0.838430828272     1.007825032070
           H          2.241992957565    -0.949570465678    -0.075829171728     1.007825032070
           H          1.567746957565    -1.672584465678     2.204958828272     1.007825032070
           H         -0.050264042435    -1.038986465678     1.940631828272     1.007825032070
           H          0.524785957565    -2.414167465678     0.997796828272     1.007825032070

  Charge       = 0
  Multiplicity = 1
  Basis Set: 6-31G*
  Basis Set:

    Orbital Energies (a.u.)
    -----------------------

    Doubly Occupied:

       1A    -20.585146     2A    -20.553647     3A    -11.375898
       4A    -11.298834     5A    -11.232456     6A    -11.232296
       7A     -1.462267     8A     -1.366078     9A     -1.053625
      10A     -1.011548    11A     -0.888475    12A     -0.770781
      13A     -0.695153    14A     -0.687616    15A     -0.667716
      16A     -0.611552    17A     -0.594059    18A     -0.577629
      19A     -0.564109    20A     -0.553931    21A     -0.508393
      22A     -0.488091    23A     -0.452759    24A     -0.438274

  @DF-RHF Final Energy:  -305.85252413395438

   => Energetics <=

    Nuclear Repulsion Energy =            249.5129837547433738
    One-Electron Energy =                -911.3901686497526953
    Two-Electron Energy =                 356.0246607610546334
    DFT Exchange-Correlation Energy =       0.0000000000000000
    Empirical Dispersion Energy =           0.0000000000000000
    PCM Polarization Energy =               0.0000000000000000
    EFP Energy =                            0.0000000000000000
    Total Energy =                       -305.8525241339547165

  Mulliken Charges: (a.u.)
   Center  Symbol    Alpha    Beta     Spin     Total
       1     O     4.25908  4.25908  0.00000 -0.51816
       2     C     2.62870  2.62870  0.00000  0.74260
       3     C     3.28483  3.28483  0.00000 -0.56966
       4     O     4.31167  4.31167  0.00000 -0.62334
       5     H     0.39906  0.39906  0.00000  0.20188
       6     H     0.39956  0.39956  0.00000  0.20087
       7     H     0.40634  0.40634  0.00000  0.18733
       8     C     3.00656  3.00656  0.00000 -0.01311
       9     C     3.25440  3.25440  0.00000 -0.50879
      10     H     0.40725  0.40725  0.00000  0.18550
      11     H     0.40371  0.40371  0.00000  0.19257
      12     H     0.41329  0.41329  0.00000  0.17342
      13     H     0.41698  0.41698  0.00000  0.16604
      14     H     0.40858  0.40858  0.00000  0.18284

   Total alpha = 24.00000, Total beta = 24.00000, Total charge =  0.00000
