  ==> Input File <==

--------------------------------------------------------------------------
set {
	reference rhf
	basis 6-31G*
}

set_num_threads( 4 )
memory 2 gb

molecule MOL {
0 1

H	 -0.920893	 -1.066790	 0.861165
N	 -0.626943	 -0.667432	 -0.000092
C	 -1.393187	 -0.965635	 -1.188646
C	 0.469286	 0.129090	 0.000148
H	 -1.401467	 -2.032014	 -1.388078
H	 -0.934831	 -0.457425	 -2.021330
H	 -2.417430	 -0.622583	 -1.087291
C	 1.788933	 -0.616240	 -0.000037
O	 0.411098	 1.327768	 -0.000049
H	 1.872803	 -1.245775	 -0.880381
H	 2.595421	 0.101576	 0.003713
H	 1.870096	 -1.252171	 0.875943

	symmetry c1
}
set optking {
	frozen_dihedral = ("
		3 2 4 9
	")
}

ee = optimize('scf')
oeprop('DIPOLE', 'QUADRUPOLE', 'MULLIKEN_CHARGES')
f=open( 'psi4out.xyz', 'w' )
f.write( "12  " )
f.write( str(ee) + "\n" )
f.write( MOL.save_string_xyz() )
f.close()
--------------------------------------------------------------------------

    Molecular point group: c1
  Charge       = 0
  Multiplicity = 1
  Basis Set: 6-31G*
  Basis Set:
  @DF-RHF Final Energy:  -246.96445281533380
    Total Energy =                       -246.9644528153335727
    Molecular point group: c1
  Basis Set: 6-31G*
  Basis Set:
  Basis Set: 6-31G*
  Basis Set:
  @DF-RHF Final Energy:  -246.96792365069942
    Total Energy =                       -246.9679236506993902
  Basis Set: 6-31G*
  Basis Set:
  Basis Set: 6-31G*
  Basis Set:
  @DF-RHF Final Energy:  -246.96870391527744
    Total Energy =                       -246.9687039152773878
  Basis Set: 6-31G*
  Basis Set:
  Basis Set: 6-31G*
  Basis Set:
  @DF-RHF Final Energy:  -246.96933307286398
    Total Energy =                       -246.9693330728638330
  Basis Set: 6-31G*
  Basis Set:
  @DF-RHF Final Energy:  -246.96933501331276
    Total Energy =                       -246.9693350133128433
  @DF-RHF Final Energy:  -246.96963159579934
    Total Energy =                       -246.9696315957993988
  @DF-RHF Final Energy:  -246.96987903873554
    Total Energy =                       -246.9698790387353142
  @DF-RHF Final Energy:  -246.97002867577126
    Total Energy =                       -246.9700286757711183
  @DF-RHF Final Energy:  -246.97022475822951
    Total Energy =                       -246.9702247582293921
  @DF-RHF Final Energy:  -246.97024310846129
    Total Energy =                       -246.9702431084613181
  @DF-RHF Final Energy:  -246.97022665373220
    Total Energy =                       -246.9702266537323680
  @DF-RHF Final Energy:  -246.96939233880425
    Total Energy =                       -246.9693923388043117
  @DF-RHF Final Energy:  -246.96917517725626
    Total Energy =                       -246.9691751772563180
  @DF-RHF Final Energy:  -246.97009479336359
    Total Energy =                       -246.9700947933636712
  @DF-RHF Final Energy:  -246.96658730583914
    Total Energy =                       -246.9665873058391981
  @DF-RHF Final Energy:  -246.96985415870301
    Total Energy =                       -246.9698541587030149
  @DF-RHF Final Energy:  -246.94185498465328
    Total Energy =                       -246.9418549846532756
  @DF-RHF Final Energy:  -246.96781666709526
    Total Energy =                       -246.9678166670953487
  @DF-RHF Final Energy:  -246.97021702955504
    Total Energy =                       -246.9702170295551014
  @DF-RHF Final Energy:  -246.97025649584617
    Total Energy =                       -246.9702564958463427
  @DF-RHF Final Energy:  -246.96980397684621
    Total Energy =                       -246.9698039768462081
  @DF-RHF Final Energy:  -246.97003375215519
    Total Energy =                       -246.9700337521551319
  @DF-RHF Final Energy:  -246.97011914770775
    Total Energy =                       -246.9701191477076918
  @DF-RHF Final Energy:  -246.96995237522538
    Total Energy =                       -246.9699523752254890
  @DF-RHF Final Energy:  -246.97012806055892
    Total Energy =                       -246.9701280605589773
  @DF-RHF Final Energy:  -246.97012909697008
    Total Energy =                       -246.9701290969699130
  @DF-RHF Final Energy:  -246.97012743301386
    Total Energy =                       -246.9701274330139427
  @DF-RHF Final Energy:  -246.97012097718112
    Total Energy =                       -246.9701209771810113
  @DF-RHF Final Energy:  -246.96913896264718
    Total Energy =                       -246.9691389626470936
  @DF-RHF Final Energy:  -246.96948887166832
    Total Energy =                       -246.9694888716683181
  @DF-RHF Final Energy:  -246.96948728104158
    Total Energy =                       -246.9694872810415518
  @DF-RHF Final Energy:  -246.96942693974464
    Total Energy =                       -246.9694269397447215
  @DF-RHF Final Energy:  -246.96938003739018
    Total Energy =                       -246.9693800373901240
  @DF-RHF Final Energy:  -246.96963861923683
    Total Energy =                       -246.9696386192368323
  @DF-RHF Final Energy:  -246.96981281214175
    Total Energy =                       -246.9698128121418108
  @DF-RHF Final Energy:  -246.96994304088778
    Total Energy =                       -246.9699430408876424
  Basis Set: 6-31G*
  Basis Set:
  @DF-RHF Final Energy:  -246.97003172915876
    Total Energy =                       -246.9700317291589045
  Basis Set: 6-31G*
  Basis Set:
  Basis Set: 6-31G*
  Basis Set:
  @DF-RHF Final Energy:  -246.97005794607719
    Total Energy =                       -246.9700579460770768
  Basis Set: 6-31G*
  Basis Set:
  Basis Set: 6-31G*
  Basis Set:
  @DF-RHF Final Energy:  -246.97006480272319
    Total Energy =                       -246.9700648027231864
  Basis Set: 6-31G*
  Basis Set:
  Charge       = 0
  Multiplicity = 1
  Basis Set: 6-31G*
  Basis Set:

    Orbital Energies (a.u.)
    -----------------------

    Doubly Occupied:

       1A    -20.550473     2A    -15.546928     3A    -11.350831
       4A    -11.255663     5A    -11.230599     6A     -1.409752
       7A     -1.208483     8A     -1.014845     9A     -0.927275
      10A     -0.772556    11A     -0.688002    12A     -0.649123
      13A     -0.642289    14A     -0.594658    15A     -0.583637
      16A     -0.566202    17A     -0.544686    18A     -0.499404
      19A     -0.426719    20A     -0.367382

  @DF-RHF Final Energy:  -246.97006448482543

   => Energetics <=

    Nuclear Repulsion Energy =            180.5919683251188701
    One-Electron Energy =                -693.4650520105998339
    Two-Electron Energy =                 265.9030192006553079
    DFT Exchange-Correlation Energy =       0.0000000000000000
    Empirical Dispersion Energy =           0.0000000000000000
    PCM Polarization Energy =               0.0000000000000000
    EFP Energy =                            0.0000000000000000
    Total Energy =                       -246.9700644848256843
    Molecular point group: c1
  Basis Set: 6-31G*
  Basis Set:

  -Total Gradient:
     Atom            X                  Y                   Z
    ------   -----------------  -----------------  -----------------
       1       -0.003088559202     0.006366761575     0.004640912298
       2       -0.004944841149    -0.007156448116    -0.008212440747
       3        0.008912264401    -0.000938436306     0.006658940428
       4        0.019324619226     0.011977930790    -0.010654715456
       5       -0.001582735091     0.001358406760    -0.000061737808
       6        0.000345212229    -0.000517713122    -0.000745800093
       7        0.001689275148    -0.000274685431     0.000727004263
       8       -0.011379746341    -0.005624512584     0.000533782319
       9       -0.006625727462    -0.007674360068     0.009748992698
      10       -0.000130215128    -0.001501392198    -0.001543358182
      11       -0.003530834248     0.003132167489     0.000642529638
      12        0.001011287616     0.000852281212    -0.001734109359

    Molecular point group: c1

    Geometry (in Angstrom), charge = 0, multiplicity = 1:

    H           -0.940266417696    -0.987886197228     1.119157272692
    N           -0.793053187434    -0.468916059790     0.283023932702
    C           -1.540151450374    -0.809152339389    -0.887473606846
    C            0.386666711692     0.313391358545     0.219812541496
    H           -1.459866787880    -1.858783042805    -1.159168467274
    H           -1.179944166640    -0.222327833196    -1.725144221312
    H           -2.592967403273    -0.580117185346    -0.765009763797
    C            1.657301976860    -0.470532074359     0.304470476882
    O            0.333654705674     1.491443946423     0.124133838116
    H            1.757676732131    -1.085094809246    -0.585369770324
    H            2.486250597334     0.220343246901     0.381137149147
    H            1.653868364474    -1.135662075310     1.156318169384

  Mulliken Charges: (a.u.)
   Center  Symbol    Alpha    Beta     Spin     Total
       1     H     0.31512  0.31512  0.00000  0.36975
       2     N     3.90389  3.90389  0.00000 -0.80779
       3     C     3.13270  3.13270  0.00000 -0.26541
       4     C     2.66003  2.66003  0.00000  0.67993
       5     H     0.42526  0.42526  0.00000  0.14947
       6     H     0.40965  0.40965  0.00000  0.18070
       7     H     0.41368  0.41368  0.00000  0.17264
       8     C     3.28036  3.28036  0.00000 -0.56073
       9     O     4.24403  4.24403  0.00000 -0.48807
      10     H     0.40490  0.40490  0.00000  0.19019
      11     H     0.40024  0.40024  0.00000  0.19951
      12     H     0.41010  0.41010  0.00000  0.17979

   Total alpha = 20.00000, Total beta = 20.00000, Total charge = -0.00000
