  ==> Input File <==

--------------------------------------------------------------------------
set {
	reference rhf
	basis 6-31G*
}

set_num_threads( 4 )
memory 2 gb

molecule MOL {
0 1

O	 -0.682937	 1.318834	 -0.186099
C	 -0.860635	 0.152188	 -0.042321
C	 -2.173363	 -0.477127	 0.338347
O	 0.083258	 -0.765189	 -0.202595
H	 -2.477673	 -1.180929	 -0.427595
H	 -2.923125	 0.290956	 0.455536
H	 -2.058825	 -1.029004	 1.264191
C	 0.417719	 -1.595196	 0.907369
C	 -0.527634	 -2.776481	 1.023649
H	 0.415541	 -1.000756	 1.808356
H	 1.426540	 -1.924982	 0.704837
H	 -0.202975	 -3.428728	 1.828570
H	 -1.535168	 -2.444492	 1.240509
H	 -0.536603	 -3.349914	 0.103047

	symmetry c1
}
set optking {
	frozen_dihedral = ("
		8 4 2 1
	")
}

ee = optimize('scf')
oeprop('DIPOLE', 'QUADRUPOLE', 'MULLIKEN_CHARGES')
f=open( 'psi4out.xyz', 'w' )
f.write( "14  " )
f.write( str(ee) + "\n" )
f.write( MOL.save_string_xyz() )
f.close()
--------------------------------------------------------------------------

    Molecular point group: c1
  Charge       = 0
  Multiplicity = 1
  Basis Set: 6-31G*
  Basis Set:
  @DF-RHF Final Energy:  -305.83544514408413
    Total Energy =                       -305.8354451440839057
    Molecular point group: c1
  Basis Set: 6-31G*
  Basis Set:
  Basis Set: 6-31G*
  Basis Set:
  @DF-RHF Final Energy:  -305.84914546613396
    Total Energy =                       -305.8491454661340754
  Basis Set: 6-31G*
  Basis Set:
  Basis Set: 6-31G*
  Basis Set:
  @DF-RHF Final Energy:  -305.85196215342432
    Total Energy =                       -305.8519621534245516
  Basis Set: 6-31G*
  Basis Set:
  Basis Set: 6-31G*
  Basis Set:
  @DF-RHF Final Energy:  -305.85129252916943
    Total Energy =                       -305.8512925291694273
  Basis Set: 6-31G*
  Basis Set:
  @DF-RHF Final Energy:  -305.85336625668151
    Total Energy =                       -305.8533662566814542
  @DF-RHF Final Energy:  -305.85385617882150
    Total Energy =                       -305.8538561788216157
  @DF-RHF Final Energy:  -305.85413371585935
    Total Energy =                       -305.8541337158594047
  @DF-RHF Final Energy:  -305.85425851434951
    Total Energy =                       -305.8542585143495671
  @DF-RHF Final Energy:  -305.85429896916378
    Total Energy =                       -305.8542989691636649
  @DF-RHF Final Energy:  -305.85432447426524
    Total Energy =                       -305.8543244742654110
  @DF-RHF Final Energy:  -305.85434184705906
    Total Energy =                       -305.8543418470590609
  @DF-RHF Final Energy:  -305.85434573994979
    Total Energy =                       -305.8543457399493377
  @DF-RHF Final Energy:  -305.85434951878062
    Total Energy =                       -305.8543495187807366
  @DF-RHF Final Energy:  -305.85435280245497
    Total Energy =                       -305.8543528024551392
  @DF-RHF Final Energy:  -305.85435609675397
    Total Energy =                       -305.8543560967541453
  @DF-RHF Final Energy:  -305.85435972130813
    Total Energy =                       -305.8543597213082421
  @DF-RHF Final Energy:  -305.85436330385767
    Total Energy =                       -305.8543633038575535
  @DF-RHF Final Energy:  -305.85436671883156
    Total Energy =                       -305.8543667188312156
  @DF-RHF Final Energy:  -305.85436658876051
    Total Energy =                       -305.8543665887607403
  @DF-RHF Final Energy:  -305.85436812030724
    Total Energy =                       -305.8543681203072424
  @DF-RHF Final Energy:  -305.85437096054665
    Total Energy =                       -305.8543709605467029
  @DF-RHF Final Energy:  -305.85437091721565
    Total Energy =                       -305.8543709172157605
  @DF-RHF Final Energy:  -305.85437057136619
    Total Energy =                       -305.8543705713665304
  @DF-RHF Final Energy:  -305.85437092144196
    Total Energy =                       -305.8543709214418982
  @DF-RHF Final Energy:  -305.85437021421177
    Total Energy =                       -305.8543702142120537
  @DF-RHF Final Energy:  -305.85437054201111
    Total Energy =                       -305.8543705420111110
  @DF-RHF Final Energy:  -305.85437089962591
    Total Energy =                       -305.8543708996257919
  @DF-RHF Final Energy:  -305.85437093380665
    Total Energy =                       -305.8543709338068197
  @DF-RHF Final Energy:  -305.85437091301492
    Total Energy =                       -305.8543709130150319
  @DF-RHF Final Energy:  -305.85437086996319
    Total Energy =                       -305.8543708699631907
  @DF-RHF Final Energy:  -305.85437083655950
    Total Energy =                       -305.8543708365594398
  @DF-RHF Final Energy:  -305.85437071235469
    Total Energy =                       -305.8543707123549211
  @DF-RHF Final Energy:  -305.85437053125713
    Total Energy =                       -305.8543705312574161
  @DF-RHF Final Energy:  -305.85437044857207
    Total Energy =                       -305.8543704485719559
  @DF-RHF Final Energy:  -305.85437041226191
    Total Energy =                       -305.8543704122620284
  @DF-RHF Final Energy:  -305.85437032229163
    Total Energy =                       -305.8543703222917998
  Basis Set: 6-31G*
  Basis Set:
  @DF-RHF Final Energy:  -305.85437039680812
    Total Energy =                       -305.8543703968081218
  Basis Set: 6-31G*
  Basis Set:
  Basis Set: 6-31G*
  Basis Set:
  @DF-RHF Final Energy:  -305.85437023212376
    Total Energy =                       -305.8543702321235287
  Basis Set: 6-31G*
  Basis Set:
  Basis Set: 6-31G*
  Basis Set:
  @DF-RHF Final Energy:  -305.85437066325426
    Total Energy =                       -305.8543706632543717
  Basis Set: 6-31G*
  Basis Set:
  Charge       = 0
  Multiplicity = 1
  Basis Set: 6-31G*
  Basis Set:

    Orbital Energies (a.u.)
    -----------------------

    Doubly Occupied:

       1A    -20.587330     2A    -20.551323     3A    -11.378011
       4A    -11.300146     5A    -11.240116     6A    -11.229302
       7A     -1.457963     8A     -1.366962     9A     -1.049830
      10A     -1.013639    11A     -0.884295    12A     -0.780882
      13A     -0.697312    14A     -0.688354    15A     -0.651808
      16A     -0.623055    17A     -0.590835    18A     -0.580803
      19A     -0.559762    20A     -0.542877    21A     -0.524083
      22A     -0.485567    23A     -0.451943    24A     -0.437130

  @DF-RHF Final Energy:  -305.85437074824114

   => Energetics <=

    Nuclear Repulsion Energy =            245.7710614083511587
    One-Electron Energy =                -903.9042078332126948
    Two-Electron Energy =                 352.2787756766206257
    DFT Exchange-Correlation Energy =       0.0000000000000000
    Empirical Dispersion Energy =           0.0000000000000000
    PCM Polarization Energy =               0.0000000000000000
    EFP Energy =                            0.0000000000000000
    Total Energy =                       -305.8543707482408536
    Molecular point group: c1
  Basis Set: 6-31G*
  Basis Set:

  -Total Gradient:
     Atom            X                  Y                   Z
    ------   -----------------  -----------------  -----------------
       1        0.000900105859     0.000405208559     0.001653995947
       2       -0.000947112385    -0.000648311030    -0.002858957314
       3        0.000117917411     0.000112598446     0.000278891881
       4       -0.001138119338    -0.000482446313     0.000863794204
       5        0.000023779028    -0.000081837649    -0.000030596477
       6       -0.000046287515     0.000039656387     0.000109409848
       7        0.000035884855     0.000029720384    -0.000044409662
       8        0.001237578273     0.000512634742    -0.000124888414
       9        0.000018165828     0.000229723212     0.000095597430
      10       -0.000046382562     0.000076261700     0.000028187316
      11       -0.000085883098    -0.000060194935     0.000058506710
      12        0.000027795376    -0.000114543122     0.000051184982
      13       -0.000102328687    -0.000014277339    -0.000017015787
      14        0.000004886955    -0.000004193048    -0.000063700662

    Molecular point group: c1

    Geometry (in Angstrom), charge = 0, multiplicity = 1:

    O            0.126809550078     1.878783599959    -0.903965753251
    C           -0.273841165797     0.887955330792    -0.401155486522
    C           -1.640381707763     0.769037584365     0.231463462024
    O            0.446657329794    -0.248204963945    -0.439194987964
    H           -2.243286512893     0.099975957867    -0.374046713492
    H           -2.105454339441     1.742629900823     0.269367366352
    H           -1.593926035276     0.349932710554     1.229119203009
    C            0.873471936761    -0.885347636403     0.755928352927
    C            0.477491436688    -2.347535837158     0.725205032636
    H            0.455739025324    -0.388865173881     1.623455748887
    H            1.948815577096    -0.775029671916     0.803846223384
    H            0.865619992018    -2.861013390357     1.599335023798
    H           -0.601544895280    -2.457491785795     0.711965778530
    H            0.879336022503    -2.824745879420    -0.161214574547

  Mulliken Charges: (a.u.)
   Center  Symbol    Alpha    Beta     Spin     Total
       1     O     4.25043  4.25043  0.00000 -0.50086
       2     C     2.62719  2.62719  0.00000  0.74563
       3     C     3.29408  3.29408  0.00000 -0.58816
       4     O     4.31191  4.31191  0.00000 -0.62382
       5     H     0.39806  0.39806  0.00000  0.20387
       6     H     0.39367  0.39367  0.00000  0.21265
       7     H     0.40789  0.40789  0.00000  0.18422
       8     C     3.00384  3.00384  0.00000 -0.00769
       9     C     3.24600  3.24600  0.00000 -0.49201
      10     H     0.42200  0.42200  0.00000  0.15600
      11     H     0.40548  0.40548  0.00000  0.18904
      12     H     0.41757  0.41757  0.00000  0.16485
      13     H     0.41583  0.41583  0.00000  0.16835
      14     H     0.40604  0.40604  0.00000  0.18793

   Total alpha = 24.00000, Total beta = 24.00000, Total charge = -0.00000
