  ==> Input File <==

--------------------------------------------------------------------------
set {
	reference rhf
	basis cc-pvtz
}

set_num_threads( 4 )
memory 2 gb

molecule MOL {
0 1

H	 -3.642953	 0.223825	 0.000000
C	 -2.571844	 0.155001	 0.000000
C	 -1.957580	 -1.086132	 0.000000
C	 -1.807160	 1.303787	 0.000000
H	 -2.551493	 -1.979629	 0.000000
C	 -0.582719	 -1.174294	 0.000000
H	 -2.279934	 2.266806	 0.000000
C	 -0.427220	 1.213406	 0.000000
H	 -0.094904	 -2.127556	 0.000000
C	 0.196908	 -0.024061	 0.000000
H	 0.151409	 2.115254	 0.000000
C	 1.690041	 -0.173233	 0.000000
C	 2.398016	 -0.474511	 1.301023
O	 2.308797	 -0.056187	 -1.009358
H	 2.215599	 0.308500	 2.027383
H	 3.456313	 -0.545859	 1.106998
H	 2.044162	 -1.407490	 1.723301

	symmetry c1
}
set optking {
	frozen_dihedral = ("
		13 12 10 8
	")
}

ee = optimize('scf')
oeprop('DIPOLE', 'QUADRUPOLE', 'MULLIKEN_CHARGES')
f=open( 'psi4out.xyz', 'w' )
f.write( "17  " )
f.write( str(ee) + "\n" )
f.write( MOL.save_string_xyz() )
f.close()
--------------------------------------------------------------------------

    Molecular point group: c1
  Charge       = 0
  Multiplicity = 1
  Basis Set: CC-PVTZ
  Basis Set:
  @DF-RHF Final Energy:  -382.59661937485333
    Total Energy =                       -382.5966193748535034
    Molecular point group: c1
  Basis Set: CC-PVTZ
  Basis Set:
  Basis Set: CC-PVTZ
  Basis Set:
  @DF-RHF Final Energy:  -382.59732895817632
    Total Energy =                       -382.5973289581763765
  Basis Set: CC-PVTZ
  Basis Set:
  Basis Set: CC-PVTZ
  Basis Set:
  @DF-RHF Final Energy:  -382.59741578097749
    Total Energy =                       -382.5974157809777125
  Basis Set: CC-PVTZ
  Basis Set:
  Basis Set: CC-PVTZ
  Basis Set:
  @DF-RHF Final Energy:  -382.59751716876985
    Total Energy =                       -382.5975171687698548
  Basis Set: CC-PVTZ
  Basis Set:
  Basis Set: CC-PVTZ
  Basis Set:
  @DF-RHF Final Energy:  -382.59753430313441
    Total Energy =                       -382.5975343031344664
  Basis Set: CC-PVTZ
  Basis Set:
  Basis Set: CC-PVTZ
  Basis Set:
  @DF-RHF Final Energy:  -382.59753581764875
    Total Energy =                       -382.5975358176483496
  Basis Set: CC-PVTZ
  Basis Set:
  Charge       = 0
  Multiplicity = 1
  Basis Set: CC-PVTZ
  Basis Set:

    Orbital Energies (a.u.)
    -----------------------

    Doubly Occupied:

       1A    -20.548424     2A    -11.330907     3A    -11.247166
       4A    -11.242119     5A    -11.241040     6A    -11.239734
       7A    -11.239111     8A    -11.237198     9A    -11.231474
      10A     -1.408059    11A     -1.171340    12A     -1.054371
      13A     -1.029878    14A     -1.001451    15A     -0.862554
      16A     -0.841633    17A     -0.765616    18A     -0.706621
      19A     -0.666946    20A     -0.648107    21A     -0.632445
      22A     -0.623566    23A     -0.602373    24A     -0.592829
      25A     -0.565322    26A     -0.525700    27A     -0.516558
      28A     -0.511854    29A     -0.497117    30A     -0.413529
      31A     -0.349028    32A     -0.346649

  @DF-RHF Final Energy:  -382.59753628677015

   => Energetics <=

    Nuclear Repulsion Energy =            403.6031737892450337
    One-Electron Energy =               -1318.6199756625196642
    Two-Electron Energy =                 532.4192655865040251
    DFT Exchange-Correlation Energy =       0.0000000000000000
    Empirical Dispersion Energy =           0.0000000000000000
    PCM Polarization Energy =               0.0000000000000000
    EFP Energy =                            0.0000000000000000
    Total Energy =                       -382.5975362867706053
    Molecular point group: c1
  Basis Set: CC-PVTZ
  Basis Set:

  -Total Gradient:
     Atom            X                  Y                   Z
    ------   -----------------  -----------------  -----------------
       1       -0.000003064804    -0.000005992496    -0.000001236973
       2       -0.000008114411    -0.000033971681     0.000006739022
       3       -0.000016775968     0.000024804833    -0.000011469744
       4        0.000044880002     0.000008890857     0.000005414706
       5       -0.000001429537     0.000002694014    -0.000000273529
       6       -0.000003507815     0.000021974654     0.000011314153
       7        0.000005198568    -0.000002654804    -0.000005203074
       8       -0.000021257224    -0.000030102237     0.001943934042
       9        0.000015698379    -0.000012795520    -0.000000117523
      10        0.000067655056     0.000797094196    -0.002686562334
      11        0.000007429182     0.000010517746     0.000004711768
      12       -0.000211152980    -0.002507468752     0.000410083962
      13        0.000099420227     0.001758482014     0.000344464989
      14        0.000009389318     0.000004934859     0.000000404358
      15        0.000007623607    -0.000023214568    -0.000009858580
      16        0.000015505993     0.000003425841    -0.000009010134
      17       -0.000007497592    -0.000016618956    -0.000003335108

  **** Optimization is complete! (in 7 steps) ****
    Final optimized geometry and variables:
    Molecular point group: c1

    Geometry (in Angstrom), charge = 0, multiplicity = 1:

    H           -3.633525288565     0.274453106296     0.003107662310
    C           -2.563721016789     0.192602642824    -0.010461375522
    C           -1.964251412474    -1.052206692972    -0.025577710368
    C           -1.781284976551     1.331798509029    -0.013695929438
    H           -2.567124196150    -1.939960463834    -0.026467980986
    C           -0.586430627482    -1.158088622982    -0.037376780745
    H           -2.242040217917     2.300887734626    -0.002255156144
    C           -0.403753277628     1.227608886313    -0.037129428840
    H           -0.127156441921    -2.129054456551    -0.046662496205
    C            0.198587124154    -0.018437489057    -0.055145867173
    H            0.200932789162     2.114582707030    -0.053673819499
    C            1.702613823062    -0.121059316541    -0.063298807321
    C            2.366750415871    -0.417062995958     1.258981775887
    O            2.326121070565     0.063505919286    -1.054930489731
    H            2.132752581892     0.375448320791     1.961251278427
    H            3.435602318697    -0.489855464740     1.126628649889
    H            1.978760505710    -1.337628691248     1.679723385239

  Mulliken Charges: (a.u.)
   Center  Symbol    Alpha    Beta     Spin     Total
       1     H     0.42160  0.42160  0.00000  0.15681
       2     C     3.08580  3.08580  0.00000 -0.17160
       3     C     3.06375  3.06375  0.00000 -0.12750
       4     C     3.06269  3.06269  0.00000 -0.12537
       5     H     0.42141  0.42141  0.00000  0.15718
       6     C     3.10052  3.10052  0.00000 -0.20103
       7     H     0.42130  0.42130  0.00000  0.15740
       8     C     3.09764  3.09764  0.00000 -0.19529
       9     H     0.42358  0.42358  0.00000  0.15284
      10     C     2.95122  2.95122  0.00000  0.09757
      11     H     0.42123  0.42123  0.00000  0.15753
      12     C     2.88174  2.88174  0.00000  0.23652
      13     C     3.15028  3.15028  0.00000 -0.30055
      14     O     4.16657  4.16657  0.00000 -0.33315
      15     H     0.44637  0.44637  0.00000  0.10727
      16     H     0.43617  0.43617  0.00000  0.12766
      17     H     0.44814  0.44814  0.00000  0.10371

   Total alpha = 32.00000, Total beta = 32.00000, Total charge =  0.00000
