  ==> Input File <==

--------------------------------------------------------------------------
set {
	reference rhf
	basis 6-31G*
}

set_num_threads( 1 )
memory 2 gb

molecule MOL {
0 1

H	 2.591676	 2.013956	 0.335017
O	 3.341076	 1.666752	 -0.126416
C	 3.569581	 0.339145	 0.272707
C	 2.539767	 -0.640285	 -0.279495
H	 4.553106	 0.084646	 -0.100901
H	 3.608576	 0.269204	 1.359154
C	 1.115811	 -0.397273	 0.226630
H	 2.556196	 -0.582511	 -1.364741
H	 2.852081	 -1.648031	 -0.010655
C	 0.301634	 -1.688808	 0.344407
H	 0.610312	 0.290247	 -0.445791
H	 1.156064	 0.089657	 1.201114
C	 -1.104950	 -1.512325	 0.928116
H	 0.228391	 -2.156459	 -0.635790
H	 0.849941	 -2.387462	 0.972851
C	 -2.069643	 -0.707568	 0.052781
H	 -1.531130	 -2.499079	 1.096944
H	 -1.031094	 -1.043911	 1.908407
C	 -3.487014	 -0.648539	 0.626377
H	 -2.104030	 -1.148338	 -0.942533
H	 -1.700507	 0.307064	 -0.075921
C	 -4.450450	 0.159570	 -0.242194
H	 -3.869903	 -1.659948	 0.744426
H	 -3.453438	 -0.217325	 1.624782
H	 -4.531112	 -0.265999	 -1.238492
H	 -5.446306	 0.181062	 0.189596
H	 -4.114535	 1.187216	 -0.349281

	symmetry c1
}
set optking {
	frozen_dihedral = ("
		14 10 7 4,
		14 10 13 16,
		8 4 3 2,
		10 13 16 20,
		20 16 19 22,
		4 3 2 1
	")
}

ee = energy('scf')
oeprop('DIPOLE', 'QUADRUPOLE', 'MULLIKEN_CHARGES')
f=open( 'psi4out.xyz', 'w' )
f.write( "27  " )
f.write( str(ee) + "\n" )
f.write( MOL.save_string_xyz() )
f.close()
--------------------------------------------------------------------------

    Molecular point group: c1

    Geometry (in Angstrom), charge = 0, multiplicity = 1:

       Center              X                  Y                   Z               Mass
    ------------   -----------------  -----------------  -----------------  -----------------
           H          2.579591119819     2.350153599734     0.139594015955     1.007825032070
           O          3.328991119819     2.002949599734    -0.321838984045    15.994914619560
           C          3.557496119819     0.675342599734     0.077284015955    12.000000000000
           C          2.527682119819    -0.304087400266    -0.474917984045    12.000000000000
           H          4.541021119819     0.420843599734    -0.296323984045     1.007825032070
           H          3.596491119819     0.605401599734     1.163731015955     1.007825032070
           C          1.103726119819    -0.061075400266     0.031207015955    12.000000000000
           H          2.544111119819    -0.246313400266    -1.560163984045     1.007825032070
           H          2.839996119819    -1.311833400266    -0.206077984045     1.007825032070
           C          0.289549119819    -1.352610400266     0.148984015955    12.000000000000
           H          0.598227119819     0.626444599734    -0.641213984045     1.007825032070
           H          1.143979119819     0.425854599734     1.005691015955     1.007825032070
           C         -1.117034880181    -1.176127400266     0.732693015955    12.000000000000
           H          0.216306119819    -1.820261400266    -0.831212984045     1.007825032070
           H          0.837856119819    -2.051264400266     0.777428015955     1.007825032070
           C         -2.081727880181    -0.371370400266    -0.142641984045    12.000000000000
           H         -1.543214880181    -2.162881400266     0.901521015955     1.007825032070
           H         -1.043178880181    -0.707713400266     1.712984015955     1.007825032070
           C         -3.499098880181    -0.312341400266     0.430954015955    12.000000000000
           H         -2.116114880181    -0.812140400266    -1.137955984045     1.007825032070
           H         -1.712591880181     0.643261599734    -0.271343984045     1.007825032070
           C         -4.462534880181     0.495767599734    -0.437616984045    12.000000000000
           H         -3.881987880181    -1.323750400266     0.549003015955     1.007825032070
           H         -3.465522880181     0.118872599734     1.429359015955     1.007825032070
           H         -4.543196880181     0.070198599734    -1.433914984045     1.007825032070
           H         -5.458390880181     0.517259599734    -0.005826984045     1.007825032070
           H         -4.126619880181     1.523413599734    -0.544703984045     1.007825032070

  Charge       = 0
  Multiplicity = 1
  Basis Set: 6-31G*
  Basis Set:

    Orbital Energies (a.u.)
    -----------------------

    Doubly Occupied:

       1A    -20.551920     2A    -11.266885     3A    -11.219295
       4A    -11.217966     5A    -11.216189     6A    -11.215908
       7A    -11.214376     8A    -11.214188     9A    -11.209465
      10A     -1.358652    11A     -1.095563    12A     -1.061690
      13A     -1.011419    14A     -0.948194    15A     -0.888338
      16A     -0.820544    17A     -0.801409    18A     -0.778559
      19A     -0.696361    20A     -0.648952    21A     -0.631328
      22A     -0.619407    23A     -0.603244    24A     -0.584411
      25A     -0.577471    26A     -0.553011    27A     -0.542209
      28A     -0.528003    29A     -0.507511    30A     -0.495966
      31A     -0.484654    32A     -0.475727    33A     -0.469033
      34A     -0.461352    35A     -0.448279    36A     -0.441945
      37A     -0.423033

  @DF-RHF Final Energy:  -388.27897875801824

   => Energetics <=

    Nuclear Repulsion Energy =            458.8334924062631330
    One-Electron Energy =               -1435.6595737270415611
    Two-Electron Energy =                 588.5471025627618928
    DFT Exchange-Correlation Energy =       0.0000000000000000
    Empirical Dispersion Energy =           0.0000000000000000
    PCM Polarization Energy =               0.0000000000000000
    EFP Energy =                            0.0000000000000000
    Total Energy =                       -388.2789787580165921

  Mulliken Charges: (a.u.)
   Center  Symbol    Alpha    Beta     Spin     Total
       1     H     0.28006  0.28006  0.00000  0.43987
       2     O     4.37119  4.37119  0.00000 -0.74238
       3     C     2.99891  2.99891  0.00000  0.00218
       4     C     3.16128  3.16128  0.00000 -0.32255
       5     H     0.41521  0.41521  0.00000  0.16958
       6     H     0.43195  0.43195  0.00000  0.13610
       7     C     3.16470  3.16470  0.00000 -0.32940
       8     H     0.41356  0.41356  0.00000  0.17289
       9     H     0.42308  0.42308  0.00000  0.15384
      10     C     3.15402  3.15402  0.00000 -0.30804
      11     H     0.41504  0.41504  0.00000  0.16992
      12     H     0.42922  0.42922  0.00000  0.14155
      13     C     3.15372  3.15372  0.00000 -0.30745
      14     H     0.42164  0.42164  0.00000  0.15671
      15     H     0.42161  0.42161  0.00000  0.15679
      16     C     3.15262  3.15262  0.00000 -0.30525
      17     H     0.42132  0.42132  0.00000  0.15736
      18     H     0.42444  0.42444  0.00000  0.15112
      19     C     3.15119  3.15119  0.00000 -0.30238
      20     H     0.42389  0.42389  0.00000  0.15222
      21     H     0.42304  0.42304  0.00000  0.15391
      22     C     3.23923  3.23923  0.00000 -0.47846
      23     H     0.42294  0.42294  0.00000  0.15413
      24     H     0.42335  0.42335  0.00000  0.15329
      25     H     0.42154  0.42154  0.00000  0.15692
      26     H     0.41923  0.41923  0.00000  0.16154
      27     H     0.42202  0.42202  0.00000  0.15596

   Total alpha = 37.00000, Total beta = 37.00000, Total charge =  0.00000
