  ==> Input File <==

--------------------------------------------------------------------------
set {
	reference rhf
	basis 6-31G*
}

set_num_threads( 1 )
memory 2 gb

molecule MOL {
0 1

H	 -3.711020	 -0.134640	 -0.496471
O	 -2.874029	 0.210902	 -0.771829
C	 -2.026376	 0.340750	 0.341611
C	 -0.673256	 0.843270	 -0.132153
H	 -2.447778	 1.042480	 1.059198
H	 -1.910963	 -0.616901	 0.847810
C	 0.486613	 -0.083066	 0.235839
H	 -0.715586	 0.970948	 -1.210718
H	 -0.508072	 1.829858	 0.297090
C	 1.840406	 0.433480	 -0.254303
H	 0.300215	 -1.068318	 -0.178947
H	 0.519509	 -0.203625	 1.318070
C	 3.000220	 -0.489290	 0.118523
H	 1.809207	 0.553576	 -1.335192
H	 2.021860	 1.424500	 0.157276
H	 2.864959	 -1.479103	 -0.307933
H	 3.946603	 -0.099227	 -0.243630
H	 3.080049	 -0.602997	 1.196117

	symmetry c1
}
set optking {
	frozen_dihedral = ("
		14 10 7 11,
		10 7 4 8,
		1 2 3 4
	")
}

ee = energy('scf')
oeprop('DIPOLE', 'QUADRUPOLE', 'MULLIKEN_CHARGES')
f=open( 'psi4out.xyz', 'w' )
f.write( "18  " )
f.write( str(ee) + "\n" )
f.write( MOL.save_string_xyz() )
f.close()
--------------------------------------------------------------------------

    Molecular point group: c1

    Geometry (in Angstrom), charge = 0, multiplicity = 1:

       Center              X                  Y                   Z               Mass
    ------------   -----------------  -----------------  -----------------  -----------------
           H         -3.607164499068    -0.333805899163    -0.411104469330     1.007825032070
           O         -2.770173499068     0.011736100837    -0.686462469330    15.994914619560
           C         -1.922520499068     0.141584100837     0.426977530670    12.000000000000
           C         -0.569400499068     0.644104100837    -0.046786469330    12.000000000000
           H         -2.343922499068     0.843314100837     1.144564530670     1.007825032070
           H         -1.807107499068    -0.816066899163     0.933176530670     1.007825032070
           C          0.590468500932    -0.282231899163     0.321205530670    12.000000000000
           H         -0.611730499068     0.771782100837    -1.125351469330     1.007825032070
           H         -0.404216499068     1.630692100837     0.382456530670     1.007825032070
           C          1.944261500932     0.234314100837    -0.168936469330    12.000000000000
           H          0.404070500932    -1.267483899163    -0.093580469330     1.007825032070
           H          0.623364500932    -0.402790899163     1.403436530670     1.007825032070
           C          3.104075500932    -0.688455899163     0.203889530670    12.000000000000
           H          1.913062500932     0.354410100837    -1.249825469330     1.007825032070
           H          2.125715500932     1.225334100837     0.242642530670     1.007825032070
           H          2.968814500932    -1.678268899163    -0.222566469330     1.007825032070
           H          4.050458500932    -0.298392899163    -0.158263469330     1.007825032070
           H          3.183904500932    -0.802162899163     1.281483530670     1.007825032070

  Charge       = 0
  Multiplicity = 1
  Basis Set: 6-31G*
  Basis Set:

    Orbital Energies (a.u.)
    -----------------------

    Doubly Occupied:

       1A    -20.551505     2A    -11.266060     3A    -11.214263
       4A    -11.213632     5A    -11.209204     6A    -11.207610
       7A     -1.358180     8A     -1.078943     9A     -1.010189
      10A     -0.913253    11A     -0.818832    12A     -0.791105
      13A     -0.700949    14A     -0.646153    15A     -0.626814
      16A     -0.581570    17A     -0.571329    18A     -0.559365
      19A     -0.526962    20A     -0.495453    21A     -0.489706
      22A     -0.469355    23A     -0.463139    24A     -0.453481
      25A     -0.425464

  @DF-RHF Final Energy:  -271.17351675650457

   => Energetics <=

    Nuclear Repulsion Energy =            246.1686483492751449
    One-Electron Energy =                -855.3993837953771617
    Two-Electron Energy =                 338.0572186895975051
    DFT Exchange-Correlation Energy =       0.0000000000000000
    Empirical Dispersion Energy =           0.0000000000000000
    PCM Polarization Energy =               0.0000000000000000
    EFP Energy =                            0.0000000000000000
    Total Energy =                       -271.1735167565045117

  Mulliken Charges: (a.u.)
   Center  Symbol    Alpha    Beta     Spin     Total
       1     H     0.28209  0.28209  0.00000  0.43582
       2     O     4.37090  4.37090  0.00000 -0.74181
       3     C     2.99486  2.99486  0.00000  0.01028
       4     C     3.16487  3.16487  0.00000 -0.32973
       5     H     0.43065  0.43065  0.00000  0.13870
       6     H     0.42974  0.42974  0.00000  0.14051
       7     C     3.15826  3.15826  0.00000 -0.31652
       8     H     0.40336  0.40336  0.00000  0.19329
       9     H     0.42129  0.42129  0.00000  0.15743
      10     C     3.15223  3.15223  0.00000 -0.30446
      11     H     0.41943  0.41943  0.00000  0.16115
      12     H     0.42568  0.42568  0.00000  0.14865
      13     C     3.23926  3.23926  0.00000 -0.47852
      14     H     0.42112  0.42112  0.00000  0.15776
      15     H     0.42301  0.42301  0.00000  0.15398
      16     H     0.42150  0.42150  0.00000  0.15700
      17     H     0.41930  0.41930  0.00000  0.16140
      18     H     0.42247  0.42247  0.00000  0.15507

   Total alpha = 25.00000, Total beta = 25.00000, Total charge =  0.00000
