  ==> Input File <==

--------------------------------------------------------------------------
set {
	reference rhf
	basis cc-pvtz
}

set_num_threads( 4 )
memory 2 gb

molecule MOL {
0 1

O	 -0.642001	 -0.062350	 -0.277313
C	 0.485107	 0.171416	 -0.000134
C	 1.606966	 -0.836201	 0.000174
O	 0.914757	 1.370587	 0.351967
C	 2.988788	 -0.202529	 -0.000115
H	 1.465110	 -1.474645	 -0.864821
H	 1.465209	 -1.474077	 0.865596
H	 3.131767	 0.419673	 -0.873407
H	 3.750876	 -0.972315	 0.000098
H	 3.131883	 0.420264	 0.872742
C	 -0.033341	 2.427642	 0.397032
C	 0.693404	 3.681830	 0.822876
H	 -0.818484	 2.168171	 1.093144
H	 -0.482201	 2.541242	 -0.579669
H	 1.139407	 3.555914	 1.801446
H	 -0.003238	 4.510631	 0.867717
H	 1.477556	 3.931162	 0.119094

	symmetry c1
}
set optking {
	frozen_dihedral = ("
		4 2 3 6
	")
}

ee = optimize('scf')
oeprop('DIPOLE', 'QUADRUPOLE', 'MULLIKEN_CHARGES')
f=open( 'psi4out.xyz', 'w' )
f.write( "17  " )
f.write( str(ee) + "\n" )
f.write( MOL.save_string_xyz() )
f.close()
--------------------------------------------------------------------------

    Molecular point group: c1
  Charge       = 0
  Multiplicity = 1
  Basis Set: CC-PVTZ
  Basis Set:
  @DF-RHF Final Energy:  -345.03694841767947
    Total Energy =                       -345.0369484176791843
    Molecular point group: c1
  Basis Set: CC-PVTZ
  Basis Set:
  Basis Set: CC-PVTZ
  Basis Set:
  @DF-RHF Final Energy:  -345.03779319897552
    Total Energy =                       -345.0377931989758054
  Basis Set: CC-PVTZ
  Basis Set:
  Basis Set: CC-PVTZ
  Basis Set:
  @DF-RHF Final Energy:  -345.03776366208399
    Total Energy =                       -345.0377636620839894
  Basis Set: CC-PVTZ
  Basis Set:
  Basis Set: CC-PVTZ
  Basis Set:
  @DF-RHF Final Energy:  -345.03809419486055
    Total Energy =                       -345.0380941948609461
  Basis Set: CC-PVTZ
  Basis Set:
  Basis Set: CC-PVTZ
  Basis Set:
  @DF-RHF Final Energy:  -345.03813551482403
    Total Energy =                       -345.0381355148240345
  Basis Set: CC-PVTZ
  Basis Set:
  Basis Set: CC-PVTZ
  Basis Set:
  @DF-RHF Final Energy:  -345.03813967927852
    Total Energy =                       -345.0381396792784585
  Basis Set: CC-PVTZ
  Basis Set:
  Charge       = 0
  Multiplicity = 1
  Basis Set: CC-PVTZ
  Basis Set:

    Orbital Energies (a.u.)
    -----------------------

    Doubly Occupied:

       1A    -20.596282     2A    -20.528304     3A    -11.363747
       4A    -11.283453     5A    -11.236103     6A    -11.221234
       7A    -11.218808     8A     -1.471519     9A     -1.363068
      10A     -1.072924    11A     -1.031229    12A     -0.906268
      13A     -0.861741    14A     -0.780393    15A     -0.693304
      16A     -0.680328    17A     -0.675049    18A     -0.630333
      19A     -0.577572    20A     -0.573520    21A     -0.554249
      22A     -0.550507    23A     -0.523485    24A     -0.514800
      25A     -0.507774    26A     -0.491628    27A     -0.454058
      28A     -0.433900

  @DF-RHF Final Energy:  -345.03813975533745

   => Energetics <=

    Nuclear Repulsion Energy =            318.0629553536330718
    One-Electron Energy =               -1100.6110293202493722
    Two-Electron Energy =                 437.5099342112787895
    DFT Exchange-Correlation Energy =       0.0000000000000000
    Empirical Dispersion Energy =           0.0000000000000000
    PCM Polarization Energy =               0.0000000000000000
    EFP Energy =                            0.0000000000000000
    Total Energy =                       -345.0381397553375677
    Molecular point group: c1
  Basis Set: CC-PVTZ
  Basis Set:

  -Total Gradient:
     Atom            X                  Y                   Z
    ------   -----------------  -----------------  -----------------
       1        0.000046094347     0.000020000505     0.000005587008
       2       -0.000112475975    -0.000126105239     0.000487434814
       3       -0.000306196466    -0.000326541782     0.000181769719
       4        0.000082272828     0.000150802889    -0.000414252056
       5        0.000001501186     0.000001500067     0.000004688028
       6        0.000280500112     0.000306837377    -0.000275926090
       7       -0.000000697530     0.000001007315     0.000002269374
       8       -0.000000114238     0.000000398815    -0.000001596480
       9       -0.000003872477    -0.000001172498    -0.000000899340
      10        0.000000582702    -0.000000799322    -0.000000231736
      11        0.000021756989    -0.000043022542     0.000034377467
      12       -0.000002804629     0.000007468714    -0.000009509625
      13       -0.000005034052     0.000008754319    -0.000003067234
      14       -0.000000972891     0.000001994683    -0.000008839482
      15       -0.000002373800    -0.000004339847    -0.000001772550
      16       -0.000000185750     0.000001618378    -0.000000579987
      17        0.000002019645     0.000001598163     0.000000548173

  **** Optimization is complete! (in 7 steps) ****
    Final optimized geometry and variables:
    Molecular point group: c1

    Geometry (in Angstrom), charge = 0, multiplicity = 1:

    O           -1.476854739386    -1.017231134866    -0.450074775093
    C           -0.350791821681    -0.756704385469    -0.188717679566
    C            0.755891195114    -1.786672884973    -0.200035486882
    O            0.051580079565     0.450715838908     0.156664426917
    C            2.183829005614    -1.256815728417    -0.188869654970
    H            0.577161214585    -2.406144152280    -1.068937458027
    H            0.578655398014    -2.419798616473     0.663316469201
    H            2.376331764958    -0.622989248308    -1.045389857438
    H            2.880573294736    -2.085538180993    -0.222433105937
    H            2.386946840102    -0.679817022642     0.702594937703
    C           -0.926185412969     1.480497838119     0.219737364764
    C           -0.228225124105     2.755823153928     0.630429959587
    H           -1.689470067551     1.197874920383     0.930660135104
    H           -1.396542390751     1.578319890742    -0.748238825170
    H            0.239462801565     2.645124941237     1.600705771451
    H           -0.948204151886     3.563624951901     0.687528643661
    H            0.534670255844     3.027450074258    -0.088312267460

  Mulliken Charges: (a.u.)
   Center  Symbol    Alpha    Beta     Spin     Total
       1     O     4.20422  4.20422  0.00000 -0.40844
       2     C     2.81126  2.81126  0.00000  0.37748
       3     C     3.08972  3.08972  0.00000 -0.17945
       4     O     4.14716  4.14716  0.00000 -0.29432
       5     C     3.14140  3.14140  0.00000 -0.28280
       6     H     0.43669  0.43669  0.00000  0.12662
       7     H     0.44284  0.44284  0.00000  0.11432
       8     H     0.45139  0.45139  0.00000  0.09722
       9     H     0.44923  0.44923  0.00000  0.10155
      10     H     0.44886  0.44886  0.00000  0.10228
      11     C     2.98015  2.98015  0.00000  0.03970
      12     C     3.13364  3.13364  0.00000 -0.26729
      13     H     0.45343  0.45343  0.00000  0.09314
      14     H     0.45344  0.45344  0.00000  0.09312
      15     H     0.45156  0.45156  0.00000  0.09688
      16     H     0.45373  0.45373  0.00000  0.09255
      17     H     0.45127  0.45127  0.00000  0.09745

   Total alpha = 28.00000, Total beta = 28.00000, Total charge =  0.00000
