                              Psi4 1.0.54 Driver

  ==> Input File <==

--------------------------------------------------------------------------
set {
	reference rhf
	basis cc-pvtz
}

set_num_threads( 4 )
memory 2 gb

molecule MOL {
0 1

H	 -3.144994	 -1.202467	 -0.018751
O	 -2.321472	 -0.864941	 -0.318626
C	 -2.021813	 0.336996	 0.342658
C	 -0.669613	 0.837286	 -0.127252
H	 -2.780861	 1.084746	 0.127159
H	 -2.006390	 0.184138	 1.420053
C	 0.490865	 -0.082543	 0.241244
H	 -0.708709	 0.967192	 -1.204587
H	 -0.507562	 1.822272	 0.303070
C	 1.839800	 0.429565	 -0.255472
H	 0.305636	 -1.070211	 -0.165276
H	 0.527397	 -0.195943	 1.322876
C	 2.990474	 0.094342	 0.687588
H	 2.043963	 0.007151	 -1.235567
H	 1.789847	 1.506715	 -0.393104
H	 3.088551	 -0.978209	 0.817707
H	 3.933678	 0.469128	 0.306527
H	 2.833048	 0.531543	 1.668158

	symmetry c1
}
set optking {
	frozen_dihedral = ("
		14 10 7 11
	")
}

ee,wfn = optimize('scf', return_wfn=True)
oeprop( wfn, 'DIPOLE', 'QUADRUPOLE', 'MULLIKEN_CHARGES')
f=open( 'psi4out.xyz', 'w' )
f.write( "18  " )
f.write( str(ee) + "\n" )
f.write( MOL.save_string_xyz() )
f.close()
--------------------------------------------------------------------------

    Molecular point group: c1
  Charge       = 0
  Multiplicity = 1
  Basis Set: CC-PVTZ
  Basis Set:
  @DF-RHF Final Energy:  -271.28341650254328
    Total Energy =                       -271.2834165025432753
    Molecular point group: c1
  Basis Set: CC-PVTZ
  Basis Set:
  Basis Set: CC-PVTZ
  Basis Set:
  @DF-RHF Final Energy:  -271.28369443774045
    Total Energy =                       -271.2836944377404507
  Basis Set: CC-PVTZ
  Basis Set:
  Basis Set: CC-PVTZ
  Basis Set:
  @DF-RHF Final Energy:  -271.28377553503384
    Total Energy =                       -271.2837755350338966
  Basis Set: CC-PVTZ
  Basis Set:
  Charge       = 0
  Multiplicity = 1
  Basis Set: CC-PVTZ
  Basis Set:

    Orbital Energies (a.u.)
    -----------------------

    Doubly Occupied:

       1A    -20.546347     2A    -11.265775     3A    -11.210448
       4A    -11.209036     5A    -11.204861     6A    -11.203207
       7A     -1.364178     8A     -1.075285     9A     -1.009858
      10A     -0.914056    11A     -0.818732    12A     -0.784400
      13A     -0.708686    14A     -0.640647    15A     -0.626311
      16A     -0.587892    17A     -0.573758    18A     -0.555791
      19A     -0.523900    20A     -0.501723    21A     -0.491633
      22A     -0.467470    23A     -0.456978    24A     -0.449031
      25A     -0.430445

  @DF-RHF Final Energy:  -271.28377642013311

   => Energetics <=

    Nuclear Repulsion Energy =            249.1207287417551299
    One-Electron Energy =                -861.5681124501185195
    Two-Electron Energy =                 341.1636072882303097
    DFT Exchange-Correlation Energy =       0.0000000000000000
    Empirical Dispersion Energy =           0.0000000000000000
    PCM Polarization Energy =               0.0000000000000000
    EFP Energy =                            0.0000000000000000
    Total Energy =                       -271.2837764201331083
    Molecular point group: c1
  Basis Set: CC-PVTZ
  Basis Set:

  -Total Gradient:
     Atom            X                  Y                   Z
    ------   -----------------  -----------------  -----------------
       1       -0.000002131847    -0.000008590997    -0.000009912650
       2       -0.000023274872    -0.000013143997     0.000033184632
       3       -0.000036688510     0.000045726050    -0.000049186003
       4        0.000037589184    -0.000040553921     0.000068342131
       5       -0.000026693871    -0.000010932486     0.000011635988
       6        0.000003824138    -0.000011200359    -0.000017099247
       7        0.002964453199    -0.002971377590     0.004735213725
       8       -0.000007712565    -0.000005448513     0.000016571265
       9        0.000006428934     0.000015398978    -0.000010934312
      10       -0.002936705600     0.004610641601    -0.003135382039
      11       -0.002043404222     0.001786327156    -0.003508142999
      12       -0.000000488021     0.000017887671    -0.000021753653
      13        0.000006437817     0.000046861985    -0.000047888655
      14        0.002025801516    -0.003433494508     0.001905086459
      15        0.000008922842    -0.000023016634     0.000022112637
      16       -0.000003485151     0.000026496670    -0.000003130207
      17        0.000021360785    -0.000009847465     0.000027387639
      18        0.000005766242    -0.000021733642    -0.000016104713

  **** Optimization is complete! (in 4 steps) ****
    Final optimized geometry and variables:
    Molecular point group: c1

    Geometry (in Angstrom), charge = 0, multiplicity = 1:

    H           -3.127276872775    -1.329925200074    -0.159819487297
    O           -2.302430128951    -0.979772218682    -0.440698214029
    C           -2.035584616843     0.225896412744     0.228078324563
    C           -0.679941769570     0.745973812009    -0.209299881184
    H           -2.800354882847     0.962620119315    -0.004494470313
    H           -2.043152911798     0.072052545906     1.305485960637
    C            0.487954823841    -0.152959144279     0.194953022054
    H           -0.692670088942     0.868029633328    -1.288442557963
    H           -0.544665776629     1.736371096513     0.217606780475
    C            1.836239634752     0.350294088373    -0.338449931762
    H            0.289605575687    -1.143458008894    -0.194988092953
    H            0.519817271237    -0.227134944314     1.278397693982
    C            3.009983024155    -0.024207703915     0.564020960702
    H            2.017797435048    -0.084206421594    -1.316250027770
    H            1.812703170464     1.428134125860    -0.463746559904
    H            3.065441941982    -1.098809774426     0.704681461811
    H            3.953320924052     0.302419197468     0.140809666348
    H            2.910841206913     0.430315086371     1.544260555593

  Mulliken Charges: (a.u.)
   Center  Symbol    Alpha    Beta     Spin     Total
       1     H     0.39562  0.39562  0.00000  0.20877
       2     O     4.19898  4.19898  0.00000 -0.39797
       3     C     2.97380  2.97380  0.00000  0.05240
       4     C     3.09115  3.09115  0.00000 -0.18231
       5     H     0.46525  0.46525  0.00000  0.06950
       6     H     0.47368  0.47368  0.00000  0.05264
       7     C     3.08958  3.08958  0.00000 -0.17917
       8     H     0.45170  0.45170  0.00000  0.09660
       9     H     0.45448  0.45448  0.00000  0.09104
      10     C     3.08470  3.08470  0.00000 -0.16940
      11     H     0.44370  0.44370  0.00000  0.11259
      12     H     0.45897  0.45897  0.00000  0.08206
      13     C     3.14882  3.14882  0.00000 -0.29763
      14     H     0.45212  0.45212  0.00000  0.09576
      15     H     0.45626  0.45626  0.00000  0.08748
      16     H     0.45421  0.45421  0.00000  0.09157
      17     H     0.45000  0.45000  0.00000  0.10001
      18     H     0.45697  0.45697  0.00000  0.08606

   Total alpha = 25.00000, Total beta = 25.00000, Total charge =  0.00000

*** Psi4 exiting successfully. Buy a developer a beer!
