  ==> Input File <==

--------------------------------------------------------------------------
set {
	reference rhf
	basis cc-pvtz
}

set_num_threads( 4 )
memory 2 gb

molecule MOL {
0 1

H	 1.183963	 -0.594819	 1.377689
O	 1.347060	 -0.504033	 0.455947
C	 0.706474	 0.636793	 -0.025501
C	 -0.793473	 0.591216	 0.050087
H	 1.008250	 0.744151	 -1.060734
H	 1.057597	 1.526845	 0.493363
C	 -1.534243	 -0.493009	 -0.013340
H	 -1.266611	 1.552628	 0.164437
H	 -1.101195	 -1.466332	 -0.144046
H	 -2.604242	 -0.437780	 0.050785

	symmetry c1
}
set optking {
	frozen_dihedral = ("
		5 3 4 7
	")
}

ee = optimize('scf')
oeprop('DIPOLE', 'QUADRUPOLE', 'MULLIKEN_CHARGES')
f=open( 'psi4out.xyz', 'w' )
f.write( "10  " )
f.write( str(ee) + "\n" )
f.write( MOL.save_string_xyz() )
f.close()
--------------------------------------------------------------------------

    Molecular point group: c1
  Charge       = 0
  Multiplicity = 1
  Basis Set: CC-PVTZ
  Basis Set:
  @DF-RHF Final Energy:  -191.99681693730093
    Total Energy =                       -191.9968169373010483
    Molecular point group: c1
  Basis Set: CC-PVTZ
  Basis Set:
  Basis Set: CC-PVTZ
  Basis Set:
  @DF-RHF Final Energy:  -191.99729964265418
    Total Energy =                       -191.9972996426541556
  Basis Set: CC-PVTZ
  Basis Set:
  Basis Set: CC-PVTZ
  Basis Set:
  @DF-RHF Final Energy:  -191.99735555026948
    Total Energy =                       -191.9973555502693330
  Basis Set: CC-PVTZ
  Basis Set:
  Basis Set: CC-PVTZ
  Basis Set:
  @DF-RHF Final Energy:  -191.99735869456686
    Total Energy =                       -191.9973586945669410
  Basis Set: CC-PVTZ
  Basis Set:
  Charge       = 0
  Multiplicity = 1
  Basis Set: CC-PVTZ
  Basis Set:

    Orbital Energies (a.u.)
    -----------------------

    Doubly Occupied:

       1A    -20.552161     2A    -11.276905     3A    -11.230225
       4A    -11.218737     5A     -1.371697     6A     -1.062224
       7A     -0.929753     8A     -0.774451     9A     -0.686376
      10A     -0.665367    11A     -0.615099    12A     -0.577127
      13A     -0.548305    14A     -0.487089    15A     -0.453324
      16A     -0.370274

  @DF-RHF Final Energy:  -191.99735905452252

   => Energetics <=

    Nuclear Repulsion Energy =            119.3740714518047952
    One-Electron Energy =                -497.1046323881556077
    Two-Electron Energy =                 185.7332018818281654
    DFT Exchange-Correlation Energy =       0.0000000000000000
    Empirical Dispersion Energy =           0.0000000000000000
    PCM Polarization Energy =               0.0000000000000000
    EFP Energy =                            0.0000000000000000
    Total Energy =                       -191.9973590545226330
    Molecular point group: c1
  Basis Set: CC-PVTZ
  Basis Set:

  -Total Gradient:
     Atom            X                  Y                   Z
    ------   -----------------  -----------------  -----------------
       1       -0.000011590154     0.000016100490    -0.000003966268
       2        0.000039125714    -0.000039477282     0.000016699672
       3       -0.000215672219     0.004349618895    -0.001294065392
       4        0.000280567504    -0.001167504721     0.004797720465
       5        0.000115502413    -0.003380323988    -0.000285004422
       6       -0.000031842430    -0.000034754351    -0.000013107057
       7       -0.000181244986     0.000242776817    -0.003184381320
       8        0.000002489624    -0.000008282773    -0.000002883880
       9        0.000001351543     0.000013610479    -0.000004405033
      10        0.000001312990     0.000008236432    -0.000026606765

  **** Optimization is complete! (in 5 steps) ****
    Final optimized geometry and variables:
    Molecular point group: c1

    Geometry (in Angstrom), charge = 0, multiplicity = 1:

    H            1.081052850536    -0.717737019933     1.175313936086
    O            1.333851845198    -0.545731591492     0.285768992063
    C            0.700666229007     0.616777533886    -0.165043451690
    C           -0.803582004018     0.563286760577    -0.081682528828
    H            0.997848333123     0.717399075757    -1.201752649927
    H            1.065688003461     1.489167905437     0.369628993446
    C           -1.522606831976    -0.536671072133    -0.134742536849
    H           -1.299478264938     1.518068155635    -0.030821377780
    H           -1.064527470323    -1.505306696992    -0.203958752459
    H           -2.594960984712    -0.501207909797    -0.101691146330

  Mulliken Charges: (a.u.)
   Center  Symbol    Alpha    Beta     Spin     Total
       1     H     0.39223  0.39223  0.00000  0.21555
       2     O     4.20037  4.20037  0.00000 -0.40074
       3     C     2.95282  2.95282  0.00000  0.09437
       4     C     3.09498  3.09498  0.00000 -0.18995
       5     H     0.45166  0.45166  0.00000  0.09668
       6     H     0.46494  0.46494  0.00000  0.07011
       7     C     3.17251  3.17251  0.00000 -0.34501
       8     H     0.42232  0.42232  0.00000  0.15536
       9     H     0.42069  0.42069  0.00000  0.15861
      10     H     0.42749  0.42749  0.00000  0.14502

   Total alpha = 16.00000, Total beta = 16.00000, Total charge =  0.00000
