  ==> Input File <==

--------------------------------------------------------------------------
set {
	reference rhf
	basis 6-31G*
}

set_num_threads( 4 )
memory 2 gb

molecule MOL {
0 1

H	 1.148083	 -1.049780	 0.784252
O	 1.319262	 -0.618148	 -0.041729
C	 0.709265	 0.639550	 -0.033818
C	 1.083806	 1.514490	 -1.201199
H	 1.012511	 1.116896	 0.891052
H	 -0.375227	 0.543417	 0.006941
C	 2.019679	 1.241658	 -2.088029
H	 0.520348	 2.431257	 -1.282047
H	 2.612550	 0.347049	 -2.027960
H	 2.234516	 1.913698	 -2.899315

	symmetry c1
}
set optking {
	frozen_dihedral = ("
		5 3 2 1
	")
}

ee = optimize('scf')
oeprop('DIPOLE', 'QUADRUPOLE', 'MULLIKEN_CHARGES')
f=open( 'psi4out.xyz', 'w' )
f.write( "10  " )
f.write( str(ee) + "\n" )
f.write( MOL.save_string_xyz() )
f.close()
--------------------------------------------------------------------------

    Molecular point group: c1
  Charge       = 0
  Multiplicity = 1
  Basis Set: 6-31G*
  Basis Set:
  @DF-RHF Final Energy:  -191.91365844915833
    Total Energy =                       -191.9136584491583335
    Molecular point group: c1
  Basis Set: 6-31G*
  Basis Set:
  Basis Set: 6-31G*
  Basis Set:
  @DF-RHF Final Energy:  -191.91504026497034
    Total Energy =                       -191.9150402649703437
  Basis Set: 6-31G*
  Basis Set:
  Basis Set: 6-31G*
  Basis Set:
  @DF-RHF Final Energy:  -191.91550062348426
    Total Energy =                       -191.9155006234843199
  Basis Set: 6-31G*
  Basis Set:
  Basis Set: 6-31G*
  Basis Set:
  @DF-RHF Final Energy:  -191.91551956197048
    Total Energy =                       -191.9155195619703989
  Basis Set: 6-31G*
  Basis Set:
  Basis Set: 6-31G*
  Basis Set:
  @DF-RHF Final Energy:  -191.91552099084038
    Total Energy =                       -191.9155209908403208
  Basis Set: 6-31G*
  Basis Set:
  Charge       = 0
  Multiplicity = 1
  Basis Set: 6-31G*
  Basis Set:

    Orbital Energies (a.u.)
    -----------------------

    Doubly Occupied:

       1A    -20.559354     2A    -11.278350     3A    -11.223933
       4A    -11.209393     5A     -1.368092     6A     -1.053425
       7A     -0.921947     8A     -0.752696     9A     -0.710418
      10A     -0.635395    11A     -0.613285    12A     -0.589267
      13A     -0.513329    14A     -0.485095    15A     -0.452974
      16A     -0.354843

  @DF-RHF Final Energy:  -191.91552116325204

   => Energetics <=

    Nuclear Repulsion Energy =            119.4975251182777924
    One-Electron Energy =                -497.3825080396287035
    Two-Electron Energy =                 185.9694617580988734
    DFT Exchange-Correlation Energy =       0.0000000000000000
    Empirical Dispersion Energy =           0.0000000000000000
    PCM Polarization Energy =               0.0000000000000000
    EFP Energy =                            0.0000000000000000
    Total Energy =                       -191.9155211632520377
    Molecular point group: c1
  Basis Set: 6-31G*
  Basis Set:

  -Total Gradient:
     Atom            X                  Y                   Z
    ------   -----------------  -----------------  -----------------
       1        0.000434415441     0.000229924212     0.000220777648
       2       -0.000607606011    -0.000385912756    -0.000203845534
       3        0.000589922081     0.000333249602    -0.000195009477
       4       -0.000059251078     0.000004959874    -0.000009666088
       5       -0.000382780766    -0.000214319374     0.000201698149
       6       -0.000001872888     0.000028745175    -0.000008779829
       7       -0.000009577069    -0.000023898187    -0.000027667501
       8        0.000017624116     0.000006326459     0.000004081805
       9        0.000007850087     0.000010268227     0.000009275047
      10        0.000011276085     0.000010656770     0.000009135778

  **** Optimization is complete! (in 6 steps) ****
    Final optimized geometry and variables:
    Molecular point group: c1

    Geometry (in Angstrom), charge = 0, multiplicity = 1:

    H           -0.067843767128    -1.678844169770     1.516314873186
    O            0.093066711210    -1.201480535059     0.715548559153
    C           -0.593625633207     0.017173964479     0.752840443110
    C           -0.187157467361     0.886487314920    -0.400462207437
    H           -0.394487911883     0.546344463248     1.684826632534
    H           -1.670657306027    -0.146386276882     0.710541869014
    C            0.711350673012     0.576023482648    -1.311513003759
    H           -0.700350996038     1.834163145724    -0.447826475734
    H            1.235528074327    -0.360447794300    -1.288655580240
    H            0.947495682997     1.255185648743    -2.111222845138

  Mulliken Charges: (a.u.)
   Center  Symbol    Alpha    Beta     Spin     Total
       1     H     0.27870  0.27870  0.00000  0.44260
       2     O     4.36856  4.36856  0.00000 -0.73712
       3     C     2.99846  2.99846  0.00000  0.00308
       4     C     3.08897  3.08897  0.00000 -0.17793
       5     H     0.42663  0.42663  0.00000  0.14673
       6     H     0.42556  0.42556  0.00000  0.14889
       7     C     3.18972  3.18972  0.00000 -0.37944
       8     H     0.41198  0.41198  0.00000  0.17604
       9     H     0.39706  0.39706  0.00000  0.20588
      10     H     0.41437  0.41437  0.00000  0.17126

   Total alpha = 16.00000, Total beta = 16.00000, Total charge = -0.00000
