  ==> Input File <==

--------------------------------------------------------------------------
set {
	reference rhf
	basis 6-31G*
}

set_num_threads( 4 )
memory 2 gb

molecule MOL {
0 1

H	 -2.771929	 -0.698970	 -1.117682
O	 -2.310168	 -0.871793	 -0.309793
C	 -2.026376	 0.340750	 0.341611
C	 -0.673256	 0.843270	 -0.132153
H	 -2.792215	 1.080697	 0.115987
H	 -2.013526	 0.200402	 1.421792
C	 0.486613	 -0.083066	 0.235839
H	 -0.715586	 0.970948	 -1.210718
H	 -0.508072	 1.829858	 0.297090
C	 1.840406	 0.433480	 -0.254303
H	 0.300215	 -1.068318	 -0.178947
H	 0.519509	 -0.203625	 1.318070
C	 3.000220	 -0.489290	 0.118523
H	 1.809207	 0.553576	 -1.335192
H	 2.021860	 1.424500	 0.157276
H	 2.864959	 -1.479103	 -0.307933
H	 3.946603	 -0.099227	 -0.243630
H	 3.080049	 -0.602997	 1.196117

	symmetry c1
}
set optking {
	frozen_dihedral = ("
		1 2 3 4
	")
}

ee = optimize('scf')
oeprop('DIPOLE', 'QUADRUPOLE', 'MULLIKEN_CHARGES')
f=open( 'psi4out.xyz', 'w' )
f.write( "18  " )
f.write( str(ee) + "\n" )
f.write( MOL.save_string_xyz() )
f.close()
--------------------------------------------------------------------------

    Molecular point group: c1
  Charge       = 0
  Multiplicity = 1
  Basis Set: 6-31G*
  Basis Set:
  @DF-RHF Final Energy:  -271.17761290404735
    Total Energy =                       -271.1776129040470664
    Molecular point group: c1
  Basis Set: 6-31G*
  Basis Set:
  Basis Set: 6-31G*
  Basis Set:
  @DF-RHF Final Energy:  -271.17878882778598
    Total Energy =                       -271.1787888277860930
  Basis Set: 6-31G*
  Basis Set:
  Basis Set: 6-31G*
  Basis Set:
  @DF-RHF Final Energy:  -271.17902049390398
    Total Energy =                       -271.1790204939039199
  Basis Set: 6-31G*
  Basis Set:
  Charge       = 0
  Multiplicity = 1
  Basis Set: 6-31G*
  Basis Set:

    Orbital Energies (a.u.)
    -----------------------

    Doubly Occupied:

       1A    -20.553038     2A    -11.268256     3A    -11.213963
       4A    -11.212648     5A    -11.208229     6A    -11.205773
       7A     -1.359391     8A     -1.076162     9A     -1.009055
      10A     -0.914525    11A     -0.824713    12A     -0.789427
      13A     -0.689573    14A     -0.650218    15A     -0.610505
      16A     -0.600313    17A     -0.574349    18A     -0.550612
      19A     -0.531787    20A     -0.497512    21A     -0.490478
      22A     -0.470843    23A     -0.460239    24A     -0.453801
      25A     -0.423204

  @DF-RHF Final Energy:  -271.17901973022958

   => Energetics <=

    Nuclear Repulsion Energy =            248.6484315581888325
    One-Electron Energy =                -860.3776687715160278
    Two-Electron Energy =                 340.5502174830978106
    DFT Exchange-Correlation Energy =       0.0000000000000000
    Empirical Dispersion Energy =           0.0000000000000000
    PCM Polarization Energy =               0.0000000000000000
    EFP Energy =                            0.0000000000000000
    Total Energy =                       -271.1790197302294132
    Molecular point group: c1
  Basis Set: 6-31G*
  Basis Set:

  -Total Gradient:
     Atom            X                  Y                   Z
    ------   -----------------  -----------------  -----------------
       1       -0.001621137603     0.000027492242     0.000907812793
       2        0.002088104989    -0.000123329109    -0.000677771829
       3       -0.000922720075     0.000845767888    -0.000884711270
       4        0.000560817822    -0.000525177287     0.000819815505
       5       -0.000028220067    -0.000106351286    -0.000033334514
       6       -0.000072847970    -0.000101002744    -0.000018818867
       7       -0.000026897079    -0.000097958167    -0.000046627159
       8        0.000026183437    -0.000011079982    -0.000047326887
       9       -0.000013545199    -0.000035024724    -0.000059361410
      10        0.000033615767     0.000047840517     0.000073926357
      11       -0.000001390079     0.000059620420    -0.000065408908
      12       -0.000024597974    -0.000001640006    -0.000003111929
      13        0.000003972571     0.000020590843     0.000026938578
      14       -0.000017539607    -0.000038642140     0.000024998579
      15        0.000013945000     0.000036619382    -0.000021795245
      16       -0.000007868370     0.000003522345    -0.000001074676
      17        0.000002711310     0.000002263531     0.000003867056
      18        0.000007413131    -0.000003511724     0.000001983826

  **** Optimization is complete! (in 4 steps) ****
    Final optimized geometry and variables:
    Molecular point group: c1

    Geometry (in Angstrom), charge = 0, multiplicity = 1:

    H           -2.822397725060    -0.753707552889    -1.063169669085
    O           -2.356116864703    -0.898499376857    -0.253052362269
    C           -2.022828047692     0.338588200317     0.329098881282
    C           -0.664108432272     0.852427014999    -0.132184103539
    H           -2.794414226797     1.076907596732     0.123137387126
    H           -2.011510246625     0.178315295943     1.401137575390
    C            0.490148184239    -0.082323465609     0.229767597201
    H           -0.689549915147     1.002848024734    -1.210757199987
    H           -0.499180237525     1.832754564486     0.312580962081
    C            1.850776297647     0.432900266159    -0.242630169495
    H            0.300906457227    -1.061790312861    -0.198013540123
    H            0.513427594033    -0.217701093509     1.310239785234
    C            3.003170491283    -0.497485957268     0.134263947196
    H            1.831340556229     0.562081049889    -1.322893402173
    H            2.031858853564     1.419878898501     0.178642391185
    H            2.867487786903    -1.483952994565    -0.299824335071
    H            3.954390971250    -0.109072108446    -0.216714450015
    H            3.072593602661    -0.618716199697     1.211623223426

  Mulliken Charges: (a.u.)
   Center  Symbol    Alpha    Beta     Spin     Total
       1     H     0.28132  0.28132  0.00000  0.43735
       2     O     4.36968  4.36968  0.00000 -0.73936
       3     C     3.00121  3.00121  0.00000 -0.00242
       4     C     3.16061  3.16061  0.00000 -0.32122
       5     H     0.42830  0.42830  0.00000  0.14339
       6     H     0.41791  0.41791  0.00000  0.16418
       7     C     3.15241  3.15241  0.00000 -0.30483
       8     H     0.42646  0.42646  0.00000  0.14708
       9     H     0.42503  0.42503  0.00000  0.14993
      10     C     3.15136  3.15136  0.00000 -0.30272
      11     H     0.40971  0.40971  0.00000  0.18057
      12     H     0.42518  0.42518  0.00000  0.14964
      13     C     3.23894  3.23894  0.00000 -0.47788
      14     H     0.42399  0.42399  0.00000  0.15201
      15     H     0.42483  0.42483  0.00000  0.15034
      16     H     0.42090  0.42090  0.00000  0.15819
      17     H     0.42030  0.42030  0.00000  0.15940
      18     H     0.42184  0.42184  0.00000  0.15632

   Total alpha = 25.00000, Total beta = 25.00000, Total charge = -0.00000
