  ==> Input File <==

--------------------------------------------------------------------------
set {
	reference rhf
	basis cc-pvtz
}

set_num_threads( 4 )
memory 2 gb

molecule MOL {
0 1

H	 -2.816458	 -0.841657	 -0.064679
N	 -1.878861	 -0.711874	 0.250184
C	 -1.341419	 0.551458	 -0.220231
H	 -1.333674	 -1.468530	 -0.105118
C	 0.082190	 0.731516	 0.254705
H	 -1.357065	 0.652078	 -1.304747
H	 -1.939897	 1.357530	 0.189797
O	 0.711655	 -0.513939	 0.272653
H	 0.611938	 1.408746	 -0.413801
H	 0.082639	 1.166794	 1.251430
C	 2.012603	 -0.494987	 0.758858
H	 2.395698	 -1.504604	 0.722849
H	 2.653717	 0.143426	 0.154625
H	 2.047926	 -0.143093	 1.787200

	symmetry c1
}
set optking {
	frozen_dihedral = ("
		8 5 3 6
	")
}

ee = optimize('scf')
oeprop('DIPOLE', 'QUADRUPOLE', 'MULLIKEN_CHARGES')
f=open( 'psi4out.xyz', 'w' )
f.write( "14  " )
f.write( str(ee) + "\n" )
f.write( MOL.save_string_xyz() )
f.close()
--------------------------------------------------------------------------

    Molecular point group: c1
  Charge       = 0
  Multiplicity = 1
  Basis Set: CC-PVTZ
  Basis Set:
  @DF-RHF Final Energy:  -248.22008295164923
    Total Energy =                       -248.2200829516492036
    Molecular point group: c1
  Basis Set: CC-PVTZ
  Basis Set:
  Basis Set: CC-PVTZ
  Basis Set:
  @DF-RHF Final Energy:  -248.22092004041224
    Total Energy =                       -248.2209200404122384
  Basis Set: CC-PVTZ
  Basis Set:
  Basis Set: CC-PVTZ
  Basis Set:
  @DF-RHF Final Energy:  -248.22137422462103
    Total Energy =                       -248.2213742246209449
  Basis Set: CC-PVTZ
  Basis Set:
  Basis Set: CC-PVTZ
  Basis Set:
  @DF-RHF Final Energy:  -248.22139664357726
    Total Energy =                       -248.2213966435774068
  Basis Set: CC-PVTZ
  Basis Set:
  Charge       = 0
  Multiplicity = 1
  Basis Set: CC-PVTZ
  Basis Set:

    Orbital Energies (a.u.)
    -----------------------

    Doubly Occupied:

       1A    -20.550564     2A    -15.521411     3A    -11.266031
       4A    -11.263808     5A    -11.240527     6A     -1.385348
       7A     -1.174302     8A     -0.998793     9A     -0.910124
      10A     -0.813954    11A     -0.684936    12A     -0.678067
      13A     -0.647906    14A     -0.611018    15A     -0.605523
      16A     -0.549460    17A     -0.525484    18A     -0.494531
      19A     -0.474354    20A     -0.422011    21A     -0.377528

  @DF-RHF Final Energy:  -248.22139757969870

   => Energetics <=

    Nuclear Repulsion Energy =            195.1681205898033227
    One-Electron Energy =                -724.3876743711844028
    Two-Electron Energy =                 280.9981562016824910
    DFT Exchange-Correlation Energy =       0.0000000000000000
    Empirical Dispersion Energy =           0.0000000000000000
    PCM Polarization Energy =               0.0000000000000000
    EFP Energy =                            0.0000000000000000
    Total Energy =                       -248.2213975796986460
    Molecular point group: c1
  Basis Set: CC-PVTZ
  Basis Set:

  -Total Gradient:
     Atom            X                  Y                   Z
    ------   -----------------  -----------------  -----------------
       1       -0.000024788844    -0.000031485762     0.000005588811
       2        0.000002560597    -0.000003949987     0.000008814319
       3        0.001146157515    -0.010737943781     0.000735754323
       4       -0.000005872582    -0.000020751595    -0.000009046696
       5        0.002384264514     0.003446197178    -0.008015450836
       6       -0.001371947111     0.008392765806     0.001029102269
       7       -0.000015226174     0.000033057520    -0.000006281261
       8       -0.002071189183    -0.001115272406     0.006255118761
       9        0.000026846405    -0.000016154323     0.000003590490
      10       -0.000022124752     0.000025147340    -0.000000479183
      11       -0.000022561633     0.000034458408    -0.000000848086
      12       -0.000031153399    -0.000000808638    -0.000010165152
      13        0.000001751471    -0.000003102338    -0.000006926438
      14        0.000003283175    -0.000002157420     0.000011228679

  **** Optimization is complete! (in 5 steps) ****
    Final optimized geometry and variables:
    Molecular point group: c1

    Geometry (in Angstrom), charge = 0, multiplicity = 1:

    H           -2.785512202903    -0.702534802010    -0.375984126649
    N           -1.868936045842    -0.579437135815    -0.003570860546
    C           -1.268385672449     0.638394918521    -0.498009773615
    H           -1.318047678897    -1.371203170209    -0.253905245192
    C            0.158492417919     0.811802621730     0.006531425625
    H           -1.289797858010     0.769809993709    -1.580498679234
    H           -1.838773406506     1.478262135685    -0.111577791231
    O            0.817865254485    -0.416170937298     0.004719487237
    H            0.684764533037     1.534278436792    -0.613896132806
    H            0.138137811896     1.198598891302     1.023772105651
    C            2.116781604180    -0.370316205133     0.492795803308
    H            2.520806798746    -1.371618987731     0.455779484487
    H            2.746539348948     0.283186555698    -0.107149999075
    H            2.140572521978    -0.020903802995     1.522486769174

  Mulliken Charges: (a.u.)
   Center  Symbol    Alpha    Beta     Spin     Total
       1     H     0.43042  0.43042  0.00000  0.13916
       2     N     3.69084  3.69084  0.00000 -0.38167
       3     C     3.02353  3.02353  0.00000 -0.04705
       4     H     0.42011  0.42011  0.00000  0.15979
       5     C     2.95932  2.95932  0.00000  0.08136
       6     H     0.47008  0.47008  0.00000  0.05984
       7     H     0.46231  0.46231  0.00000  0.07538
       8     O     4.17826  4.17826  0.00000 -0.35652
       9     H     0.47189  0.47189  0.00000  0.05623
      10     H     0.47401  0.47401  0.00000  0.05198
      11     C     3.02991  3.02991  0.00000 -0.05982
      12     H     0.44747  0.44747  0.00000  0.10506
      13     H     0.47135  0.47135  0.00000  0.05730
      14     H     0.47051  0.47051  0.00000  0.05897

   Total alpha = 21.00000, Total beta = 21.00000, Total charge =  0.00000
