  ==> Input File <==

--------------------------------------------------------------------------
set {
	reference rhf
	basis 6-31G*
}

set_num_threads( 4 )
memory 2 gb

molecule MOL {
0 1

H	 -1.541851	 0.685535	 -2.223771
C	 -1.150404	 0.362955	 -1.279251
C	 -1.935162	 0.420161	 -0.079916
C	 0.098498	 -0.110465	 -1.181605
H	 -2.942140	 0.795597	 -0.125606
C	 -1.423805	 0.010948	 1.089923
H	 0.750103	 -0.185808	 -2.031393
N	 0.640212	 -0.532897	 -0.000111
H	 -1.980480	 0.039007	 2.006264
C	 -0.064777	 -0.504215	 1.195901
C	 2.010177	 -1.032049	 0.000042
O	 0.431496	 -0.881811	 2.228055
H	 2.187698	 -1.635381	 -0.882279
H	 2.677579	 -0.189247	 -0.001871
H	 2.188882	 -1.632203	 0.884288

	symmetry c1
}
set optking {
	frozen_dihedral = ("
		10 8 11 13
	")
}

ee = optimize('scf')
oeprop('DIPOLE', 'QUADRUPOLE', 'MULLIKEN_CHARGES')
f=open( 'psi4out.xyz', 'w' )
f.write( "15  " )
f.write( str(ee) + "\n" )
f.write( MOL.save_string_xyz() )
f.close()
--------------------------------------------------------------------------

    Molecular point group: c1
  Charge       = 0
  Multiplicity = 1
  Basis Set: 6-31G*
  Basis Set:
  @DF-RHF Final Energy:  -360.59550840601412
    Total Energy =                       -360.5955084060138915
    Molecular point group: c1
  Basis Set: 6-31G*
  Basis Set:
  Basis Set: 6-31G*
  Basis Set:
  @DF-RHF Final Energy:  -360.59591078986983
    Total Energy =                       -360.5959107898700040
  Basis Set: 6-31G*
  Basis Set:
  Basis Set: 6-31G*
  Basis Set:
  @DF-RHF Final Energy:  -360.59594466200826
    Total Energy =                       -360.5959446620081508
  Basis Set: 6-31G*
  Basis Set:
  Basis Set: 6-31G*
  Basis Set:
  @DF-RHF Final Energy:  -360.59596287297529
    Total Energy =                       -360.5959628729750648
  Basis Set: 6-31G*
  Basis Set:
  Basis Set: 6-31G*
  Basis Set:
  @DF-RHF Final Energy:  -360.59597603730344
    Total Energy =                       -360.5959760373032168
  Basis Set: 6-31G*
  Basis Set:
  Charge       = 0
  Multiplicity = 1
  Basis Set: 6-31G*
  Basis Set:

    Orbital Energies (a.u.)
    -----------------------

    Doubly Occupied:

       1A    -20.508700     2A    -15.621495     3A    -11.343055
       4A    -11.296870     5A    -11.264732     6A    -11.260414
       7A    -11.233553     8A    -11.229115     9A     -1.384442
      10A     -1.281014    11A     -1.114818    12A     -1.025847
      13A     -0.970037    14A     -0.872232    15A     -0.835418
      16A     -0.715514    17A     -0.698275    18A     -0.660814
      19A     -0.648180    20A     -0.621897    21A     -0.606631
      22A     -0.572266    23A     -0.552370    24A     -0.546971
      25A     -0.526406    26A     -0.476506    27A     -0.413930
      28A     -0.405727    29A     -0.305073

  @DF-RHF Final Energy:  -360.59597617466898

   => Energetics <=

    Nuclear Repulsion Energy =            357.6571745906849173
    One-Electron Energy =               -1198.5216966945297372
    Two-Electron Energy =                 480.2685459291760708
    DFT Exchange-Correlation Energy =       0.0000000000000000
    Empirical Dispersion Energy =           0.0000000000000000
    PCM Polarization Energy =               0.0000000000000000
    EFP Energy =                            0.0000000000000000
    Total Energy =                       -360.5959761746687491
    Molecular point group: c1
  Basis Set: 6-31G*
  Basis Set:

  -Total Gradient:
     Atom            X                  Y                   Z
    ------   -----------------  -----------------  -----------------
       1       -0.000003997127    -0.000011358568    -0.000003133552
       2        0.000004165724    -0.000035937567    -0.000007808693
       3        0.000007534399     0.000031950363     0.000016745322
       4        0.000018118173     0.000069732523     0.000001534667
       5       -0.000002788777    -0.000010532905    -0.000004161413
       6       -0.000003188755     0.000014079382     0.000000245502
       7       -0.000002557533    -0.000014850379    -0.000004188751
       8        0.000143164573     0.000434275876     0.000191599541
       9        0.000000433300    -0.000007461212    -0.000000460462
      10       -0.000130651606    -0.000412516482    -0.000088792829
      11        0.000132900066     0.000355869716    -0.000366579469
      12       -0.000002939590     0.000006552055     0.000010972743
      13       -0.000148541958    -0.000404221989     0.000255649345
      14        0.000000511578    -0.000010844857    -0.000003001554
      15       -0.000012162464    -0.000004735959     0.000001379600

  **** Optimization is complete! (in 6 steps) ****
    Final optimized geometry and variables:
    Molecular point group: c1

    Geometry (in Angstrom), charge = 0, multiplicity = 1:

    H           -1.434295470455     1.005152875664    -2.495146202304
    C           -1.041111090966     0.678040522405    -1.552967444805
    C           -1.824718607949     0.727567995535    -0.352769927395
    C            0.207439507656     0.201718870531    -1.461029956581
    H           -2.832471332542     1.101137334335    -0.396048306467
    C           -1.311795658916     0.313013418536     0.814693026029
    H            0.856015979462     0.129434095794    -2.313025294503
    N            0.748281866959    -0.231842602465    -0.283481326550
    H           -1.866973969417     0.336401781545     1.732181915185
    C            0.050620635803    -0.192993004629     0.916075129251
    C            2.122594318360    -0.718589440531    -0.270264953032
    O            0.560003386617    -0.556418727958     1.946963918739
    H            2.296563631539    -1.333537823706    -1.143585926423
    H            2.823454462560     0.108232457970    -0.266617025090
    H            2.269380818218    -1.305862397780     0.618859798428

  Mulliken Charges: (a.u.)
   Center  Symbol    Alpha    Beta     Spin     Total
       1     H     0.39290  0.39290  0.00000  0.21420
       2     C     3.16172  3.16172  0.00000 -0.32344
       3     C     3.05826  3.05826  0.00000 -0.11652
       4     C     2.92103  2.92103  0.00000  0.15794
       5     H     0.39086  0.39086  0.00000  0.21829
       6     C     3.16970  3.16970  0.00000 -0.33940
       7     H     0.38792  0.38792  0.00000  0.22416
       8     N     3.86531  3.86531  0.00000 -0.73061
       9     H     0.38637  0.38637  0.00000  0.22725
      10     C     2.59454  2.59454  0.00000  0.81093
      11     C     3.15144  3.15144  0.00000 -0.30289
      12     O     4.32189  4.32189  0.00000 -0.64379
      13     H     0.41309  0.41309  0.00000  0.17382
      14     H     0.40752  0.40752  0.00000  0.18497
      15     H     0.37745  0.37745  0.00000  0.24510

   Total alpha = 29.00000, Total beta = 29.00000, Total charge =  0.00000
