  ==> Input File <==

--------------------------------------------------------------------------
set {
	reference rhf
	basis 6-31G*
}

set_num_threads( 4 )
memory 2 gb

molecule MOL {
0 1

H	 1.134238	 -0.436080	 0.592837
C	 0.850167	 0.441173	 0.000644
C	 -0.623425	 0.760064	 0.000248
O	 1.679025	 1.065113	 -0.578527
C	 -1.518387	 -0.473136	 -0.000101
H	 -0.818289	 1.390622	 -0.866171
H	 -0.818694	 1.390413	 0.866696
H	 -1.333417	 -1.085530	 -0.874338
H	 -2.563510	 -0.183466	 -0.000351
H	 -1.333864	 -1.085676	 0.874123

	symmetry c1
}
set optking {
	frozen_dihedral = ("
		4 2 3 6
	")
}

ee = optimize('scf')
oeprop('DIPOLE', 'QUADRUPOLE', 'MULLIKEN_CHARGES')
f=open( 'psi4out.xyz', 'w' )
f.write( "10  " )
f.write( str(ee) + "\n" )
f.write( MOL.save_string_xyz() )
f.close()
--------------------------------------------------------------------------

    Molecular point group: c1
  Charge       = 0
  Multiplicity = 1
  Basis Set: 6-31G*
  Basis Set:
  @DF-RHF Final Energy:  -191.94966792568118
    Total Energy =                       -191.9496679256811262
    Molecular point group: c1
  Basis Set: 6-31G*
  Basis Set:
  Basis Set: 6-31G*
  Basis Set:
  @DF-RHF Final Energy:  -191.94956951499364
    Total Energy =                       -191.9495695149936410
  Basis Set: 6-31G*
  Basis Set:
  Basis Set: 6-31G*
  Basis Set:
  @DF-RHF Final Energy:  -191.94935454866112
    Total Energy =                       -191.9493545486611765
  Basis Set: 6-31G*
  Basis Set:
  Basis Set: 6-31G*
  Basis Set:
  @DF-RHF Final Energy:  -191.94998471932274
    Total Energy =                       -191.9499847193226572
  Basis Set: 6-31G*
  Basis Set:
  Basis Set: 6-31G*
  Basis Set:
  @DF-RHF Final Energy:  -191.94998728334565
    Total Energy =                       -191.9499872833455356
  Basis Set: 6-31G*
  Basis Set:
  Charge       = 0
  Multiplicity = 1
  Basis Set: 6-31G*
  Basis Set:

    Orbital Energies (a.u.)
    -----------------------

    Doubly Occupied:

       1A    -20.563665     2A    -11.328379     3A    -11.239414
       4A    -11.233270     5A     -1.403954     6A     -1.067081
       7A     -0.903270     8A     -0.796271     9A     -0.667801
      10A     -0.640489    11A     -0.625284    12A     -0.559926
      13A     -0.544041    14A     -0.519989    15A     -0.493047
      16A     -0.412713

  @DF-RHF Final Energy:  -191.94998746037413

   => Energetics <=

    Nuclear Repulsion Energy =            117.0273202853841354
    One-Electron Energy =                -491.9574246483707611
    Two-Electron Energy =                 182.9801169026125365
    DFT Exchange-Correlation Energy =       0.0000000000000000
    Empirical Dispersion Energy =           0.0000000000000000
    PCM Polarization Energy =               0.0000000000000000
    EFP Energy =                            0.0000000000000000
    Total Energy =                       -191.9499874603741034
    Molecular point group: c1
  Basis Set: 6-31G*
  Basis Set:

  -Total Gradient:
     Atom            X                  Y                   Z
    ------   -----------------  -----------------  -----------------
       1        0.000000071571     0.000003391365    -0.000012973727
       2       -0.000173499925    -0.000792459259    -0.000975496836
       3        0.000187410772     0.000915393830     0.000770815173
       4        0.000105107776     0.000464542830     0.000621597764
       5        0.000012311590     0.000027343949    -0.000007569835
       6       -0.000126856790    -0.000617223017    -0.000407938301
       7        0.000004899930     0.000005299968     0.000007238537
       8       -0.000004064397    -0.000004530402     0.000005700754
       9       -0.000005792719     0.000000406435    -0.000000377456
      10        0.000000412188    -0.000002165700    -0.000000996072

  **** Optimization is complete! (in 6 steps) ****
    Final optimized geometry and variables:
    Molecular point group: c1

    Geometry (in Angstrom), charge = 0, multiplicity = 1:

    H            1.032401614147    -0.867538675390     0.770313773970
    C            0.751235338309    -0.005134260433     0.153841343105
    C           -0.720589661029     0.329935270139     0.138888186382
    O            1.584335706979     0.610443081773    -0.427669893441
    C           -1.611140995126    -0.913997291284     0.149280522917
    H           -0.914546678911     0.951988383253    -0.726727751891
    H           -0.919752362872     0.931944051578     1.024141230599
    H           -1.450012266014    -1.521896940300    -0.735460043664
    H           -2.657970635056    -0.634089510219     0.172415026502
    H           -1.415990080171    -1.533122818463     1.019811355346

  Mulliken Charges: (a.u.)
   Center  Symbol    Alpha    Beta     Spin     Total
       1     H     0.43157  0.43157  0.00000  0.13685
       2     C     2.83122  2.83122  0.00000  0.33755
       3     C     3.20750  3.20750  0.00000 -0.41499
       4     O     4.23762  4.23762  0.00000 -0.47524
       5     C     3.25236  3.25236  0.00000 -0.50471
       6     H     0.39770  0.39770  0.00000  0.20461
       7     H     0.40382  0.40382  0.00000  0.19236
       8     H     0.41237  0.41237  0.00000  0.17526
       9     H     0.40917  0.40917  0.00000  0.18166
      10     H     0.41668  0.41668  0.00000  0.16665

   Total alpha = 16.00000, Total beta = 16.00000, Total charge =  0.00000
