  ==> Input File <==

--------------------------------------------------------------------------
set {
	reference rhf
	basis 6-31G*
}

set_num_threads( 1 )
memory 2 gb

molecule MOL {
0 1

O	 -0.988096	 -1.408613	 0.050699
C	 -0.676749	 -0.249230	 -0.009274
C	 -1.746085	 0.827156	 -0.009539
N	 0.623947	 0.147590	 -0.102813
H	 -1.701500	 1.431508	 -0.908902
H	 -2.703425	 0.330732	 0.036390
H	 -1.647323	 1.487769	 0.845106
C	 1.160236	 1.017967	 0.925153
C	 1.413555	 0.056937	 -1.311344
H	 2.184446	 0.734058	 1.140578
H	 0.568130	 0.924474	 1.818803
H	 1.152965	 2.057830	 0.605694
H	 2.451604	 -0.103199	 -1.045167
H	 1.103220	 -0.772179	 -1.927130
H	 1.355996	 0.968376	 -1.903609

	symmetry c1
}
set optking {
	frozen_dihedral = ("
		2 4 8 10
	")
}

ee = energy('scf')
oeprop('DIPOLE', 'QUADRUPOLE', 'MULLIKEN_CHARGES')
f=open( 'psi4out.xyz', 'w' )
f.write( "15  " )
f.write( str(ee) + "\n" )
f.write( MOL.save_string_xyz() )
f.close()
--------------------------------------------------------------------------

    Molecular point group: c1

    Geometry (in Angstrom), charge = 0, multiplicity = 1:

       Center              X                  Y                   Z               Mass
    ------------   -----------------  -----------------  -----------------  -----------------
           O         -0.959726253085    -1.483090500195     0.129229529173    15.994914619560
           C         -0.648379253085    -0.323707500195     0.069256529173    12.000000000000
           C         -1.717715253085     0.752678499805     0.068991529173    12.000000000000
           N          0.652316746915     0.073112499805    -0.024282470827    14.003074004780
           H         -1.673130253085     1.357030499805    -0.830371470827     1.007825032070
           H         -2.675055253085     0.256254499805     0.114920529173     1.007825032070
           H         -1.618953253085     1.413291499805     0.923636529173     1.007825032070
           C          1.188605746915     0.943489499805     1.003683529173    12.000000000000
           C          1.441924746915    -0.017540500195    -1.232813470827    12.000000000000
           H          2.212815746915     0.659580499805     1.219108529173     1.007825032070
           H          0.596499746915     0.849996499805     1.897333529173     1.007825032070
           H          1.181334746915     1.983352499805     0.684224529173     1.007825032070
           H          2.479973746915    -0.177676500195    -0.966636470827     1.007825032070
           H          1.131589746915    -0.846656500195    -1.848599470827     1.007825032070
           H          1.384365746915     0.893898499805    -1.825078470827     1.007825032070

  Charge       = 0
  Multiplicity = 1
  Basis Set: 6-31G*
  Basis Set:

    Orbital Energies (a.u.)
    -----------------------

    Doubly Occupied:

       1A    -20.540770     2A    -15.554538     3A    -11.346481
       4A    -11.260561     5A    -11.259162     6A    -11.225818
       7A     -1.394118     8A     -1.238514     9A     -1.008244
      10A     -0.973064    11A     -0.918897    12A     -0.739846
      13A     -0.675288    14A     -0.659084    15A     -0.646917
      16A     -0.598543    17A     -0.585732    18A     -0.574883
      19A     -0.559320    20A     -0.549616    21A     -0.535697
      22A     -0.485533    23A     -0.421527    24A     -0.353142

  @DF-RHF Final Energy:  -285.99808558753648

   => Energetics <=

    Nuclear Repulsion Energy =            251.2875656126097113
    One-Electron Energy =                -886.3605517007274557
    Two-Electron Energy =                 349.0749005005817480
    DFT Exchange-Correlation Energy =       0.0000000000000000
    Empirical Dispersion Energy =           0.0000000000000000
    PCM Polarization Energy =               0.0000000000000000
    EFP Energy =                            0.0000000000000000
    Total Energy =                       -285.9980855875360248

  Mulliken Charges: (a.u.)
   Center  Symbol    Alpha    Beta     Spin     Total
       1     O     4.25847  4.25847  0.00000 -0.51694
       2     C     2.65626  2.65626  0.00000  0.68748
       3     C     3.28564  3.28564  0.00000 -0.57127
       4     N     3.82227  3.82227  0.00000 -0.64454
       5     H     0.40775  0.40775  0.00000  0.18451
       6     H     0.39700  0.39700  0.00000  0.20601
       7     H     0.40922  0.40922  0.00000  0.18155
       8     C     3.14060  3.14060  0.00000 -0.28120
       9     C     3.13593  3.13593  0.00000 -0.27187
      10     H     0.40945  0.40945  0.00000  0.18109
      11     H     0.41064  0.41064  0.00000  0.17872
      12     H     0.42512  0.42512  0.00000  0.14975
      13     H     0.41400  0.41400  0.00000  0.17201
      14     H     0.40197  0.40197  0.00000  0.19606
      15     H     0.42568  0.42568  0.00000  0.14863

   Total alpha = 24.00000, Total beta = 24.00000, Total charge =  0.00000
