  ==> Input File <==

--------------------------------------------------------------------------
set {
	reference rhf
	basis cc-pvtz
}

set_num_threads( 4 )
memory 2 gb

molecule MOL {
0 1

H	 -2.123894	 -0.667238	 -0.609809
O	 -2.041679	 -0.058866	 0.103463
C	 -0.959304	 0.780994	 -0.094939
C	 0.354905	 0.037902	 -0.006215
H	 -0.985899	 1.279578	 -1.057596
H	 -0.969809	 1.529522	 0.682889
F	 0.974130	 0.030713	 -1.173391
F	 1.152455	 0.621478	 0.863814
F	 0.201548	 -1.210951	 0.363676

	symmetry c1
}
set optking {
	frozen_dihedral = ("
		7 4 3 5
	")
}

ee = optimize('scf')
oeprop('DIPOLE', 'QUADRUPOLE', 'MULLIKEN_CHARGES')
f=open( 'psi4out.xyz', 'w' )
f.write( "9  " )
f.write( str(ee) + "\n" )
f.write( MOL.save_string_xyz() )
f.close()
--------------------------------------------------------------------------

    Molecular point group: c1
  Charge       = 0
  Multiplicity = 1
  Basis Set: CC-PVTZ
  Basis Set:
  @DF-RHF Final Energy:  -450.83919871793825
    Total Energy =                       -450.8391987179382454
    Molecular point group: c1
  Basis Set: CC-PVTZ
  Basis Set:
  Basis Set: CC-PVTZ
  Basis Set:
  @DF-RHF Final Energy:  -450.83957789232250
    Total Energy =                       -450.8395778923224384
  Basis Set: CC-PVTZ
  Basis Set:
  Basis Set: CC-PVTZ
  Basis Set:
  @DF-RHF Final Energy:  -450.83997148892342
    Total Energy =                       -450.8399714889234247
  Basis Set: CC-PVTZ
  Basis Set:
  Basis Set: CC-PVTZ
  Basis Set:
  @DF-RHF Final Energy:  -450.83998148460040
    Total Energy =                       -450.8399814846006279
  Basis Set: CC-PVTZ
  Basis Set:
  Basis Set: CC-PVTZ
  Basis Set:
  @DF-RHF Final Energy:  -450.83998267594012
    Total Energy =                       -450.8399826759400639
  Basis Set: CC-PVTZ
  Basis Set:
  Charge       = 0
  Multiplicity = 1
  Basis Set: CC-PVTZ
  Basis Set:

    Orbital Energies (a.u.)
    -----------------------

    Doubly Occupied:

       1A    -26.338247     2A    -26.335941     3A    -26.335835
       4A    -20.582672     5A    -11.494900     6A    -11.310096
       7A     -1.747246     8A     -1.643975     9A     -1.640598
      10A     -1.405615    11A     -1.044527    12A     -0.929739
      13A     -0.835741    14A     -0.834459    15A     -0.811850
      16A     -0.730929    17A     -0.719032    18A     -0.704158
      19A     -0.670028    20A     -0.664749    21A     -0.647270
      22A     -0.630789    23A     -0.614747    24A     -0.529787
      25A     -0.484009

  @DF-RHF Final Energy:  -450.83998289268203

   => Energetics <=

    Nuclear Repulsion Energy =            276.4501680523990785
    One-Electron Energy =               -1175.2064177252341324
    Two-Electron Energy =                 447.9162667801531370
    DFT Exchange-Correlation Energy =       0.0000000000000000
    Empirical Dispersion Energy =           0.0000000000000000
    PCM Polarization Energy =               0.0000000000000000
    EFP Energy =                            0.0000000000000000
    Total Energy =                       -450.8399828926819737
    Molecular point group: c1
  Basis Set: CC-PVTZ
  Basis Set:

  -Total Gradient:
     Atom            X                  Y                   Z
    ------   -----------------  -----------------  -----------------
       1       -0.000007011616     0.000010154343    -0.000004050405
       2        0.000037008790    -0.000018081890     0.000005734237
       3        0.000856135960     0.001656800243     0.000769040411
       4       -0.000832305260    -0.001601423042    -0.000482599724
       5       -0.000563899624    -0.001113580318    -0.000558425500
       6        0.000004357115     0.000002617268     0.000002482994
       7        0.000529120307     0.000997086704     0.000271705287
       8       -0.000022701542     0.000002552809    -0.000005384440
       9       -0.000000704125     0.000063873881     0.000001497135

  **** Optimization is complete! (in 6 steps) ****
    Final optimized geometry and variables:
    Molecular point group: c1

    Geometry (in Angstrom), charge = 0, multiplicity = 1:

    H           -2.162602260635    -0.671477894987    -0.608136310621
    O           -2.082773070643    -0.043493464052     0.087604206586
    C           -0.981657653919     0.774102906911    -0.100185555182
    C            0.358791345173     0.029424740615    -0.006608275532
    H           -1.006385368693     1.271827766182    -1.061768208855
    H           -1.000196989765     1.517832241103     0.679781678192
    F            0.984966414626     0.026136459789    -1.170420154258
    F            1.167173677548     0.611183647359     0.855707623665
    F            0.215952701405    -1.220601467739     0.360936138853

  Mulliken Charges: (a.u.)
   Center  Symbol    Alpha    Beta     Spin     Total
       1     H     0.38924  0.38924  0.00000  0.22151
       2     O     4.18407  4.18407  0.00000 -0.36813
       3     C     3.00756  3.00756  0.00000 -0.01512
       4     C     2.67980  2.67980  0.00000  0.64039
       5     H     0.46036  0.46036  0.00000  0.07929
       6     H     0.44724  0.44724  0.00000  0.10552
       7     F     4.61401  4.61401  0.00000 -0.22802
       8     F     4.61117  4.61117  0.00000 -0.22235
       9     F     4.60654  4.60654  0.00000 -0.21309

   Total alpha = 25.00000, Total beta = 25.00000, Total charge = -0.00000
