  ==> Input File <==

--------------------------------------------------------------------------
set {
	reference rhf
	basis cc-pvtz
}

set_num_threads( 4 )
memory 2 gb

molecule MOL {
0 1

H	 -3.144994	 -1.202467	 -0.018751
O	 -2.321472	 -0.864941	 -0.318626
C	 -2.021813	 0.336996	 0.342658
C	 -0.669613	 0.837286	 -0.127252
H	 -2.780861	 1.084746	 0.127159
H	 -2.006390	 0.184138	 1.420053
C	 0.490865	 -0.082543	 0.241244
H	 -0.708709	 0.967192	 -1.204587
H	 -0.507562	 1.822272	 0.303070
C	 1.724215	 0.675829	 0.723249
H	 0.751110	 -0.689660	 -0.618254
H	 0.167699	 -0.771427	 1.019142
C	 2.881861	 -0.243069	 1.099104
H	 2.048416	 1.362441	 -0.054029
H	 1.459701	 1.289924	 1.580342
H	 3.192785	 -0.845437	 0.252112
H	 3.742122	 0.324779	 1.434969
H	 2.600316	 -0.920433	 1.898701

	symmetry c1
}
set optking {
	frozen_dihedral = ("
		10 7 4 8
	")
}

ee = optimize('scf')
oeprop('DIPOLE', 'QUADRUPOLE', 'MULLIKEN_CHARGES')
f=open( 'psi4out.xyz', 'w' )
f.write( "18  " )
f.write( str(ee) + "\n" )
f.write( MOL.save_string_xyz() )
f.close()
--------------------------------------------------------------------------

    Molecular point group: c1
  Charge       = 0
  Multiplicity = 1
  Basis Set: CC-PVTZ
  Basis Set:
  @DF-RHF Final Energy:  -271.28273334276992
    Total Energy =                       -271.2827333427701433
    Molecular point group: c1
  Basis Set: CC-PVTZ
  Basis Set:
  Basis Set: CC-PVTZ
  Basis Set:
  @DF-RHF Final Energy:  -271.28296844332925
    Total Energy =                       -271.2829684433294233
  Basis Set: CC-PVTZ
  Basis Set:
  Basis Set: CC-PVTZ
  Basis Set:
  @DF-RHF Final Energy:  -271.28303994140180
    Total Energy =                       -271.2830399414017393
  Basis Set: CC-PVTZ
  Basis Set:
  Basis Set: CC-PVTZ
  Basis Set:
  @DF-RHF Final Energy:  -271.28304114811721
    Total Energy =                       -271.2830411481169222
  Basis Set: CC-PVTZ
  Basis Set:
  Charge       = 0
  Multiplicity = 1
  Basis Set: CC-PVTZ
  Basis Set:

    Orbital Energies (a.u.)
    -----------------------

    Doubly Occupied:

       1A    -20.546050     2A    -11.265697     3A    -11.210218
       4A    -11.210174     5A    -11.205605     6A    -11.203241
       7A     -1.364075     8A     -1.075433     9A     -1.010094
      10A     -0.914137    11A     -0.820299    12A     -0.784619
      13A     -0.705789    14A     -0.651291    15A     -0.620853
      16A     -0.578227    17A     -0.574690    18A     -0.559578
      19A     -0.524161    20A     -0.507742    21A     -0.485368
      22A     -0.468235    23A     -0.458101    24A     -0.449326
      25A     -0.431262

  @DF-RHF Final Energy:  -271.28304140132366

   => Energetics <=

    Nuclear Repulsion Energy =            249.3850921725388332
    One-Electron Energy =                -862.0877315300858754
    Two-Electron Energy =                 341.4195979562234697
    DFT Exchange-Correlation Energy =       0.0000000000000000
    Empirical Dispersion Energy =           0.0000000000000000
    PCM Polarization Energy =               0.0000000000000000
    EFP Energy =                            0.0000000000000000
    Total Energy =                       -271.2830414013235441
    Molecular point group: c1
  Basis Set: CC-PVTZ
  Basis Set:

  -Total Gradient:
     Atom            X                  Y                   Z
    ------   -----------------  -----------------  -----------------
       1        0.000002683462     0.000007513445     0.000001886085
       2        0.000016789663    -0.000008224925     0.000003516600
       3       -0.000026817529     0.000014428433    -0.000022386196
       4        0.002211703962     0.003222138151     0.001170097708
       5       -0.000012454257     0.000008765579     0.000007321829
       6        0.000012449417     0.000000239580    -0.000007977999
       7        0.000650682595    -0.000506127227    -0.003224695862
       8       -0.002043583799    -0.002636554054    -0.000201385332
       9        0.000000368141    -0.000006864811     0.000004961856
      10       -0.000817423776    -0.000096268795     0.002261618210
      11        0.000003106844     0.000010042147    -0.000004703356
      12        0.000004598311    -0.000002333156     0.000004924185
      13        0.000007583186     0.000000419139     0.000009425013
      14       -0.000003056171    -0.000007025723    -0.000002000835
      15       -0.000010978477     0.000000636668    -0.000006667350
      16       -0.000002572056     0.000004153993     0.000002538784
      17        0.000006587380    -0.000003404135     0.000004565005
      18        0.000000333098    -0.000001534309    -0.000001038344

  **** Optimization is complete! (in 5 steps) ****
    Final optimized geometry and variables:
    Molecular point group: c1

    Geometry (in Angstrom), charge = 0, multiplicity = 1:

    H           -3.072987374895    -1.312235003789    -0.338923126246
    O           -2.254569057221    -0.958486863859    -0.633871751877
    C           -1.998484863912     0.266569218509     0.002044739770
    C           -0.641734642261     0.774269422634    -0.446399984734
    H           -2.765517232317     0.993545400759    -0.253913518034
    H           -2.008330129500     0.142691137540     1.083320546353
    C            0.520208928231    -0.156811246863    -0.063704209836
    H           -0.685186878203     0.893244506534    -1.523660349958
    H           -0.495264257766     1.759495521023    -0.014799085998
    C            1.764361115839     0.591793900796     0.408299125249
    H            0.771101744859    -0.796119233960    -0.902010619499
    H            0.199007320133    -0.824885052645     0.730240904340
    C            2.924312583360    -0.334206962287     0.756988660163
    H            2.081512257366     1.291234389780    -0.361376430139
    H            1.508582450092     1.192871684998     1.276876470437
    H            3.229312090247    -0.919688897037    -0.103878155656
    H            3.787179802016     0.226435220784     1.098280439430
    H            2.647605515585    -1.027713871121     1.544342477985

  Mulliken Charges: (a.u.)
   Center  Symbol    Alpha    Beta     Spin     Total
       1     H     0.39610  0.39610  0.00000  0.20781
       2     O     4.19936  4.19936  0.00000 -0.39873
       3     C     2.97208  2.97208  0.00000  0.05584
       4     C     3.09492  3.09492  0.00000 -0.18985
       5     H     0.46569  0.46569  0.00000  0.06863
       6     H     0.47483  0.47483  0.00000  0.05034
       7     C     3.08492  3.08492  0.00000 -0.16984
       8     H     0.45030  0.45030  0.00000  0.09939
       9     H     0.45391  0.45391  0.00000  0.09219
      10     C     3.08493  3.08493  0.00000 -0.16985
      11     H     0.44751  0.44751  0.00000  0.10499
      12     H     0.45452  0.45452  0.00000  0.09095
      13     C     3.14974  3.14974  0.00000 -0.29949
      14     H     0.45468  0.45468  0.00000  0.09064
      15     H     0.45698  0.45698  0.00000  0.08604
      16     H     0.45459  0.45459  0.00000  0.09082
      17     H     0.44947  0.44947  0.00000  0.10106
      18     H     0.45547  0.45547  0.00000  0.08905

   Total alpha = 25.00000, Total beta = 25.00000, Total charge = -0.00000
