  ==> Input File <==

--------------------------------------------------------------------------
set {
	reference rhf
	basis cc-pvtz
}

set_num_threads( 4 )
memory 2 gb

molecule MOL {
0 1

H	 1.793554	 -1.431540	 -0.975070
C	 0.897073	 -2.065074	 -0.950372
C	 -0.409539	 -1.325717	 -1.033530
O	 1.004854	 -3.238885	 -0.859907
C	 -0.554654	 -0.292621	 0.086567
H	 -1.214606	 -2.048318	 -1.010038
H	 -0.436651	 -0.820075	 -1.996582
C	 -1.846385	 0.513195	 -0.016346
H	 -0.521242	 -0.799913	 1.046503
H	 0.294261	 0.386079	 0.067010
C	 -3.089953	 -0.365049	 -0.098564
H	 -1.798267	 1.154820	 -0.891143
H	 -1.925398	 1.173265	 0.842889
H	 -3.055079	 -1.012299	 -0.968245
H	 -3.988403	 0.236438	 -0.170014
H	 -3.183055	 -0.995885	 0.779079

	symmetry c1
}
set optking {
	frozen_dihedral = ("
		9 5 8 12
	")
}

ee = optimize('scf')
oeprop('DIPOLE', 'QUADRUPOLE', 'MULLIKEN_CHARGES')
f=open( 'psi4out.xyz', 'w' )
f.write( "16  " )
f.write( str(ee) + "\n" )
f.write( MOL.save_string_xyz() )
f.close()
--------------------------------------------------------------------------

    Molecular point group: c1
  Charge       = 0
  Multiplicity = 1
  Basis Set: CC-PVTZ
  Basis Set:
  @DF-RHF Final Energy:  -270.11621934916661
    Total Energy =                       -270.1162193491664993
    Molecular point group: c1
  Basis Set: CC-PVTZ
  Basis Set:
  Basis Set: CC-PVTZ
  Basis Set:
  @DF-RHF Final Energy:  -270.11690702786575
    Total Energy =                       -270.1169070278656932
  Basis Set: CC-PVTZ
  Basis Set:
  Basis Set: CC-PVTZ
  Basis Set:
  @DF-RHF Final Energy:  -270.11737879540317
    Total Energy =                       -270.1173787954032264
  Basis Set: CC-PVTZ
  Basis Set:
  Basis Set: CC-PVTZ
  Basis Set:
  @DF-RHF Final Energy:  -270.11712387336888
    Total Energy =                       -270.1171238733688824
  Basis Set: CC-PVTZ
  Basis Set:
  Basis Set: CC-PVTZ
  Basis Set:
  @DF-RHF Final Energy:  -270.11741674878067
    Total Energy =                       -270.1174167487806130
  Basis Set: CC-PVTZ
  Basis Set:
  Basis Set: CC-PVTZ
  Basis Set:
  @DF-RHF Final Energy:  -270.11743601354050
    Total Energy =                       -270.1174360135406687
  Basis Set: CC-PVTZ
  Basis Set:
  Charge       = 0
  Multiplicity = 1
  Basis Set: CC-PVTZ
  Basis Set:

    Orbital Energies (a.u.)
    -----------------------

    Doubly Occupied:

       1A    -20.552194     2A    -11.321292     3A    -11.234839
       4A    -11.233666     5A    -11.227764     6A    -11.216164
       7A     -1.406986     8A     -1.097443     9A     -1.016548
      10A     -0.914641    11A     -0.810929    12A     -0.789342
      13A     -0.681739    14A     -0.647422    15A     -0.631554
      16A     -0.605499    17A     -0.581528    18A     -0.555809
      19A     -0.540379    20A     -0.508205    21A     -0.488029
      22A     -0.480139    23A     -0.473988    24A     -0.412267

  @DF-RHF Final Energy:  -270.11743678516990

   => Energetics <=

    Nuclear Repulsion Energy =            232.4811002371343989
    One-Electron Energy =                -826.3403424090666931
    Two-Electron Energy =                 323.7418053867624508
    DFT Exchange-Correlation Energy =       0.0000000000000000
    Empirical Dispersion Energy =           0.0000000000000000
    PCM Polarization Energy =               0.0000000000000000
    EFP Energy =                            0.0000000000000000
    Total Energy =                       -270.1174367851697866
    Molecular point group: c1
  Basis Set: CC-PVTZ
  Basis Set:

  -Total Gradient:
     Atom            X                  Y                   Z
    ------   -----------------  -----------------  -----------------
       1        0.000013520137    -0.000002420075    -0.000019591222
       2        0.000012797115     0.000017682048     0.000085150827
       3       -0.000047826019    -0.000030245015     0.000031533165
       4       -0.000017853968     0.000016052880    -0.000047839178
       5       -0.000963700716    -0.001504887220    -0.000691650867
       6        0.000011771188    -0.000021506454    -0.000030524891
       7        0.000011847097    -0.000007853485    -0.000005185219
       8       -0.000756492991    -0.001298725678    -0.001145315404
       9        0.000900938662     0.001461509578     0.000755846500
      10       -0.000051254138     0.000058636505     0.000022351412
      11        0.000043036801    -0.000049062558    -0.000008670324
      12        0.000794823330     0.001327795250     0.001037195317
      13        0.000039257099    -0.000003466270     0.000005194083
      14       -0.000040306739     0.000009385277    -0.000007564905
      15        0.000038535239     0.000031225686     0.000021741694
      16        0.000010907909    -0.000004120463    -0.000002670987

  **** Optimization is complete! (in 7 steps) ****
    Final optimized geometry and variables:
    Molecular point group: c1

    Geometry (in Angstrom), charge = 0, multiplicity = 1:

    H            2.471701778376    -0.203836040975    -0.516362555573
    C            1.616471086890    -0.891207683881    -0.475170357089
    C            0.265213664438    -0.235949387124    -0.557874949876
    O            1.797212912337    -2.054630998374    -0.369233085638
    C            0.070062204302     0.790259681217     0.561940644135
    H           -0.487029627127    -1.011120719709    -0.534693210819
    H            0.206706825794     0.267188056984    -1.521401594669
    C           -1.201423597324     1.631369180016     0.439633696729
    H            0.079801206443     0.285612763441     1.523819633312
    H            0.921632130819     1.465402155085     0.572107715856
    C           -2.500740403721     0.833251230661     0.394631534535
    H           -1.125955800924     2.268296206298    -0.437439878639
    H           -1.234481876513     2.305337044159     1.289957541611
    H           -2.573890216491     0.224815385653    -0.498585151151
    H           -3.356047129488     1.498342068973     0.405940907664
    H           -2.583594530180     0.174014537183     1.252562934311

  Mulliken Charges: (a.u.)
   Center  Symbol    Alpha    Beta     Spin     Total
       1     H     0.46397  0.46397  0.00000  0.07207
       2     C     2.91089  2.91089  0.00000  0.17822
       3     C     3.08130  3.08130  0.00000 -0.16259
       4     O     4.16320  4.16320  0.00000 -0.32640
       5     C     3.10871  3.10871  0.00000 -0.21743
       6     H     0.44138  0.44138  0.00000  0.11724
       7     H     0.44902  0.44902  0.00000  0.10197
       8     C     3.09074  3.09074  0.00000 -0.18148
       9     H     0.44393  0.44393  0.00000  0.11214
      10     H     0.44720  0.44720  0.00000  0.10560
      11     C     3.15281  3.15281  0.00000 -0.30561
      12     H     0.45237  0.45237  0.00000  0.09525
      13     H     0.44663  0.44663  0.00000  0.10674
      14     H     0.45170  0.45170  0.00000  0.09660
      15     H     0.44437  0.44437  0.00000  0.11126
      16     H     0.45180  0.45180  0.00000  0.09641

   Total alpha = 24.00000, Total beta = 24.00000, Total charge = -0.00000
