  ==> Input File <==

--------------------------------------------------------------------------
set {
	reference rhf
	basis 6-31G*
}

set_num_threads( 4 )
memory 2 gb

molecule MOL {
0 1

O	 -2.324811	 1.361668	 -0.277141
C	 -2.105949	 0.203097	 -0.092081
C	 -0.889235	 -0.467034	 -0.705952
C	 -3.002726	 -0.644460	 0.782455
C	 0.262419	 0.537034	 -0.875308
H	 -1.180431	 -0.850904	 -1.677627
H	 -0.564929	 -1.304419	 -0.094692
C	 1.495028	 -0.098726	 -1.522686
H	 -0.097597	 1.366819	 -1.472996
H	 0.538272	 0.945381	 0.095724
C	 2.698840	 0.841632	 -1.651592
H	 1.227287	 -0.476466	 -2.507751
H	 1.792852	 -0.964403	 -0.934678
C	 2.487453	 2.015065	 -2.609907
H	 3.551403	 0.260321	 -1.993506
H	 2.965974	 1.220653	 -0.667178
H	 2.208848	 1.664851	 -3.600086
H	 3.397872	 2.597668	 -2.710462
H	 1.708475	 2.686923	 -2.265538
H	 -3.496582	 -1.399307	 0.176174
H	 -3.747939	 -0.023774	 1.260148
H	 -2.421318	 -1.168775	 1.535358

	symmetry c1
}
set optking {
	frozen_dihedral = ("
		6 3 2 1
	")
}

ee = optimize('scf')
oeprop('DIPOLE', 'QUADRUPOLE', 'MULLIKEN_CHARGES')
f=open( 'psi4out.xyz', 'w' )
f.write( "22  " )
f.write( str(ee) + "\n" )
f.write( MOL.save_string_xyz() )
f.close()
--------------------------------------------------------------------------

    Molecular point group: c1
  Charge       = 0
  Multiplicity = 1
  Basis Set: 6-31G*
  Basis Set:
  @DF-RHF Final Energy:  -348.09847090056530
    Total Energy =                       -348.0984709005654167
    Molecular point group: c1
  Basis Set: 6-31G*
  Basis Set:
  Basis Set: 6-31G*
  Basis Set:
  @DF-RHF Final Energy:  -348.09767672726855
    Total Energy =                       -348.0976767272687198
  Basis Set: 6-31G*
  Basis Set:
  Basis Set: 6-31G*
  Basis Set:
  @DF-RHF Final Energy:  -348.09917669602459
    Total Energy =                       -348.0991766960248697
  Basis Set: 6-31G*
  Basis Set:
  Basis Set: 6-31G*
  Basis Set:
  @DF-RHF Final Energy:  -348.09938197745640
    Total Energy =                       -348.0993819774563462
  Basis Set: 6-31G*
  Basis Set:
  @DF-RHF Final Energy:  -348.09835020639878
    Total Energy =                       -348.0983502063990045
  @DF-RHF Final Energy:  -348.09944154101709
    Total Energy =                       -348.0994415410174270
  Basis Set: 6-31G*
  Basis Set:
  @DF-RHF Final Energy:  -348.09952729042664
    Total Energy =                       -348.0995272904267495
  Basis Set: 6-31G*
  Basis Set:
  Basis Set: 6-31G*
  Basis Set:
  @DF-RHF Final Energy:  -348.09952761576460
    Total Energy =                       -348.0995276157647140
  Basis Set: 6-31G*
  Basis Set:
  Basis Set: 6-31G*
  Basis Set:
  @DF-RHF Final Energy:  -348.09953217800330
    Total Energy =                       -348.0995321780035852
  Basis Set: 6-31G*
  Basis Set:
  Charge       = 0
  Multiplicity = 1
  Basis Set: 6-31G*
  Basis Set:

    Orbital Energies (a.u.)
    -----------------------

    Doubly Occupied:

       1A    -20.549258     2A    -11.326362     3A    -11.231497
       4A    -11.228671     5A    -11.218765     6A    -11.217915
       7A    -11.216779     8A    -11.207627     9A     -1.395090
      10A     -1.090962    11A     -1.042600    12A     -1.000978
      13A     -0.934983    14A     -0.854360    15A     -0.781844
      16A     -0.731163    17A     -0.659439    18A     -0.645480
      19A     -0.627693    20A     -0.616604    21A     -0.598163
      22A     -0.580748    23A     -0.561719    24A     -0.546387
      25A     -0.526164    26A     -0.511055    27A     -0.498146
      28A     -0.483617    29A     -0.466024    30A     -0.461209
      31A     -0.457363    32A     -0.398449

  @DF-RHF Final Energy:  -348.09953199895381

   => Energetics <=

    Nuclear Repulsion Energy =            372.4665624743433909
    One-Electron Energy =               -1209.7979647340489464
    Two-Electron Energy =                 489.2318702607517480
    DFT Exchange-Correlation Energy =       0.0000000000000000
    Empirical Dispersion Energy =           0.0000000000000000
    PCM Polarization Energy =               0.0000000000000000
    EFP Energy =                            0.0000000000000000
    Total Energy =                       -348.0995319989538075
    Molecular point group: c1
  Basis Set: 6-31G*
  Basis Set:

  -Total Gradient:
     Atom            X                  Y                   Z
    ------   -----------------  -----------------  -----------------
       1       -0.000754952875    -0.000370496222    -0.001138594903
       2        0.001120370943     0.000761234576     0.001516796752
       3       -0.000718630525    -0.001581892614     0.000184000820
       4       -0.000016553637    -0.000004298496    -0.000028044149
       5        0.000013066698     0.000007741158    -0.000007870359
       6        0.000331077663     0.001184211058    -0.000588284947
       7        0.000002957401     0.000003547036     0.000004732804
       8        0.000004616128    -0.000007620403     0.000055263233
       9        0.000011046816     0.000036482934    -0.000000251253
      10        0.000006013474    -0.000007261821    -0.000013542770
      11        0.000020021140    -0.000022486521    -0.000047166791
      12        0.000007633840    -0.000011729565     0.000014643574
      13        0.000001225476     0.000005129544     0.000010981817
      14       -0.000014173102    -0.000001330809     0.000018396033
      15        0.000011428342     0.000013222636    -0.000019917962
      16        0.000002027452    -0.000017398842    -0.000006764832
      17        0.000007710117    -0.000003390713     0.000005230629
      18       -0.000003417074     0.000005985281     0.000004979457
      19       -0.000034095970     0.000002448450     0.000010434834
      20        0.000005122775     0.000004410251     0.000007937691
      21       -0.000003762426    -0.000003105715     0.000008590948
      22        0.000001267350     0.000006598796     0.000008449371

  **** Optimization is complete! (in 10 steps) ****
    Final optimized geometry and variables:
    Molecular point group: c1

    Geometry (in Angstrom), charge = 0, multiplicity = 1:

    O           -2.197886107446     0.889421012586     0.629211212172
    C           -1.934294698020    -0.259932460487     0.810616774674
    C           -0.700699516593    -0.903066371334     0.198278655325
    C           -2.835266818349    -1.158478058706     1.628979495749
    C            0.463812298751     0.069676731131     0.008504683776
    H           -1.010288964006    -1.293249970687    -0.771377581713
    H           -0.399466291548    -1.762295514533     0.791344920003
    C            1.661792857346    -0.587312693871    -0.681226694853
    H            0.111255131928     0.920618363781    -0.559888017071
    H            0.770199099435     0.454174888601     0.978914737000
    C            2.887043530924     0.322924612739    -0.823338825816
    H            1.362154566920    -0.939615610234    -1.667334218642
    H            1.952965195081    -1.472509294300    -0.118775054719
    C            2.678242018417     1.527513055954    -1.742746266192
    H            3.713421634905    -0.270597991896    -1.206592311381
    H            3.193338028722     0.668533570748     0.161847353083
    H            2.362092512918     1.211753919256    -2.733392805810
    H            3.600161013168     2.089707351646    -1.854943216124
    H            1.927093310946     2.208188465026    -1.356819983923
    H           -3.069686080826    -2.067375360795     1.082495803948
    H           -3.747216634892    -0.636029988041     1.882327609410
    H           -2.324632111040    -1.455073688689     2.541350707508

  Mulliken Charges: (a.u.)
   Center  Symbol    Alpha    Beta     Spin     Total
       1     O     4.26307  4.26307  0.00000 -0.52614
       2     C     2.73374  2.73374  0.00000  0.53251
       3     C     3.20945  3.20945  0.00000 -0.41890
       4     C     3.28797  3.28797  0.00000 -0.57594
       5     C     3.15447  3.15447  0.00000 -0.30893
       6     H     0.40459  0.40459  0.00000  0.19083
       7     H     0.41410  0.41410  0.00000  0.17180
       8     C     3.15392  3.15392  0.00000 -0.30784
       9     H     0.40186  0.40186  0.00000  0.19628
      10     H     0.41950  0.41950  0.00000  0.16101
      11     C     3.15240  3.15240  0.00000 -0.30480
      12     H     0.42404  0.42404  0.00000  0.15192
      13     H     0.42368  0.42368  0.00000  0.15264
      14     C     3.24226  3.24226  0.00000 -0.48452
      15     H     0.42086  0.42086  0.00000  0.15827
      16     H     0.42259  0.42259  0.00000  0.15483
      17     H     0.42226  0.42226  0.00000  0.15547
      18     H     0.41896  0.41896  0.00000  0.16207
      19     H     0.41671  0.41671  0.00000  0.16659
      20     H     0.40958  0.40958  0.00000  0.18085
      21     H     0.39702  0.39702  0.00000  0.20597
      22     H     0.40698  0.40698  0.00000  0.18604

   Total alpha = 32.00000, Total beta = 32.00000, Total charge = -0.00000
