  ==> Input File <==

--------------------------------------------------------------------------
set {
	reference rhf
	basis 6-31G*
}

set_num_threads( 1 )
memory 2 gb

molecule MOL {
0 1

H	 -2.499100	 -0.730091	 -0.745082
O	 -2.347518	 -0.290803	 0.079804
C	 -1.184022	 0.487508	 -0.006784
C	 0.062599	 -0.378592	 0.031606
H	 -1.176523	 1.099369	 -0.904519
H	 -1.187323	 1.153111	 0.844927
O	 1.171513	 0.459272	 -0.058250
H	 0.050699	 -1.089204	 -0.797170
H	 0.078739	 -0.954914	 0.954740
C	 1.228575	 1.218380	 -1.224287
H	 0.366322	 1.876602	 -1.313130
H	 2.125540	 1.820278	 -1.178715
H	 1.272357	 0.585672	 -2.108343

	symmetry c1
}
set optking {
	frozen_dihedral = ("
		8 4 3 5,
		1 2 3 5,
		4 7 10 13
	")
}

ee = energy('scf')
oeprop('DIPOLE', 'QUADRUPOLE', 'MULLIKEN_CHARGES')
f=open( 'psi4out.xyz', 'w' )
f.write( "13  " )
f.write( str(ee) + "\n" )
f.write( MOL.save_string_xyz() )
f.close()
--------------------------------------------------------------------------

    Molecular point group: c1

    Geometry (in Angstrom), charge = 0, multiplicity = 1:

       Center              X                  Y                   Z               Mass
    ------------   -----------------  -----------------  -----------------  -----------------
           H         -2.255831646742    -1.024788368385    -0.490820854542     1.007825032070
           O         -2.104249646742    -0.585500368385     0.334065145458    15.994914619560
           C         -0.940753646742     0.192810631615     0.247477145458    12.000000000000
           C          0.305867353258    -0.673289368385     0.285867145458    12.000000000000
           H         -0.933254646742     0.804671631615    -0.650257854542     1.007825032070
           H         -0.944054646742     0.858413631615     1.099188145458     1.007825032070
           O          1.414781353258     0.164574631615     0.196011145458    15.994914619560
           H          0.293967353258    -1.383901368385    -0.542908854542     1.007825032070
           H          0.322007353258    -1.249611368385     1.209001145458     1.007825032070
           C          1.471843353258     0.923682631615    -0.970025854542    12.000000000000
           H          0.609590353258     1.581904631615    -1.058868854542     1.007825032070
           H          2.368808353258     1.525580631615    -0.924453854542     1.007825032070
           H          1.515625353258     0.290974631615    -1.854081854542     1.007825032070

  Charge       = 0
  Multiplicity = 1
  Basis Set: 6-31G*
  Basis Set:

    Orbital Energies (a.u.)
    -----------------------

    Doubly Occupied:

       1A    -20.562239     2A    -20.561170     3A    -11.272164
       4A    -11.271630     5A    -11.269420     6A     -1.391586
       7A     -1.366215     8A     -1.012680     9A     -0.937458
      10A     -0.833054    11A     -0.718334    12A     -0.675641
      13A     -0.662932    14A     -0.632319    15A     -0.597785
      16A     -0.578381    17A     -0.539561    18A     -0.502311
      19A     -0.488150    20A     -0.451817    21A     -0.403647

  @DF-RHF Final Energy:  -267.93901657094113

   => Energetics <=

    Nuclear Repulsion Energy =            194.8568098234627541
    One-Electron Energy =                -752.1346869221652014
    Two-Electron Energy =                 289.3388605277616534
    DFT Exchange-Correlation Energy =       0.0000000000000000
    Empirical Dispersion Energy =           0.0000000000000000
    PCM Polarization Energy =               0.0000000000000000
    EFP Energy =                            0.0000000000000000
    Total Energy =                       -267.9390165709407938

  Mulliken Charges: (a.u.)
   Center  Symbol    Alpha    Beta     Spin     Total
       1     H     0.28173  0.28173  0.00000  0.43654
       2     O     4.37236  4.37236  0.00000 -0.74472
       3     C     3.01098  3.01098  0.00000 -0.02197
       4     C     3.00301  3.00301  0.00000 -0.00601
       5     H     0.42783  0.42783  0.00000  0.14433
       6     H     0.40772  0.40772  0.00000  0.18456
       7     O     4.30274  4.30274  0.00000 -0.60548
       8     H     0.43614  0.43614  0.00000  0.12772
       9     H     0.40486  0.40486  0.00000  0.19029
      10     C     3.08804  3.08804  0.00000 -0.17608
      11     H     0.42732  0.42732  0.00000  0.14535
      12     H     0.40794  0.40794  0.00000  0.18413
      13     H     0.42933  0.42933  0.00000  0.14134

   Total alpha = 21.00000, Total beta = 21.00000, Total charge = -0.00000
