                              Psi4 1.0.54 Driver

  ==> Input File <==

--------------------------------------------------------------------------
set {
	reference rhf
	basis cc-pvtz
}

set_num_threads( 4 )
memory 2 gb

molecule MOL {
0 1

H	 1.473539	 -1.626258	 1.516999
C	 1.651412	 -0.573471	 1.260764
C	 0.413343	 0.269738	 1.130453
O	 2.755740	 -0.181252	 1.105017
C	 -0.554654	 -0.292621	 0.086567
H	 0.711248	 1.281166	 0.887341
H	 -0.073891	 0.285028	 2.103206
C	 -1.846385	 0.513195	 -0.016346
H	 -0.063248	 -0.312036	 -0.881979
H	 -0.793827	 -1.324361	 0.331479
C	 -3.089953	 -0.365049	 -0.098564
H	 -1.798267	 1.154820	 -0.891143
H	 -1.925398	 1.173265	 0.842889
H	 -3.055079	 -1.012299	 -0.968245
H	 -3.988403	 0.236438	 -0.170014
H	 -3.183055	 -0.995885	 0.779079

	symmetry c1
}
set optking {
	frozen_dihedral = ("
		9 5 8 12
	")
}

ee,wfn = optimize('scf', return_wfn=True)
oeprop( wfn, 'DIPOLE', 'QUADRUPOLE', 'MULLIKEN_CHARGES')
f=open( 'psi4out.xyz', 'w' )
f.write( "16  " )
f.write( str(ee) + "\n" )
f.write( MOL.save_string_xyz() )
f.close()
--------------------------------------------------------------------------

    Molecular point group: c1
  Charge       = 0
  Multiplicity = 1
  Basis Set: CC-PVTZ
  Basis Set:
  @DF-RHF Final Energy:  -270.11417021304567
    Total Energy =                       -270.1141702130454405
    Molecular point group: c1
  Basis Set: CC-PVTZ
  Basis Set:
  Basis Set: CC-PVTZ
  Basis Set:
  @DF-RHF Final Energy:  -270.11444828317372
    Total Energy =                       -270.1144482831738287
  Basis Set: CC-PVTZ
  Basis Set:
  Basis Set: CC-PVTZ
  Basis Set:
  @DF-RHF Final Energy:  -270.11453567739579
    Total Energy =                       -270.1145356773959634
  Basis Set: CC-PVTZ
  Basis Set:
  Basis Set: CC-PVTZ
  Basis Set:
  @DF-RHF Final Energy:  -270.11452752071250
    Total Energy =                       -270.1145275207122722
  Basis Set: CC-PVTZ
  Basis Set:
  Basis Set: CC-PVTZ
  Basis Set:
  @DF-RHF Final Energy:  -270.11454136673615
    Total Energy =                       -270.1145413667360344
  Basis Set: CC-PVTZ
  Basis Set:
  Charge       = 0
  Multiplicity = 1
  Basis Set: CC-PVTZ
  Basis Set:

    Orbital Energies (a.u.)
    -----------------------

    Doubly Occupied:

       1A    -20.552055     2A    -11.320987     3A    -11.234687
       4A    -11.234027     5A    -11.227411     6A    -11.217334
       7A     -1.406726     8A     -1.095857     9A     -1.019720
      10A     -0.906404    11A     -0.812820    12A     -0.793976
      13A     -0.682469    14A     -0.642719    15A     -0.633623
      16A     -0.612415    17A     -0.579193    18A     -0.551381
      19A     -0.534177    20A     -0.509240    21A     -0.488215
      22A     -0.483485    23A     -0.475338    24A     -0.410950

  @DF-RHF Final Energy:  -270.11454208876205

   => Energetics <=

    Nuclear Repulsion Energy =            229.3898760620037081
    One-Electron Energy =                -820.1584211587860409
    Two-Electron Energy =                 320.6540030080203110
    DFT Exchange-Correlation Energy =       0.0000000000000000
    Empirical Dispersion Energy =           0.0000000000000000
    PCM Polarization Energy =               0.0000000000000000
    EFP Energy =                            0.0000000000000000
    Total Energy =                       -270.1145420887619935
    Molecular point group: c1
  Basis Set: CC-PVTZ
  Basis Set:

  -Total Gradient:
     Atom            X                  Y                   Z
    ------   -----------------  -----------------  -----------------
       1       -0.000013004193    -0.000019151038    -0.000017198495
       2        0.000026968546    -0.000038623470     0.000037910894
       3       -0.000040018151     0.000000810278    -0.000094329236
       4       -0.000070122513     0.000034914079     0.000011209450
       5       -0.002592826171    -0.004443243965    -0.001517590809
       6       -0.000011820654     0.000029859273     0.000014959914
       7        0.000058406562    -0.000000135811     0.000031809380
       8        0.002269476639     0.004108325992     0.002700277039
       9        0.001852490208     0.003047428295     0.000821514114
      10       -0.000007177843    -0.000004653842     0.000020046569
      11        0.000023280336    -0.000033262050    -0.000005814038
      12       -0.001490872367    -0.002690386112    -0.002009410361
      13       -0.000011673749     0.000024521188     0.000009635256
      14       -0.000015568396    -0.000008895089    -0.000009720819
      15        0.000029942777     0.000008489820     0.000004456520
      16       -0.000007481039    -0.000015997546     0.000002244623

  **** Optimization is complete! (in 6 steps) ****
    Final optimized geometry and variables:
    Molecular point group: c1

    Geometry (in Angstrom), charge = 0, multiplicity = 1:

    H            1.648561116923    -1.488060825988     0.946690000206
    C            1.795056046588    -0.436699610453     0.665423666237
    C            0.535795033625     0.378617272128     0.565534455383
    O            2.884602108660    -0.025543288718     0.461243390272
    C           -0.451726643191    -0.215828199114    -0.445242688721
    H            0.803380172831     1.393864436774     0.302742296766
    H            0.077131750719     0.393953254131     1.551945772531
    C           -1.752094206514     0.600691256157    -0.556675446936
    H            0.042152846818    -0.248114330660    -1.410496316345
    H           -0.677054454277    -1.239735880033    -0.165004282912
    C           -2.996848954507    -0.275775083729    -0.673983875435
    H           -1.703013410691     1.233611823931    -1.435605251888
    H           -1.856536596708     1.255661164843     0.301183849744
    H           -2.931595898169    -0.933001266860    -1.534759706171
    H           -3.890504071180     0.327150416761    -0.785468592126
    H           -3.122810324957    -0.897253622353     0.206375576302

  Mulliken Charges: (a.u.)
   Center  Symbol    Alpha    Beta     Spin     Total
       1     H     0.46542  0.46542  0.00000  0.06916
       2     C     2.91044  2.91044  0.00000  0.17912
       3     C     3.07905  3.07905  0.00000 -0.15811
       4     O     4.16365  4.16365  0.00000 -0.32729
       5     C     3.10444  3.10444  0.00000 -0.20887
       6     H     0.44162  0.44162  0.00000  0.11675
       7     H     0.45054  0.45054  0.00000  0.09892
       8     C     3.08598  3.08598  0.00000 -0.17196
       9     H     0.44342  0.44342  0.00000  0.11317
      10     H     0.45122  0.45122  0.00000  0.09755
      11     C     3.14770  3.14770  0.00000 -0.29541
      12     H     0.44834  0.44834  0.00000  0.10331
      13     H     0.45207  0.45207  0.00000  0.09586
      14     H     0.45282  0.45282  0.00000  0.09435
      15     H     0.44757  0.44757  0.00000  0.10486
      16     H     0.45571  0.45571  0.00000  0.08858

   Total alpha = 24.00000, Total beta = 24.00000, Total charge =  0.00000

*** Psi4 exiting successfully. Buy a developer a beer!
