                              Psi4 1.0.54 Driver

  ==> Input File <==

--------------------------------------------------------------------------
set {
	reference rhf
	basis cc-pvtz
}

set_num_threads( 4 )
memory 2 gb

molecule MOL {
0 1

O	 -2.081319	 -0.951530	 -0.502732
N	 -1.613558	 0.006676	 0.014756
C	 -0.329345	 -0.171618	 0.743966
O	 -2.068523	 1.100482	 -0.024385
C	 0.835904	 0.041968	 -0.213982
H	 -0.346048	 -1.174374	 1.137184
H	 -0.333613	 0.555559	 1.538590
C	 2.177039	 -0.130175	 0.494460
H	 0.754456	 -0.665923	 -1.030569
H	 0.765464	 1.037260	 -0.637266
C	 2.689937	 -1.564434	 0.428764
H	 2.077903	 0.171092	 1.533135
H	 2.909181	 0.536284	 0.048133
H	 1.993403	 -2.250368	 0.897841
H	 2.828676	 -1.883177	 -0.598305
H	 3.641761	 -1.658823	 0.936980

	symmetry c1
}
set optking {
	frozen_dihedral = ("
		11 8 5 9
	")
}

ee,wfn = optimize('scf', return_wfn=True)
oeprop( wfn, 'DIPOLE', 'QUADRUPOLE', 'MULLIKEN_CHARGES')
f=open( 'psi4out.xyz', 'w' )
f.write( "16  " )
f.write( str(ee) + "\n" )
f.write( MOL.save_string_xyz() )
f.close()
--------------------------------------------------------------------------

    Molecular point group: c1
  Charge       = 0
  Multiplicity = 1
  Basis Set: CC-PVTZ
  Basis Set:
  @DF-RHF Final Energy:  -360.90596646147367
    Total Energy =                       -360.9059664614737812
    Molecular point group: c1
  Basis Set: CC-PVTZ
  Basis Set:
  Basis Set: CC-PVTZ
  Basis Set:
  @DF-RHF Final Energy:  -360.90630875763998
    Total Energy =                       -360.9063087576401472
  Basis Set: CC-PVTZ
  Basis Set:
  Basis Set: CC-PVTZ
  Basis Set:
  @DF-RHF Final Energy:  -360.90518468867367
    Total Energy =                       -360.9051846886737849
  Basis Set: CC-PVTZ
  Basis Set:
  Basis Set: CC-PVTZ
  Basis Set:
  @DF-RHF Final Energy:  -360.90629133199832
    Total Energy =                       -360.9062913319982613
  Basis Set: CC-PVTZ
  Basis Set:
  Basis Set: CC-PVTZ
  Basis Set:
  @DF-RHF Final Energy:  -360.90635237770641
    Total Energy =                       -360.9063523777063551
  Basis Set: CC-PVTZ
  Basis Set:
  Basis Set: CC-PVTZ
  Basis Set:
  @DF-RHF Final Energy:  -360.90635847951302
    Total Energy =                       -360.9063584795132442
  Basis Set: CC-PVTZ
  Basis Set:
  Charge       = 0
  Multiplicity = 1
  Basis Set: CC-PVTZ
  Basis Set:

    Orbital Energies (a.u.)
    -----------------------

    Doubly Occupied:

       1A    -20.589641     2A    -20.589386     3A    -15.835896
       4A    -11.296042     5A    -11.250956     6A    -11.242021
       7A    -11.227057     8A     -1.634977     9A     -1.419287
      10A     -1.136160    11A     -1.058136    12A     -0.949740
      13A     -0.849132    14A     -0.824696    15A     -0.760546
      16A     -0.737428    17A     -0.726683    18A     -0.667586
      19A     -0.631350    20A     -0.601885    21A     -0.567208
      22A     -0.550422    23A     -0.513692    24A     -0.503437
      25A     -0.494977    26A     -0.484979    27A     -0.469893
      28A     -0.451927

  @DF-RHF Final Energy:  -360.90635879820792

   => Energetics <=

    Nuclear Repulsion Energy =            315.4907550910948544
    One-Electron Energy =               -1116.6639439301811763
    Two-Electron Energy =                 440.2668300408786308
    DFT Exchange-Correlation Energy =       0.0000000000000000
    Empirical Dispersion Energy =           0.0000000000000000
    PCM Polarization Energy =               0.0000000000000000
    EFP Energy =                            0.0000000000000000
    Total Energy =                       -360.9063587982077479
    Molecular point group: c1
  Basis Set: CC-PVTZ
  Basis Set:

  -Total Gradient:
     Atom            X                  Y                   Z
    ------   -----------------  -----------------  -----------------
       1       -0.000008034303     0.000009188119    -0.000017772375
       2        0.000011776297     0.000009806200     0.000045853229
       3        0.000011019347     0.000000141678    -0.000003464632
       4       -0.000016581118    -0.000009096630    -0.000018394152
       5        0.002071991701     0.002855212717    -0.003253992127
       6       -0.000001900410    -0.000003589125     0.000001339371
       7       -0.000006564859    -0.000002354222    -0.000003274719
       8       -0.001818910814    -0.001217326791     0.003256716040
       9       -0.001328327072    -0.002135847454     0.001977125388
      10       -0.000000202504    -0.000002978757     0.000005896671
      11        0.001079306594     0.000500170626    -0.001987738256
      12        0.000002481134     0.000004627966    -0.000001394829
      13       -0.000003447458    -0.000000001916    -0.000001892065
      14       -0.000001124830    -0.000011906368    -0.000000172801
      15        0.000007824620     0.000002112740    -0.000009847680
      16        0.000000693676     0.000001841218     0.000011012935

  **** Optimization is complete! (in 7 steps) ****
    Final optimized geometry and variables:
    Molecular point group: c1

    Geometry (in Angstrom), charge = 0, multiplicity = 1:

    O           -1.959595331393    -0.752246354286    -0.602377333428
    N           -1.519125590043     0.224910541887    -0.095923397728
    C           -0.225449807502     0.094364441639     0.626724769470
    O           -2.008748020551     1.303370726794    -0.141877235842
    C            0.928605211369     0.336967681906    -0.342418676080
    H           -0.210937326096    -0.903705761690     1.031147735610
    H           -0.247067353373     0.830128083780     1.412882998981
    C            2.285395711486     0.125887515366     0.344497923363
    H            0.819795329110    -0.355817186121    -1.168091825143
    H            0.846291548838     1.343234601291    -0.730749158901
    C            2.794257966535    -1.310677343090     0.263394853990
    H            2.228532902132     0.444594572841     1.380897371778
    H            3.013451493327     0.775906616614    -0.126603418353
    H            2.099313554462    -2.012953191513     0.711529004271
    H            2.942053888433    -1.607448479987    -0.768468051076
    H            3.741400715440    -1.414377031966     0.778849630631

  Mulliken Charges: (a.u.)
   Center  Symbol    Alpha    Beta     Spin     Total
       1     O     4.17382  4.17382  0.00000 -0.34763
       2     N     3.27569  3.27569  0.00000  0.44862
       3     C     3.04134  3.04134  0.00000 -0.08267
       4     O     4.17409  4.17409  0.00000 -0.34817
       5     C     3.10828  3.10828  0.00000 -0.21655
       6     H     0.43440  0.43440  0.00000  0.13119
       7     H     0.43385  0.43385  0.00000  0.13231
       8     C     3.09790  3.09790  0.00000 -0.19579
       9     H     0.43870  0.43870  0.00000  0.12261
      10     H     0.43072  0.43072  0.00000  0.13856
      11     C     3.14617  3.14617  0.00000 -0.29235
      12     H     0.45240  0.45240  0.00000  0.09519
      13     H     0.44249  0.44249  0.00000  0.11501
      14     H     0.45444  0.45444  0.00000  0.09111
      15     H     0.45077  0.45077  0.00000  0.09846
      16     H     0.44495  0.44495  0.00000  0.11009

   Total alpha = 28.00000, Total beta = 28.00000, Total charge = -0.00000

*** Psi4 exiting successfully. Buy a developer a beer!
