  ==> Input File <==

--------------------------------------------------------------------------
set {
	reference rhf
	basis 6-31G*
}

set_num_threads( 4 )
memory 2 gb

molecule MOL {
0 1

H	 -3.420663	 1.227371	 -1.044276
O	 -3.452007	 0.283848	 -0.965577
C	 -3.181085	 -0.079926	 0.364119
C	 -1.765924	 0.277073	 0.805136
H	 -3.327791	 -1.152017	 0.410903
H	 -3.905698	 0.375695	 1.036898
C	 -0.677594	 -0.417312	 -0.014550
H	 -1.637766	 1.358238	 0.744969
H	 -1.659588	 0.017670	 1.857098
C	 0.738335	 -0.034840	 0.421385
H	 -0.814977	 -0.178223	 -1.064632
H	 -0.802730	 -1.495410	 0.071702
C	 1.457944	 -1.166835	 1.159515
H	 1.310617	 0.260021	 -0.454953
H	 0.694280	 0.841865	 1.066407
C	 2.847613	 -0.802374	 1.694438
H	 1.542609	 -2.029281	 0.500187
H	 0.839153	 -1.485241	 1.995895
C	 3.888370	 -0.507980	 0.612512
H	 3.206782	 -1.624941	 2.308173
H	 2.763761	 0.056063	 2.357958
H	 3.984713	 -1.344991	 -0.073978
H	 4.864114	 -0.330420	 1.054365
H	 3.631437	 0.370217	 0.029486

	symmetry c1
}
set optking {
	frozen_dihedral = ("
		13 10 7 11
	")
}

ee = optimize('scf')
oeprop('DIPOLE', 'QUADRUPOLE', 'MULLIKEN_CHARGES')
f=open( 'psi4out.xyz', 'w' )
f.write( "24  " )
f.write( str(ee) + "\n" )
f.write( MOL.save_string_xyz() )
f.close()
--------------------------------------------------------------------------

    Molecular point group: c1
  Charge       = 0
  Multiplicity = 1
  Basis Set: 6-31G*
  Basis Set:
  @DF-RHF Final Energy:  -349.24233768459976
    Total Energy =                       -349.2423376846000451
    Molecular point group: c1
  Basis Set: 6-31G*
  Basis Set:
  Basis Set: 6-31G*
  Basis Set:
  @DF-RHF Final Energy:  -349.24257076289484
    Total Energy =                       -349.2425707628946157
  Basis Set: 6-31G*
  Basis Set:
  Basis Set: 6-31G*
  Basis Set:
  @DF-RHF Final Energy:  -349.24265314035028
    Total Energy =                       -349.2426531403501713
  Basis Set: 6-31G*
  Basis Set:
  Basis Set: 6-31G*
  Basis Set:
  @DF-RHF Final Energy:  -349.24265875445485
    Total Energy =                       -349.2426587544548511
  Basis Set: 6-31G*
  Basis Set:
  Charge       = 0
  Multiplicity = 1
  Basis Set: 6-31G*
  Basis Set:

    Orbital Energies (a.u.)
    -----------------------

    Doubly Occupied:

       1A    -20.553522     2A    -11.267519     3A    -11.217970
       4A    -11.214379     5A    -11.212932     6A    -11.211940
       7A    -11.210837     8A    -11.207422     9A     -1.360079
      10A     -1.087504    11A     -1.047637    12A     -0.984351
      13A     -0.915006    14A     -0.852245    15A     -0.802273
      16A     -0.776118    17A     -0.679549    18A     -0.647339
      19A     -0.625404    20A     -0.619905    21A     -0.594530
      22A     -0.581934    23A     -0.569609    24A     -0.532214
      25A     -0.523006    26A     -0.510400    27A     -0.490727
      28A     -0.483385    29A     -0.465991    30A     -0.458872
      31A     -0.456799    32A     -0.438968    33A     -0.421620

  @DF-RHF Final Energy:  -349.24265941813769

   => Energetics <=

    Nuclear Repulsion Energy =            385.1022885171909138
    One-Electron Energy =               -1236.6459271727603664
    Two-Electron Energy =                 502.3009792374319318
    DFT Exchange-Correlation Energy =       0.0000000000000000
    Empirical Dispersion Energy =           0.0000000000000000
    PCM Polarization Energy =               0.0000000000000000
    EFP Energy =                            0.0000000000000000
    Total Energy =                       -349.2426594181375208
    Molecular point group: c1
  Basis Set: 6-31G*
  Basis Set:

  -Total Gradient:
     Atom            X                  Y                   Z
    ------   -----------------  -----------------  -----------------
       1       -0.000003833660    -0.000003577098     0.000004458952
       2        0.000013775195    -0.000010771271    -0.000018152334
       3        0.000004008567     0.000010838643     0.000001978756
       4       -0.000006517517     0.000005120054     0.000014411173
       5        0.000002889035     0.000006138819     0.000004771402
       6        0.000004414005     0.000004311306     0.000007214593
       7       -0.000695864858     0.002515918141     0.000147047447
       8       -0.000007208021    -0.000002274732     0.000007426639
       9        0.000000180904    -0.000006889124     0.000000169870
      10       -0.000618045370     0.000303870769     0.001927962860
      11        0.000746152665    -0.002216197191    -0.000591188434
      12        0.000003375038    -0.000008980408    -0.000010646623
      13        0.000611135501    -0.000595733687    -0.001498950416
      14        0.000004639681     0.000007785504    -0.000006724489
      15       -0.000007758089     0.000002032774     0.000001030005
      16       -0.000010422021     0.000000392348    -0.000027526449
      17        0.000004853137    -0.000000391087     0.000017452083
      18        0.000005550692     0.000003224522     0.000027559287
      19       -0.000021959301     0.000011657733    -0.000003538726
      20       -0.000011499967    -0.000021520087    -0.000005018631
      21       -0.000008055445    -0.000013136674    -0.000001164441
      22       -0.000002946167    -0.000000811141     0.000005149843
      23       -0.000003871023    -0.000001329311     0.000011136778
      24       -0.000002992972     0.000010321197    -0.000014859144

  **** Optimization is complete! (in 5 steps) ****
    Final optimized geometry and variables:
    Molecular point group: c1

    Geometry (in Angstrom), charge = 0, multiplicity = 1:

    H           -3.389157376818     1.470386046460    -1.530655532268
    O           -3.410427323878     0.529088158967    -1.426408412954
    C           -3.109492783159     0.203212134278    -0.093249503742
    C           -1.691668783220     0.590232579185     0.310739872772
    H           -3.240249968126    -0.869149562302    -0.016650513283
    H           -3.827491846108     0.666017229352     0.581756497359
    C           -0.608442043527    -0.097838079601    -0.521649569090
    H           -1.581509595901     1.672032840457     0.231852356225
    H           -1.557347579815     0.348583827096     1.364099470604
    C            0.828036880386     0.260861779350    -0.082575296567
    H           -0.755137363868     0.135384363246    -1.569939629570
    H           -0.748084576957    -1.174669995549    -0.446857968037
    C            1.531858925045    -0.879460980660     0.660500545357
    H            1.413902576433     0.533086363100    -0.954870408515
    H            0.811148023049     1.144457823394     0.552814906676
    C            2.915127726116    -0.526771590294     1.217762200235
    H            1.620152293897    -1.736094473012    -0.005482334564
    H            0.899664101283    -1.202595125131     1.486022726960
    C            3.969125265242    -0.216052154538     0.153233979953
    H            3.265491282781    -1.360175475162     1.821981818905
    H            2.824663279408     0.320754599754     1.894406953128
    H            4.070067938648    -1.040198093458    -0.547941837501
    H            4.940383181826    -0.051046889394     0.609569249597
    H            3.722189526247     0.673974253668    -0.415871208179

  Mulliken Charges: (a.u.)
   Center  Symbol    Alpha    Beta     Spin     Total
       1     H     0.28335  0.28335  0.00000  0.43330
       2     O     4.36828  4.36828  0.00000 -0.73656
       3     C     2.99661  2.99661  0.00000  0.00677
       4     C     3.17035  3.17035  0.00000 -0.34070
       5     H     0.41622  0.41622  0.00000  0.16756
       6     H     0.42822  0.42822  0.00000  0.14357
       7     C     3.15581  3.15581  0.00000 -0.31162
       8     H     0.42762  0.42762  0.00000  0.14476
       9     H     0.42226  0.42226  0.00000  0.15547
      10     C     3.15731  3.15731  0.00000 -0.31461
      11     H     0.40981  0.40981  0.00000  0.18037
      12     H     0.42119  0.42119  0.00000  0.15761
      13     C     3.15378  3.15378  0.00000 -0.30756
      14     H     0.41842  0.41842  0.00000  0.16315
      15     H     0.42348  0.42348  0.00000  0.15304
      16     C     3.15270  3.15270  0.00000 -0.30539
      17     H     0.42289  0.42289  0.00000  0.15422
      18     H     0.42368  0.42368  0.00000  0.15265
      19     C     3.24117  3.24117  0.00000 -0.48235
      20     H     0.42128  0.42128  0.00000  0.15745
      21     H     0.42391  0.42391  0.00000  0.15219
      22     H     0.42202  0.42202  0.00000  0.15596
      23     H     0.41953  0.41953  0.00000  0.16095
      24     H     0.42012  0.42012  0.00000  0.15976

   Total alpha = 33.00000, Total beta = 33.00000, Total charge =  0.00000
