  ==> Input File <==

--------------------------------------------------------------------------
set {
	reference rhf
	basis 6-31G*
}

set_num_threads( 4 )
memory 2 gb

molecule MOL {
0 1

H	 -2.344230	 0.138638	 0.797294
N	 -1.852125	 0.165761	 -0.074816
C	 -0.563778	 -0.502042	 0.037919
H	 -1.727421	 1.132851	 -0.307069
C	 0.575259	 0.508231	 -0.048326
H	 -0.482092	 -1.204004	 -0.786564
H	 -0.460411	 -1.085169	 0.956626
C	 1.954651	 -0.143624	 0.035137
H	 0.475158	 1.060484	 -0.977307
H	 0.469181	 1.234488	 0.755973
H	 2.103292	 -0.853109	 -0.774172
H	 2.742821	 0.599562	 -0.030094
H	 2.083613	 -0.679371	 0.971560

	symmetry c1
}
set optking {
	frozen_dihedral = ("
		1 2 3 6
	")
}

ee = optimize('scf')
oeprop('DIPOLE', 'QUADRUPOLE', 'MULLIKEN_CHARGES')
f=open( 'psi4out.xyz', 'w' )
f.write( "13  " )
f.write( str(ee) + "\n" )
f.write( MOL.save_string_xyz() )
f.close()
--------------------------------------------------------------------------

    Molecular point group: c1
  Charge       = 0
  Multiplicity = 1
  Basis Set: 6-31G*
  Basis Set:
  @DF-RHF Final Energy:  -173.27712770521404
    Total Energy =                       -173.2771277052140135
    Molecular point group: c1
  Basis Set: 6-31G*
  Basis Set:
  Basis Set: 6-31G*
  Basis Set:
  @DF-RHF Final Energy:  -173.27838279121579
    Total Energy =                       -173.2783827912157335
  Basis Set: 6-31G*
  Basis Set:
  Basis Set: 6-31G*
  Basis Set:
  @DF-RHF Final Energy:  -173.27859589483916
    Total Energy =                       -173.2785958948392135
  Basis Set: 6-31G*
  Basis Set:
  Basis Set: 6-31G*
  Basis Set:
  @DF-RHF Final Energy:  -173.27861256941901
    Total Energy =                       -173.2786125694189820
  Basis Set: 6-31G*
  Basis Set:
  Basis Set: 6-31G*
  Basis Set:
  @DF-RHF Final Energy:  -173.27862085220897
    Total Energy =                       -173.2786208522089737
  Basis Set: 6-31G*
  Basis Set:
  Charge       = 0
  Multiplicity = 1
  Basis Set: 6-31G*
  Basis Set:

    Orbital Energies (a.u.)
    -----------------------

    Doubly Occupied:

       1A    -15.528755     2A    -11.239739     3A    -11.218140
       4A    -11.212523     5A     -1.173165     6A     -1.037757
       7A     -0.899797     8A     -0.807769     9A     -0.668078
      10A     -0.618860    11A     -0.605919    12A     -0.557233
      13A     -0.540012    14A     -0.502234    15A     -0.485420
      16A     -0.470952    17A     -0.372055

  @DF-RHF Final Energy:  -173.27862138269731

   => Energetics <=

    Nuclear Repulsion Energy =            131.6182567033404496
    One-Electron Energy =                -493.9169407226527824
    Two-Electron Energy =                 189.0200626366150232
    DFT Exchange-Correlation Energy =       0.0000000000000000
    Empirical Dispersion Energy =           0.0000000000000000
    PCM Polarization Energy =               0.0000000000000000
    EFP Energy =                            0.0000000000000000
    Total Energy =                       -173.2786213826972812
    Molecular point group: c1
  Basis Set: 6-31G*
  Basis Set:

  -Total Gradient:
     Atom            X                  Y                   Z
    ------   -----------------  -----------------  -----------------
       1       -0.001065111588    -0.002386907410    -0.000597505423
       2        0.001097351640     0.002583984593     0.001109464882
       3        0.000894042576     0.001554149596    -0.001992610370
       4        0.000033808234    -0.000037851280     0.000007303727
       5       -0.000080479994    -0.000015389670    -0.000017890356
       6       -0.000913208605    -0.001701149898     0.001463387366
       7       -0.000022020055    -0.000015130763     0.000023881231
       8        0.000028121026     0.000013792132    -0.000000009076
       9        0.000018540289     0.000000281232     0.000016194757
      10        0.000010731943     0.000005956121    -0.000004747738
      11       -0.000001618977     0.000003465510    -0.000010562584
      12        0.000012245266    -0.000009446699     0.000005137491
      13       -0.000012401757     0.000004246536    -0.000002043907

  **** Optimization is complete! (in 6 steps) ****
    Final optimized geometry and variables:
    Molecular point group: c1

    Geometry (in Angstrom), charge = 0, multiplicity = 1:

    H           -2.366515704805     0.121707226973     0.817848824994
    N           -1.890472400526     0.122556135121    -0.059868388390
    C           -0.569523493130    -0.490113131955     0.031246415911
    H           -1.849158622997     1.063788853355    -0.394672391505
    C            0.588156160893     0.504749665211    -0.031879315280
    H           -0.461490421370    -1.228269816202    -0.759810063914
    H           -0.507394994109    -1.048408981921     0.961853241509
    C            1.957136201792    -0.171679988575     0.022436471643
    H            0.507652729406     1.082780627071    -0.950977283422
    H            0.493476264045     1.212973337923     0.788687726064
    H            2.084970622738    -0.864243612900    -0.804386946611
    H            2.758141806155     0.558507880861    -0.031220998524
    H            2.082062578083    -0.731783865686     0.944898849931

  Mulliken Charges: (a.u.)
   Center  Symbol    Alpha    Beta     Spin     Total
       1     H     0.33080  0.33080  0.00000  0.33839
       2     N     3.93231  3.93231  0.00000 -0.86462
       3     C     3.04714  3.04714  0.00000 -0.09427
       4     H     0.33139  0.33139  0.00000  0.33723
       5     C     3.16428  3.16428  0.00000 -0.32856
       6     H     0.42065  0.42065  0.00000  0.15869
       7     H     0.42624  0.42624  0.00000  0.14752
       8     C     3.24321  3.24321  0.00000 -0.48642
       9     H     0.42253  0.42253  0.00000  0.15495
      10     H     0.42383  0.42383  0.00000  0.15234
      11     H     0.41905  0.41905  0.00000  0.16189
      12     H     0.41755  0.41755  0.00000  0.16489
      13     H     0.42102  0.42102  0.00000  0.15795

   Total alpha = 17.00000, Total beta = 17.00000, Total charge =  0.00000
