  ==> Input File <==

--------------------------------------------------------------------------
set {
	reference rhf
	basis 6-31G*
}

set_num_threads( 4 )
memory 2 gb

molecule MOL {
0 1

H	 2.652209	 0.763231	 0.000000
O	 2.263154	 -0.100023	 0.000000
C	 0.912879	 -0.015685	 0.000000
C	 0.287924	 0.237824	 1.213979
C	 0.158440	 -0.171963	 -1.151296
H	 0.891354	 0.355742	 2.094761
C	 -1.089181	 0.332796	 1.264682
H	 0.643963	 -0.368596	 -2.092638
C	 -1.223823	 -0.074066	 -1.085859
H	 -1.568425	 0.529252	 2.207240
C	 -1.856472	 0.178032	 0.117412
H	 -1.802171	 -0.196668	 -1.984287
H	 -2.927393	 0.253270	 0.164666

	symmetry c1
}
set optking {
	frozen_dihedral = ("
		4 3 2 1
	")
}

ee = optimize('scf')
oeprop('DIPOLE', 'QUADRUPOLE', 'MULLIKEN_CHARGES')
f=open( 'psi4out.xyz', 'w' )
f.write( "13  " )
f.write( str(ee) + "\n" )
f.write( MOL.save_string_xyz() )
f.close()
--------------------------------------------------------------------------

    Molecular point group: c1
  Charge       = 0
  Multiplicity = 1
  Basis Set: 6-31G*
  Basis Set:
  @DF-RHF Final Energy:  -305.55245895225983
    Total Energy =                       -305.5524589522597125
    Molecular point group: c1
  Basis Set: 6-31G*
  Basis Set:
  Basis Set: 6-31G*
  Basis Set:
  @DF-RHF Final Energy:  -305.55348039907898
    Total Energy =                       -305.5534803990791488
  Basis Set: 6-31G*
  Basis Set:
  Basis Set: 6-31G*
  Basis Set:
  @DF-RHF Final Energy:  -305.55354917327981
    Total Energy =                       -305.5535491732798619
  Basis Set: 6-31G*
  Basis Set:
  Basis Set: 6-31G*
  Basis Set:
  @DF-RHF Final Energy:  -305.55355649777476
    Total Energy =                       -305.5535564977749345
  Basis Set: 6-31G*
  Basis Set:
  Charge       = 0
  Multiplicity = 1
  Basis Set: 6-31G*
  Basis Set:

    Orbital Energies (a.u.)
    -----------------------

    Doubly Occupied:

       1A    -20.576622     2A    -11.288641     3A    -11.234734
       4A    -11.234290     5A    -11.227725     6A    -11.227231
       7A    -11.226094     8A     -1.391404     9A     -1.147523
      10A     -1.017906    11A     -1.003461    12A     -0.835268
      13A     -0.823184    14A     -0.731785    15A     -0.679724
      16A     -0.645120    17A     -0.627867    18A     -0.591103
      19A     -0.588529    20A     -0.521521    21A     -0.513640
      22A     -0.492004    23A     -0.466191    24A     -0.336503
      25A     -0.323910

  @DF-RHF Final Energy:  -305.55355769415848

   => Energetics <=

    Nuclear Repulsion Energy =            272.6308505984001158
    One-Electron Energy =                -954.8648502943669882
    Two-Electron Energy =                 376.6804420018081601
    DFT Exchange-Correlation Energy =       0.0000000000000000
    Empirical Dispersion Energy =           0.0000000000000000
    PCM Polarization Energy =               0.0000000000000000
    EFP Energy =                            0.0000000000000000
    Total Energy =                       -305.5535576941587124
    Molecular point group: c1
  Basis Set: 6-31G*
  Basis Set:

  -Total Gradient:
     Atom            X                  Y                   Z
    ------   -----------------  -----------------  -----------------
       1       -0.000021942091     0.000032297861    -0.000807099185
       2        0.000169135513    -0.000321524951     0.001063566144
       3       -0.000180043130     0.000823115688    -0.000542991080
       4       -0.000025191618    -0.000563006671     0.000194058371
       5        0.000157216008    -0.000006553237     0.000036040618
       6       -0.000036074159    -0.000010830991    -0.000023967029
       7        0.000048438766     0.000045698585     0.000015900725
       8        0.000038319814    -0.000006507711     0.000011611980
       9       -0.000120440722     0.000069660223     0.000072472791
      10       -0.000046165556    -0.000006051702    -0.000003091953
      11        0.000002956382    -0.000061974319    -0.000082789016
      12        0.000016163918    -0.000001195350     0.000014951564
      13       -0.000002373130     0.000006872576     0.000051336070

  **** Optimization is complete! (in 5 steps) ****
    Final optimized geometry and variables:
    Molecular point group: c1

    Geometry (in Angstrom), charge = 0, multiplicity = 1:

    H            2.676144327000     0.676504354054    -0.086155702131
    O            2.268953919874    -0.179418106252    -0.092521997285
    C            0.904939080712    -0.054434500151    -0.036142284125
    C            0.276227701901     0.185500056329     1.174862941737
    C            0.159257161973    -0.220821604113    -1.190411438849
    H            0.870870614364     0.291793745129     2.064162624854
    C           -1.105284975702     0.274007064791     1.224812110427
    H            0.667333845600    -0.420304202789    -2.116019087283
    C           -1.222785380253    -0.136524820646    -1.132156598781
    H           -1.592304960195     0.461357986774     2.165201924271
    C           -1.859404498354     0.114014659353     0.072855703663
    H           -1.800993962681    -0.267059802702    -2.029453808566
    H           -2.931647675950     0.179382807950     0.115414878123

  Mulliken Charges: (a.u.)
   Center  Symbol    Alpha    Beta     Spin     Total
       1     H     0.27140  0.27140  0.00000  0.45719
       2     O     4.38789  4.38789  0.00000 -0.77578
       3     C     2.81977  2.81977  0.00000  0.36046
       4     C     3.12004  3.12004  0.00000 -0.24008
       5     C     3.11698  3.11698  0.00000 -0.23397
       6     H     0.39558  0.39558  0.00000  0.20885
       7     C     3.09684  3.09684  0.00000 -0.19369
       8     H     0.39345  0.39345  0.00000  0.21309
       9     C     3.09700  3.09700  0.00000 -0.19401
      10     H     0.39811  0.39811  0.00000  0.20378
      11     C     3.10537  3.10537  0.00000 -0.21074
      12     H     0.39803  0.39803  0.00000  0.20394
      13     H     0.39953  0.39953  0.00000  0.20095

   Total alpha = 25.00000, Total beta = 25.00000, Total charge =  0.00000
