  ==> Input File <==

--------------------------------------------------------------------------
set {
	reference rhf
	basis cc-pvtz
}

set_num_threads( 4 )
memory 2 gb

molecule MOL {
0 1

H	 3.768929	 0.549656	 -0.702018
N	 2.986099	 -0.068792	 -0.684255
C	 1.860978	 0.530248	 0.016256
H	 3.283272	 -0.907032	 -0.229952
C	 0.644130	 -0.381765	 -0.031064
H	 1.624888	 1.467465	 -0.476485
H	 2.088168	 0.771721	 1.055501
C	 -0.678115	 0.376691	 0.025731
H	 0.693998	 -0.977147	 -0.936845
H	 0.693309	 -1.082142	 0.800523
C	 -1.900706	 -0.535531	 -0.022488
H	 -0.725296	 1.079516	 -0.802982
H	 -0.715474	 0.974884	 0.933278
C	 -3.220513	 0.226854	 0.028039
H	 -1.865036	 -1.134397	 -0.928236
H	 -1.857948	 -1.236381	 0.806820
H	 -3.309098	 0.911849	 -0.808725
H	 -4.066838	 -0.449485	 -0.008086
H	 -3.301685	 0.809374	 0.939860

	symmetry c1
}
set optking {
	frozen_dihedral = ("
		6 3 5 9
	")
}

ee = optimize('scf')
oeprop('DIPOLE', 'QUADRUPOLE', 'MULLIKEN_CHARGES')
f=open( 'psi4out.xyz', 'w' )
f.write( "19  " )
f.write( str(ee) + "\n" )
f.write( MOL.save_string_xyz() )
f.close()
--------------------------------------------------------------------------

    Molecular point group: c1
  Charge       = 0
  Multiplicity = 1
  Basis Set: CC-PVTZ
  Basis Set:
  @DF-RHF Final Energy:  -251.44546498005678
    Total Energy =                       -251.4454649800567836
    Molecular point group: c1
  Basis Set: CC-PVTZ
  Basis Set:
  Basis Set: CC-PVTZ
  Basis Set:
  @DF-RHF Final Energy:  -251.44573331619685
    Total Energy =                       -251.4457333161969927
  Basis Set: CC-PVTZ
  Basis Set:
  Basis Set: CC-PVTZ
  Basis Set:
  @DF-RHF Final Energy:  -251.44578127512955
    Total Energy =                       -251.4457812751290930
  Basis Set: CC-PVTZ
  Basis Set:
  Basis Set: CC-PVTZ
  Basis Set:
  @DF-RHF Final Energy:  -251.44578313947559
    Total Energy =                       -251.4457831394757932
  Basis Set: CC-PVTZ
  Basis Set:
  Charge       = 0
  Multiplicity = 1
  Basis Set: CC-PVTZ
  Basis Set:

    Orbital Energies (a.u.)
    -----------------------

    Doubly Occupied:

       1A    -15.527211     2A    -11.237833     3A    -11.211752
       4A    -11.210741     5A    -11.207585     6A    -11.205314
       7A     -1.178330     8A     -1.074141     9A     -0.999083
      10A     -0.900855    11A     -0.813975    12A     -0.790396
      13A     -0.657981    14A     -0.650611    15A     -0.615226
      16A     -0.593731    17A     -0.560021    18A     -0.548523
      19A     -0.537121    20A     -0.494098    21A     -0.481293
      22A     -0.464966    23A     -0.460025    24A     -0.452399
      25A     -0.383040

  @DF-RHF Final Energy:  -251.44578346988655

   => Energetics <=

    Nuclear Repulsion Energy =            245.9723291305838018
    One-Electron Energy =                -826.3237269950595874
    Two-Electron Energy =                 328.9056143945892927
    DFT Exchange-Correlation Energy =       0.0000000000000000
    Empirical Dispersion Energy =           0.0000000000000000
    PCM Polarization Energy =               0.0000000000000000
    EFP Energy =                            0.0000000000000000
    Total Energy =                       -251.4457834698864644
    Molecular point group: c1
  Basis Set: CC-PVTZ
  Basis Set:

  -Total Gradient:
     Atom            X                  Y                   Z
    ------   -----------------  -----------------  -----------------
       1        0.000057886541     0.000000336846    -0.000016073464
       2       -0.000056367768     0.000063816969     0.000033497752
       3        0.002271567644    -0.002772278223    -0.004351741664
       4        0.000016035433    -0.000025674366     0.000013513525
       5       -0.003042811376     0.004344565939    -0.001721516532
       6       -0.001469209256     0.001626499200     0.003830076324
       7        0.000024669229    -0.000000905328     0.000043877810
       8        0.000042580922    -0.000052810038     0.000001259445
       9        0.002183289936    -0.003173573162     0.002129495497
      10       -0.000001209056    -0.000016449512     0.000020250409
      11       -0.000023499927     0.000020854532     0.000031686022
      12        0.000014207429    -0.000002919140     0.000007717289
      13        0.000003537243    -0.000014082234    -0.000002326975
      14       -0.000020861872    -0.000013956273    -0.000024757139
      15        0.000001531821     0.000009303867     0.000006788443
      16        0.000005640457     0.000003853316    -0.000000371177
      17       -0.000002650499     0.000006090409     0.000002293970
      18       -0.000008877637     0.000004979315    -0.000005735656
      19        0.000004540732    -0.000007652118     0.000002066123

  **** Optimization is complete! (in 5 steps) ****
    Final optimized geometry and variables:
    Molecular point group: c1

    Geometry (in Angstrom), charge = 0, multiplicity = 1:

    H            3.832269096664     0.502711081115    -0.458779724045
    N            3.034317678537    -0.092461639318    -0.531836741264
    C            1.877412745704     0.505700197680     0.113690892856
    H            3.275163879492    -0.958055612106    -0.094841437951
    C            0.652183275905    -0.401986671693     0.023319021030
    H            1.662704164532     1.456494671568    -0.362371114358
    H            2.057823455087     0.743100650861     1.163577655995
    C           -0.671038755798     0.349607632077     0.106583977782
    H            0.715824635884    -0.979312969173    -0.893242631470
    H            0.696565589125    -1.133141534384     0.828586386281
    C           -1.890575286389    -0.567388581959     0.107227599989
    H           -0.742065226356     1.039723923363    -0.730333410646
    H           -0.683596665701     0.960836895888     1.006706999793
    C           -3.211760749975     0.191675104526     0.170343112891
    H           -1.872656246026    -1.185951894984    -0.785804527716
    H           -1.826539702814    -1.249231361760     0.950802676973
    H           -3.321815881882     0.857054112833    -0.679522858278
    H           -4.056150427827    -0.488076814764     0.168934989910
    H           -3.274281212383     0.794481896800     1.070395301842

  Mulliken Charges: (a.u.)
   Center  Symbol    Alpha    Beta     Spin     Total
       1     H     0.43082  0.43082  0.00000  0.13837
       2     N     3.68585  3.68585  0.00000 -0.37169
       3     C     3.02658  3.02658  0.00000 -0.05317
       4     H     0.43111  0.43111  0.00000  0.13778
       5     C     3.08756  3.08756  0.00000 -0.17511
       6     H     0.45950  0.45950  0.00000  0.08100
       7     H     0.46839  0.46839  0.00000  0.06322
       8     C     3.09036  3.09036  0.00000 -0.18073
       9     H     0.44937  0.44937  0.00000  0.10127
      10     H     0.45878  0.45878  0.00000  0.08244
      11     C     3.08394  3.08394  0.00000 -0.16787
      12     H     0.45329  0.45329  0.00000  0.09342
      13     H     0.45626  0.45626  0.00000  0.08748
      14     C     3.15007  3.15007  0.00000 -0.30015
      15     H     0.45375  0.45375  0.00000  0.09250
      16     H     0.45507  0.45507  0.00000  0.08986
      17     H     0.45498  0.45498  0.00000  0.09004
      18     H     0.44862  0.44862  0.00000  0.10277
      19     H     0.45571  0.45571  0.00000  0.08857

   Total alpha = 25.00000, Total beta = 25.00000, Total charge = -0.00000
