                              Psi4 1.0.54 Driver

  ==> Input File <==

--------------------------------------------------------------------------
set {
	reference rhf
	basis cc-pvtz
}

set_num_threads( 4 )
memory 2 gb

molecule MOL {
0 1

H	 0.836945	 -5.034215	 -2.522058
O	 1.744518	 -4.849744	 -2.677337
C	 1.906471	 -3.516290	 -3.083471
C	 1.706496	 -2.511252	 -1.958930
H	 2.918218	 -3.442661	 -3.458874
H	 1.238238	 -3.288019	 -3.911606
C	 0.283757	 -2.463157	 -1.406346
H	 2.402036	 -2.745493	 -1.158610
H	 1.979036	 -1.528677	 -2.336642
C	 0.113298	 -1.420414	 -0.302504
H	 0.014473	 -3.441895	 -1.023514
H	 -0.409757	 -2.242047	 -2.215936
C	 -1.311023	 -1.277304	 0.237018
H	 0.785915	 -1.656570	 0.518498
H	 0.433243	 -0.455815	 -0.686758
C	 -2.041121	 -0.006551	 -0.194127
H	 -1.888548	 -2.136293	 -0.093331
H	 -1.289731	 -1.328757	 1.323321
C	 -3.489218	 0.042606	 0.286507
H	 -2.022185	 0.066287	 -1.279394
H	 -1.518764	 0.869305	 0.178730
C	 -4.219984	 1.311773	 -0.139038
H	 -4.022855	 -0.824300	 -0.093339
H	 -3.510372	 -0.038577	 1.370031
H	 -4.244251	 1.405725	 -1.219696
H	 -5.244345	 1.313233	 0.215630
H	 -3.732090	 2.196311	 0.257073

	symmetry c1
}
set optking {
	frozen_dihedral = ("
		14 10 13 16
	")
}

ee,wfn = optimize('scf', return_wfn=True)
oeprop( wfn, 'DIPOLE', 'QUADRUPOLE', 'MULLIKEN_CHARGES')
f=open( 'psi4out.xyz', 'w' )
f.write( "27  " )
f.write( str(ee) + "\n" )
f.write( MOL.save_string_xyz() )
f.close()
--------------------------------------------------------------------------

    Molecular point group: c1
  Charge       = 0
  Multiplicity = 1
  Basis Set: CC-PVTZ
  Basis Set:
  @DF-RHF Final Energy:  -388.42420663169844
    Total Energy =                       -388.4242066316982118
    Molecular point group: c1
  Basis Set: CC-PVTZ
  Basis Set:
  Basis Set: CC-PVTZ
  Basis Set:
  @DF-RHF Final Energy:  -388.42461687259288
    Total Energy =                       -388.4246168725929920
  Basis Set: CC-PVTZ
  Basis Set:
  Basis Set: CC-PVTZ
  Basis Set:
  @DF-RHF Final Energy:  -388.42466635870585
    Total Energy =                       -388.4246663587064177
  Basis Set: CC-PVTZ
  Basis Set:
  Basis Set: CC-PVTZ
  Basis Set:
  @DF-RHF Final Energy:  -388.42467558498601
    Total Energy =                       -388.4246755849865167
  Basis Set: CC-PVTZ
  Basis Set:
  Basis Set: CC-PVTZ
  Basis Set:
  @DF-RHF Final Energy:  -388.42467907570636
    Total Energy =                       -388.4246790757058534
  Basis Set: CC-PVTZ
  Basis Set:
  Charge       = 0
  Multiplicity = 1
  Basis Set: CC-PVTZ
  Basis Set:

    Orbital Energies (a.u.)
    -----------------------

    Doubly Occupied:

       1A    -20.545281     2A    -11.265097     3A    -11.217942
       4A    -11.214095     5A    -11.213817     6A    -11.213259
       7A    -11.212939     8A    -11.212356     9A    -11.207441
      10A     -1.363246    11A     -1.095167    12A     -1.063426
      13A     -1.011914    14A     -0.950983    15A     -0.884511
      16A     -0.821480    17A     -0.794998    18A     -0.788859
      19A     -0.696562    20A     -0.650926    21A     -0.638447
      22A     -0.616351    23A     -0.604931    24A     -0.581712
      25A     -0.581122    26A     -0.554961    27A     -0.539924
      28A     -0.522472    29A     -0.507669    30A     -0.502995
      31A     -0.479326    32A     -0.475746    33A     -0.470992
      34A     -0.463293    35A     -0.452211    36A     -0.442385
      37A     -0.424431

  @DF-RHF Final Energy:  -388.42467925563000

   => Energetics <=

    Nuclear Repulsion Energy =            455.1257541350133238
    One-Electron Energy =               -1428.5343204293735653
    Two-Electron Energy =                 584.9838870387297902
    DFT Exchange-Correlation Energy =       0.0000000000000000
    Empirical Dispersion Energy =           0.0000000000000000
    PCM Polarization Energy =               0.0000000000000000
    EFP Energy =                            0.0000000000000000
    Total Energy =                       -388.4246792556305081
    Molecular point group: c1
  Basis Set: CC-PVTZ
  Basis Set:

  -Total Gradient:
     Atom            X                  Y                   Z
    ------   -----------------  -----------------  -----------------
       1        0.000002844519    -0.000004837261    -0.000001394406
       2       -0.000021744189    -0.000002039503     0.000013338788
       3        0.000024524749     0.000014312087    -0.000004403966
       4        0.000002141025    -0.000008262730    -0.000003119432
       5       -0.000001054717     0.000004669515    -0.000004410068
       6        0.000001057998    -0.000002587615     0.000006772930
       7       -0.000006436039     0.000001181480    -0.000000226987
       8        0.000000726025     0.000000610858    -0.000005376527
       9       -0.000001153076    -0.000003987691    -0.000001187712
      10       -0.000137416966    -0.002458431652     0.000042956209
      11       -0.000003070458     0.000001576042    -0.000004999166
      12        0.000004335094     0.000003567332     0.000001581682
      13       -0.000675831866    -0.000553158803    -0.001808172710
      14        0.000279508140     0.002232375403     0.000399261107
      15       -0.000001873612    -0.000003310788    -0.000002509755
      16        0.000543693371     0.000789428963     0.001361809623
      17       -0.000002289709     0.000002125142     0.000000399240
      18       -0.000000192117     0.000001815771     0.000003299262
      19       -0.000010163047    -0.000001733622     0.000002231028
      20        0.000004160016     0.000000528941     0.000005590544
      21        0.000001461708    -0.000007979948    -0.000000089081
      22        0.000000372374    -0.000007546318    -0.000000178977
      23       -0.000003499104     0.000004605071     0.000003375738
      24       -0.000002439344     0.000001163294    -0.000005901377
      25       -0.000000161054     0.000000477932     0.000004319502
      26        0.000003845455     0.000000740606    -0.000001322514
      27       -0.000001345170    -0.000005302511    -0.000001642978

  **** Optimization is complete! (in 6 steps) ****
    Final optimized geometry and variables:
    Molecular point group: c1

    Geometry (in Angstrom), charge = 0, multiplicity = 1:

    H            1.438037111683    -3.310688528862    -1.480153953769
    O            2.346449526876    -3.126324992929    -1.629940994668
    C            2.513563878363    -1.787215248557    -2.014263936218
    C            2.299996845911    -0.798898242788    -0.877466365173
    H            3.529711719326    -1.708544949894    -2.376388157682
    H            1.855342989780    -1.546497813748    -2.846859817657
    C            0.872069208555    -0.759813810594    -0.340173134273
    H            2.986852530684    -1.043943420990    -0.072948226105
    H            2.575272882931     0.189498200896    -1.237585384825
    C            0.676988808007     0.261057790112     0.778367339454
    H            0.594185253924    -1.741197129507     0.034864913957
    H            0.185983395080    -0.533465398459    -1.154510628293
    C           -0.771623352735     0.349546602683     1.295279177542
    H            1.351211447319     0.031899998985     1.597090940169
    H            0.987153727771     1.237718802277     0.416859035424
    C           -1.503265411995     1.615521264187     0.853978401288
    H           -1.331368057581    -0.521532286491     0.966629061151
    H           -0.775730433230     0.312140388297     2.380088726952
    C           -2.951106000479     1.679135933908     1.330520980350
    H           -1.480350463037     1.687530672575    -0.231565944306
    H           -0.964605557605     2.483556187909     1.225923586583
    C           -3.669941855756     2.952983884548     0.898595211577
    H           -3.491558384702     0.815320321645     0.952957304726
    H           -2.975216197331     1.602229855687     2.414223880328
    H           -3.693160558616     3.042015097454    -0.182510116811
    H           -4.694271656475     2.965916327386     1.252941672960
    H           -3.173564517870     3.834519256280     1.290577076843

  Mulliken Charges: (a.u.)
   Center  Symbol    Alpha    Beta     Spin     Total
       1     H     0.39233  0.39233  0.00000  0.21534
       2     O     4.20567  4.20567  0.00000 -0.41135
       3     C     2.97996  2.97996  0.00000  0.04009
       4     C     3.09014  3.09014  0.00000 -0.18029
       5     H     0.44845  0.44845  0.00000  0.10309
       6     H     0.47003  0.47003  0.00000  0.05995
       7     C     3.09979  3.09979  0.00000 -0.19958
       8     H     0.45092  0.45092  0.00000  0.09815
       9     H     0.45535  0.45535  0.00000  0.08929
      10     C     3.10008  3.10008  0.00000 -0.20015
      11     H     0.45630  0.45630  0.00000  0.08740
      12     H     0.45332  0.45332  0.00000  0.09335
      13     C     3.09947  3.09947  0.00000 -0.19895
      14     H     0.44512  0.44512  0.00000  0.10977
      15     H     0.45416  0.45416  0.00000  0.09169
      16     C     3.08398  3.08398  0.00000 -0.16795
      17     H     0.45536  0.45536  0.00000  0.08928
      18     H     0.44696  0.44696  0.00000  0.10608
      19     C     3.08543  3.08543  0.00000 -0.17087
      20     H     0.45559  0.45559  0.00000  0.08883
      21     H     0.45386  0.45386  0.00000  0.09229
      22     C     3.14989  3.14989  0.00000 -0.29978
      23     H     0.45442  0.45442  0.00000  0.09116
      24     H     0.45449  0.45449  0.00000  0.09101
      25     H     0.45546  0.45546  0.00000  0.08908
      26     H     0.44834  0.44834  0.00000  0.10333
      27     H     0.45513  0.45513  0.00000  0.08974

   Total alpha = 37.00000, Total beta = 37.00000, Total charge =  0.00000

*** Psi4 exiting successfully. Buy a developer a beer!
