  ==> Input File <==

--------------------------------------------------------------------------
set {
	reference rhf
	basis 6-31G*
}

set_num_threads( 1 )
memory 2 gb

molecule MOL {
0 1

H	 1.921121	 1.613867	 0.527984
O	 1.035413	 1.265190	 0.555066
C	 1.050492	 0.053836	 0.000068
C	 -0.318135	 -0.576402	 0.000164
O	 2.045287	 -0.432247	 -0.430169
C	 -1.454360	 0.441875	 -0.000474
H	 -0.374042	 -1.230163	 -0.866135
H	 -0.374274	 -1.229227	 0.867154
C	 -2.826123	 -0.230780	 0.000056
H	 -1.357605	 1.085198	 -0.868380
H	 -1.357504	 1.086451	 0.866496
H	 -2.959731	 -0.858053	 -0.876869
H	 -3.619374	 0.509403	 -0.000080
H	 -2.959371	 -0.857318	 0.877556

	symmetry c1
}
set optking {
	frozen_dihedral = ("
		7 4 6 10,
		1 2 3 5
	")
}

ee = energy('scf')
oeprop('DIPOLE', 'QUADRUPOLE', 'MULLIKEN_CHARGES')
f=open( 'psi4out.xyz', 'w' )
f.write( "14  " )
f.write( str(ee) + "\n" )
f.write( MOL.save_string_xyz() )
f.close()
--------------------------------------------------------------------------

    Molecular point group: c1

    Geometry (in Angstrom), charge = 0, multiplicity = 1:

       Center              X                  Y                   Z               Mass
    ------------   -----------------  -----------------  -----------------  -----------------
           H          1.971880144478     1.503633830242     0.499281324349     1.007825032070
           O          1.086172144478     1.154956830242     0.526363324349    15.994914619560
           C          1.101251144478    -0.056397169758    -0.028634675651    12.000000000000
           C         -0.267375855522    -0.686635169758    -0.028538675651    12.000000000000
           O          2.096046144478    -0.542480169758    -0.458871675651    15.994914619560
           C         -1.403600855522     0.331641830242    -0.029176675651    12.000000000000
           H         -0.323282855522    -1.340396169758    -0.894837675651     1.007825032070
           H         -0.323514855522    -1.339460169758     0.838451324349     1.007825032070
           C         -2.775363855522    -0.341013169758    -0.028646675651    12.000000000000
           H         -1.306845855522     0.974964830242    -0.897082675651     1.007825032070
           H         -1.306744855522     0.976217830242     0.837793324349     1.007825032070
           H         -2.908971855522    -0.968286169758    -0.905571675651     1.007825032070
           H         -3.568614855522     0.399169830242    -0.028782675651     1.007825032070
           H         -2.908611855522    -0.967551169758     0.848853324349     1.007825032070

  Charge       = 0
  Multiplicity = 1
  Basis Set: 6-31G*
  Basis Set:

    Orbital Energies (a.u.)
    -----------------------

    Doubly Occupied:

       1A    -20.614328     2A    -20.549707     3A    -11.381693
       4A    -11.240783     5A    -11.228644     6A    -11.218669
       7A     -1.475521     8A     -1.365447     9A     -1.086413
      10A     -0.978209    11A     -0.845044    12A     -0.818533
      13A     -0.700609    14A     -0.681769    15A     -0.661360
      16A     -0.617774    17A     -0.590059    18A     -0.565784
      19A     -0.548835    20A     -0.524003    21A     -0.498448
      22A     -0.487627    23A     -0.470405    24A     -0.437063

  @DF-RHF Final Energy:  -305.87767979232069

   => Energetics <=

    Nuclear Repulsion Energy =            241.4503499788357033
    One-Electron Energy =                -895.4826065186175583
    Two-Electron Energy =                 348.1545767474610784
    DFT Exchange-Correlation Energy =       0.0000000000000000
    Empirical Dispersion Energy =           0.0000000000000000
    PCM Polarization Energy =               0.0000000000000000
    EFP Energy =                            0.0000000000000000
    Total Energy =                       -305.8776797923208051

  Mulliken Charges: (a.u.)
   Center  Symbol    Alpha    Beta     Spin     Total
       1     H     0.26742  0.26742  0.00000  0.46517
       2     O     4.34843  4.34843  0.00000 -0.69685
       3     C     2.62210  2.62210  0.00000  0.75580
       4     C     3.21154  3.21154  0.00000 -0.42307
       5     O     4.28138  4.28138  0.00000 -0.56276
       6     C     3.15645  3.15645  0.00000 -0.31291
       7     H     0.39669  0.39669  0.00000  0.20662
       8     H     0.39803  0.39803  0.00000  0.20394
       9     C     3.24269  3.24269  0.00000 -0.48539
      10     H     0.41512  0.41512  0.00000  0.16976
      11     H     0.40528  0.40528  0.00000  0.18943
      12     H     0.41981  0.41981  0.00000  0.16039
      13     H     0.41496  0.41496  0.00000  0.17009
      14     H     0.42010  0.42010  0.00000  0.15979

   Total alpha = 24.00000, Total beta = 24.00000, Total charge =  0.00000
