  ==> Input File <==

--------------------------------------------------------------------------
set {
	reference rhf
	basis 6-31G*
}

set_num_threads( 1 )
memory 2 gb

molecule MOL {
0 1

O	 -2.672011	 -0.675055	 0.503782
C	 -1.921153	 0.064240	 -0.045697
C	 -2.295884	 1.004302	 -1.159343
O	 -0.632575	 0.154573	 0.251549
H	 -1.711422	 0.776335	 -2.043301
H	 -3.348987	 0.907064	 -1.376950
H	 -2.068973	 2.023820	 -0.869769
C	 0.160891	 -1.019931	 0.106212
C	 1.589627	 -0.672828	 0.480843
H	 0.089836	 -1.367806	 -0.916050
H	 -0.238459	 -1.792301	 0.749618
C	 2.246377	 0.346236	 -0.452210
H	 2.163194	 -1.597435	 0.473358
H	 1.604769	 -0.303424	 1.502885
C	 3.691736	 0.652107	 -0.061850
H	 2.219579	 -0.032311	 -1.472055
H	 1.666466	 1.263317	 -0.447249
H	 4.134505	 1.377213	 -0.737283
H	 4.305508	 -0.243868	 -0.089969
H	 3.748266	 1.059562	 0.943567

	symmetry c1
}
set optking {
	frozen_dihedral = ("
		16 12 9 8,
		2 4 8 10,
		12 9 8 10
	")
}

ee = energy('scf')
oeprop('DIPOLE', 'QUADRUPOLE', 'MULLIKEN_CHARGES')
f=open( 'psi4out.xyz', 'w' )
f.write( "20  " )
f.write( str(ee) + "\n" )
f.write( MOL.save_string_xyz() )
f.close()
--------------------------------------------------------------------------

    Molecular point group: c1

    Geometry (in Angstrom), charge = 0, multiplicity = 1:

       Center              X                  Y                   Z               Mass
    ------------   -----------------  -----------------  -----------------  -----------------
           O         -2.684632536122    -0.659986669224     0.553916496247    15.994914619560
           C         -1.933774536122     0.079308330776     0.004437496247    12.000000000000
           C         -2.308505536122     1.019370330776    -1.109208503753    12.000000000000
           O         -0.645196536122     0.169641330776     0.301683496247    15.994914619560
           H         -1.724043536122     0.791403330776    -1.993166503753     1.007825032070
           H         -3.361608536122     0.922132330776    -1.326815503753     1.007825032070
           H         -2.081594536122     2.038888330776    -0.819634503753     1.007825032070
           C          0.148269463878    -1.004862669224     0.156346496247    12.000000000000
           C          1.577005463878    -0.657759669224     0.530977496247    12.000000000000
           H          0.077214463878    -1.352737669224    -0.865915503753     1.007825032070
           H         -0.251080536122    -1.777232669224     0.799752496247     1.007825032070
           C          2.233755463878     0.361304330776    -0.402075503753    12.000000000000
           H          2.150572463878    -1.582366669224     0.523492496247     1.007825032070
           H          1.592147463878    -0.288355669224     1.553019496247     1.007825032070
           C          3.679114463878     0.667175330776    -0.011715503753    12.000000000000
           H          2.206957463878    -0.017242669224    -1.421920503753     1.007825032070
           H          1.653844463878     1.278385330776    -0.397114503753     1.007825032070
           H          4.121883463878     1.392281330776    -0.687148503753     1.007825032070
           H          4.292886463878    -0.228799669224    -0.039834503753     1.007825032070
           H          3.735644463878     1.074630330776     0.993701496247     1.007825032070

  Charge       = 0
  Multiplicity = 1
  Basis Set: 6-31G*
  Basis Set:

    Orbital Energies (a.u.)
    -----------------------

    Doubly Occupied:

       1A    -20.587995     2A    -20.550641     3A    -11.375271
       4A    -11.291078     5A    -11.233462     6A    -11.228413
       7A    -11.222789     8A    -11.214959     9A     -1.463862
      10A     -1.364232    11A     -1.087224    12A     -1.025595
      13A     -0.986067    14A     -0.883692    15A     -0.812623
      16A     -0.778775    17A     -0.693731    18A     -0.684473
      19A     -0.655115    20A     -0.635247    21A     -0.610325
      22A     -0.594062    23A     -0.572485    24A     -0.562230
      25A     -0.546582    26A     -0.528355    27A     -0.503592
      28A     -0.485769    29A     -0.478454    30A     -0.475387
      31A     -0.447419    32A     -0.436395

  @DF-RHF Final Energy:  -383.93091911602568

   => Energetics <=

    Nuclear Repulsion Energy =            385.4334365939479881
    One-Electron Energy =               -1286.6964038757778326
    Two-Electron Energy =                 517.3320481658026893
    DFT Exchange-Correlation Energy =       0.0000000000000000
    Empirical Dispersion Energy =           0.0000000000000000
    PCM Polarization Energy =               0.0000000000000000
    EFP Energy =                            0.0000000000000000
    Total Energy =                       -383.9309191160270984

  Mulliken Charges: (a.u.)
   Center  Symbol    Alpha    Beta     Spin     Total
       1     O     4.26631  4.26631  0.00000 -0.53262
       2     C     2.62222  2.62222  0.00000  0.75555
       3     C     3.28357  3.28357  0.00000 -0.56713
       4     O     4.31269  4.31269  0.00000 -0.62538
       5     H     0.40544  0.40544  0.00000  0.18912
       6     H     0.39888  0.39888  0.00000  0.20224
       7     H     0.39954  0.39954  0.00000  0.20091
       8     C     3.00442  3.00442  0.00000 -0.00883
       9     C     3.16452  3.16452  0.00000 -0.32904
      10     H     0.42148  0.42148  0.00000  0.15703
      11     H     0.40267  0.40267  0.00000  0.19465
      12     C     3.15515  3.15515  0.00000 -0.31030
      13     H     0.41849  0.41849  0.00000  0.16302
      14     H     0.41002  0.41002  0.00000  0.17996
      15     C     3.24060  3.24060  0.00000 -0.48119
      16     H     0.42493  0.42493  0.00000  0.15014
      17     H     0.41049  0.41049  0.00000  0.17902
      18     H     0.41743  0.41743  0.00000  0.16514
      19     H     0.42168  0.42168  0.00000  0.15663
      20     H     0.41946  0.41946  0.00000  0.16108

   Total alpha = 32.00000, Total beta = 32.00000, Total charge = -0.00000
