  ==> Input File <==

--------------------------------------------------------------------------
set {
	reference rhf
	basis 6-31G*
}

set_num_threads( 4 )
memory 2 gb

molecule MOL {
0 1

H	 2.280918	 2.645621	 -2.624566
N	 1.519897	 1.994839	 -2.654138
C	 1.076142	 1.658336	 -1.309009
H	 1.856095	 1.177748	 -3.127597
C	 -0.143718	 0.744449	 -1.359069
H	 0.810072	 2.584343	 -0.808432
H	 1.856287	 1.188770	 -0.704625
C	 -0.679275	 0.379305	 0.025956
H	 -0.916656	 1.235845	 -1.942961
H	 0.116321	 -0.166983	 -1.896665
C	 -1.903357	 -0.536963	 -0.023547
H	 -0.936561	 1.289928	 0.564862
H	 0.106099	 -0.104837	 0.604438
C	 -3.225172	 0.228290	 0.028445
H	 -1.867824	 -1.134999	 -0.931459
H	 -1.860449	 -1.239604	 0.805977
H	 -3.313397	 0.915643	 -0.808262
H	 -4.073500	 -0.448134	 -0.008893
H	 -3.306061	 0.809945	 0.942516

	symmetry c1
}
set optking {
	frozen_dihedral = ("
		12 8 11 15
	")
}

ee = optimize('scf')
oeprop('DIPOLE', 'QUADRUPOLE', 'MULLIKEN_CHARGES')
f=open( 'psi4out.xyz', 'w' )
f.write( "19  " )
f.write( str(ee) + "\n" )
f.write( MOL.save_string_xyz() )
f.close()
--------------------------------------------------------------------------

    Molecular point group: c1
  Charge       = 0
  Multiplicity = 1
  Basis Set: 6-31G*
  Basis Set:
  @DF-RHF Final Energy:  -251.34780638219289
    Total Energy =                       -251.3478063821928004
    Molecular point group: c1
  Basis Set: 6-31G*
  Basis Set:
  Basis Set: 6-31G*
  Basis Set:
  @DF-RHF Final Energy:  -251.34806900551226
    Total Energy =                       -251.3480690055124569
  Basis Set: 6-31G*
  Basis Set:
  Basis Set: 6-31G*
  Basis Set:
  @DF-RHF Final Energy:  -251.34815452260474
    Total Energy =                       -251.3481545226049434
  Basis Set: 6-31G*
  Basis Set:
  Charge       = 0
  Multiplicity = 1
  Basis Set: 6-31G*
  Basis Set:

    Orbital Energies (a.u.)
    -----------------------

    Doubly Occupied:

       1A    -15.532535     2A    -11.239629     3A    -11.213827
       4A    -11.212658     5A    -11.209538     6A    -11.206532
       7A     -1.176588     8A     -1.071629     9A     -0.995826
      10A     -0.900622    11A     -0.817934    12A     -0.784060
      13A     -0.664179    14A     -0.636628    15A     -0.609910
      16A     -0.594490    17A     -0.583871    18A     -0.535575
      19A     -0.519634    20A     -0.507141    21A     -0.485611
      22A     -0.462574    23A     -0.454998    24A     -0.448893
      25A     -0.381049

  @DF-RHF Final Energy:  -251.34815453228902

   => Energetics <=

    Nuclear Repulsion Energy =            247.9128244510805530
    One-Electron Energy =                -830.0300949987808963
    Two-Electron Energy =                 330.7691160154114414
    DFT Exchange-Correlation Energy =       0.0000000000000000
    Empirical Dispersion Energy =           0.0000000000000000
    PCM Polarization Energy =               0.0000000000000000
    EFP Energy =                            0.0000000000000000
    Total Energy =                       -251.3481545322889588
    Molecular point group: c1
  Basis Set: 6-31G*
  Basis Set:

  -Total Gradient:
     Atom            X                  Y                   Z
    ------   -----------------  -----------------  -----------------
       1        0.000001650740     0.000017548433    -0.000020967442
       2       -0.000016398020     0.000049604772     0.000014600334
       3        0.000029035914    -0.000031308442     0.000004932688
       4       -0.000008158977    -0.000003097340     0.000017648975
       5       -0.000011570361    -0.000076519639     0.000025348500
       6        0.000019829656     0.000006582822     0.000005965384
       7        0.000011962729     0.000005445064    -0.000006932665
       8        0.000726799643    -0.001192403317     0.003170958837
       9       -0.000009047424    -0.000057444174    -0.000019531836
      10        0.000031574175     0.000012925279    -0.000014990282
      11        0.001801690810    -0.002649503663     0.001330810024
      12       -0.000933953119     0.001461704935    -0.002844734505
      13       -0.000024629335    -0.000021302750    -0.000041369604
      14        0.000021647323     0.000005344484     0.000030432211
      15       -0.001628018039     0.002432114117    -0.001648084132
      16        0.000016105569     0.000029967057    -0.000005780633
      17       -0.000005092721    -0.000007869263     0.000002310397
      18       -0.000012104263    -0.000002406387     0.000006087192
      19       -0.000011324298     0.000020618014    -0.000006703442

  **** Optimization is complete! (in 4 steps) ****
    Final optimized geometry and variables:
    Molecular point group: c1

    Geometry (in Angstrom), charge = 0, multiplicity = 1:

    H            2.765041691214     1.922276477201    -1.732096868906
    N            2.026093846149     1.246276055393    -1.755380740536
    C            1.591695333189     0.909588164191    -0.407161312426
    H            2.389892586047     0.435764690682    -2.219659445903
    C            0.402704584058    -0.044191371081    -0.448500210175
    H            1.295067472750     1.831728948327     0.083383173790
    H            2.386015589751     0.472271716497     0.203128264949
    C           -0.116481805466    -0.419628174092     0.942865174269
    H           -0.385442048293     0.417747044915    -1.036062671166
    H            0.691455475613    -0.950625478624    -0.979526590231
    C           -1.373893930615    -1.306994275747     0.898012595396
    H           -0.345788454149     0.499161296560     1.479369839590
    H            0.674975482461    -0.919343257867     1.495323431044
    C           -2.675833136669    -0.502114778029     0.913832149188
    H           -1.358043872091    -1.908451638098    -0.007707375921
    H           -1.374921949059    -1.997244452442     1.736396158907
    H           -2.716453190418     0.201204589988     0.087072571654
    H           -3.540989985752    -1.153433711327     0.833849200002
    H           -2.772709206090     0.065808723713     1.834761259264

  Mulliken Charges: (a.u.)
   Center  Symbol    Alpha    Beta     Spin     Total
       1     H     0.33249  0.33249  0.00000  0.33502
       2     N     3.92187  3.92187  0.00000 -0.84374
       3     C     3.06039  3.06039  0.00000 -0.12077
       4     H     0.33535  0.33535  0.00000  0.32931
       5     C     3.15339  3.15339  0.00000 -0.30678
       6     H     0.42087  0.42087  0.00000  0.15826
       7     H     0.43486  0.43486  0.00000  0.13029
       8     C     3.15807  3.15807  0.00000 -0.31613
       9     H     0.41283  0.41283  0.00000  0.17435
      10     H     0.42733  0.42733  0.00000  0.14533
      11     C     3.15371  3.15371  0.00000 -0.30742
      12     H     0.42254  0.42254  0.00000  0.15493
      13     H     0.42169  0.42169  0.00000  0.15662
      14     C     3.24048  3.24048  0.00000 -0.48095
      15     H     0.42140  0.42140  0.00000  0.15720
      16     H     0.42041  0.42041  0.00000  0.15919
      17     H     0.42018  0.42018  0.00000  0.15963
      18     H     0.42019  0.42019  0.00000  0.15961
      19     H     0.42198  0.42198  0.00000  0.15605

   Total alpha = 25.00000, Total beta = 25.00000, Total charge =  0.00000
