  ==> Input File <==

--------------------------------------------------------------------------
set {
	reference rhf
	basis 6-31G*
}

set_num_threads( 1 )
memory 2 gb

molecule MOL {
0 1

O	 -1.264440	 0.662525	 -0.942055
C	 -1.083277	 0.139568	 0.115197
C	 0.323299	 -0.082943	 0.642902
C	 -2.233551	 -0.348434	 0.967578
C	 1.355627	 -0.005344	 -0.493127
H	 0.396251	 -1.044647	 1.143147
H	 0.528637	 0.693580	 1.371677
C	 2.786168	 -0.195604	 0.007473
H	 1.132807	 -0.760304	 -1.243899
H	 1.259610	 0.958506	 -0.981915
H	 3.495561	 -0.130713	 -0.811210
H	 2.912696	 -1.165395	 0.480041
H	 3.049284	 0.565503	 0.735850
H	 -2.082321	 -1.382546	 1.263230
H	 -3.163057	 -0.253952	 0.423678
H	 -2.287706	 0.240735	 1.879253

	symmetry c1
}
set optking {
	frozen_dihedral = ("
		9 5 3 2
	")
}

ee = energy('scf')
oeprop('DIPOLE', 'QUADRUPOLE', 'MULLIKEN_CHARGES')
f=open( 'psi4out.xyz', 'w' )
f.write( "16  " )
f.write( str(ee) + "\n" )
f.write( MOL.save_string_xyz() )
f.close()
--------------------------------------------------------------------------

    Molecular point group: c1

    Geometry (in Angstrom), charge = 0, multiplicity = 1:

       Center              X                  Y                   Z               Mass
    ------------   -----------------  -----------------  -----------------  -----------------
           O         -1.250932434819     0.634794188211    -0.989751308012    15.994914619560
           C         -1.069769434819     0.111837188211     0.067500691988    12.000000000000
           C          0.336806565181    -0.110673811789     0.595205691988    12.000000000000
           C         -2.220043434819    -0.376164811789     0.919881691988    12.000000000000
           C          1.369134565181    -0.033074811789    -0.540823308012    12.000000000000
           H          0.409758565181    -1.072377811789     1.095450691988     1.007825032070
           H          0.542144565181     0.665849188211     1.323980691988     1.007825032070
           C          2.799675565181    -0.223334811789    -0.040223308012    12.000000000000
           H          1.146314565181    -0.788034811789    -1.291595308012     1.007825032070
           H          1.273117565181     0.930775188211    -1.029611308012     1.007825032070
           H          3.509068565181    -0.158443811789    -0.858906308012     1.007825032070
           H          2.926203565181    -1.193125811789     0.432344691988     1.007825032070
           H          3.062791565181     0.537772188211     0.688153691988     1.007825032070
           H         -2.068813434819    -1.410276811789     1.215533691988     1.007825032070
           H         -3.149549434819    -0.281682811789     0.375981691988     1.007825032070
           H         -2.274198434819     0.213004188211     1.831556691988     1.007825032070

  Charge       = 0
  Multiplicity = 1
  Basis Set: 6-31G*
  Basis Set:

    Orbital Energies (a.u.)
    -----------------------

    Doubly Occupied:

       1A    -20.550224     2A    -11.326576     3A    -11.231423
       4A    -11.229273     5A    -11.219054     6A    -11.212065
       7A     -1.396321     8A     -1.074781     9A     -1.015165
      10A     -0.946952    11A     -0.820924    12A     -0.732259
      13A     -0.656690    14A     -0.650453    15A     -0.623198
      16A     -0.598244    17A     -0.568190    18A     -0.558915
      19A     -0.547728    20A     -0.498047    21A     -0.489699
      22A     -0.478225    23A     -0.477265    24A     -0.401282

  @DF-RHF Final Energy:  -270.03087486957475

   => Energetics <=

    Nuclear Repulsion Energy =            237.3298617266878807
    One-Electron Energy =                -836.1156251064121534
    Two-Electron Energy =                 328.7548885101488736
    DFT Exchange-Correlation Energy =       0.0000000000000000
    Empirical Dispersion Energy =           0.0000000000000000
    PCM Polarization Energy =               0.0000000000000000
    EFP Energy =                            0.0000000000000000
    Total Energy =                       -270.0308748695753707

  Mulliken Charges: (a.u.)
   Center  Symbol    Alpha    Beta     Spin     Total
       1     O     4.26131  4.26131  0.00000 -0.52262
       2     C     2.73699  2.73699  0.00000  0.52601
       3     C     3.20869  3.20869  0.00000 -0.41737
       4     C     3.28617  3.28617  0.00000 -0.57235
       5     C     3.15004  3.15004  0.00000 -0.30008
       6     H     0.41275  0.41275  0.00000  0.17450
       7     H     0.40551  0.40551  0.00000  0.18897
       8     C     3.24111  3.24111  0.00000 -0.48222
       9     H     0.41638  0.41638  0.00000  0.16723
      10     H     0.40574  0.40574  0.00000  0.18852
      11     H     0.41612  0.41612  0.00000  0.16777
      12     H     0.42344  0.42344  0.00000  0.15311
      13     H     0.42251  0.42251  0.00000  0.15498
      14     H     0.40944  0.40944  0.00000  0.18111
      15     H     0.39651  0.39651  0.00000  0.20698
      16     H     0.40727  0.40727  0.00000  0.18545

   Total alpha = 24.00000, Total beta = 24.00000, Total charge =  0.00000
