  ==> Input File <==

--------------------------------------------------------------------------
set {
	reference rhf
	basis 6-31G*
}

set_num_threads( 4 )
memory 2 gb

molecule MOL {
0 1

H	 -2.098997	 -0.674324	 -0.616650
O	 -2.035884	 -0.060112	 0.102722
C	 -0.955155	 0.788182	 -0.092531
C	 0.353668	 0.040312	 -0.004810
H	 -0.985057	 1.290372	 -1.054184
H	 -0.974469	 1.533190	 0.688632
F	 0.969402	 0.036003	 -1.181851
F	 1.160777	 0.620843	 0.868550
F	 0.194072	 -1.214664	 0.362768

	symmetry c1
}
set optking {
	frozen_dihedral = ("
		7 4 3 5
	")
}

ee = optimize('scf')
oeprop('DIPOLE', 'QUADRUPOLE', 'MULLIKEN_CHARGES')
f=open( 'psi4out.xyz', 'w' )
f.write( "9  " )
f.write( str(ee) + "\n" )
f.write( MOL.save_string_xyz() )
f.close()
--------------------------------------------------------------------------

    Molecular point group: c1
  Charge       = 0
  Multiplicity = 1
  Basis Set: 6-31G*
  Basis Set:
  @DF-RHF Final Energy:  -450.65456689152415
    Total Energy =                       -450.6545668915241549
    Molecular point group: c1
  Basis Set: 6-31G*
  Basis Set:
  Basis Set: 6-31G*
  Basis Set:
  @DF-RHF Final Energy:  -450.65493547206574
    Total Energy =                       -450.6549354720656879
  Basis Set: 6-31G*
  Basis Set:
  Basis Set: 6-31G*
  Basis Set:
  @DF-RHF Final Energy:  -450.65537276148598
    Total Energy =                       -450.6553727614858076
  Basis Set: 6-31G*
  Basis Set:
  Basis Set: 6-31G*
  Basis Set:
  @DF-RHF Final Energy:  -450.65538241742320
    Total Energy =                       -450.6553824174231977
  Basis Set: 6-31G*
  Basis Set:
  Basis Set: 6-31G*
  Basis Set:
  @DF-RHF Final Energy:  -450.65538374012721
    Total Energy =                       -450.6553837401272062
  Basis Set: 6-31G*
  Basis Set:
  Charge       = 0
  Multiplicity = 1
  Basis Set: 6-31G*
  Basis Set:

    Orbital Energies (a.u.)
    -----------------------

    Doubly Occupied:

       1A    -26.341918     2A    -26.339277     3A    -26.339250
       4A    -20.589413     5A    -11.500996     6A    -11.309813
       7A     -1.739457     8A     -1.637698     9A     -1.634330
      10A     -1.400968    11A     -1.042278    12A     -0.923467
      13A     -0.828207    14A     -0.826762    15A     -0.805876
      16A     -0.725265    17A     -0.711571    18A     -0.697745
      19A     -0.662685    20A     -0.657355    21A     -0.640380
      22A     -0.626624    23A     -0.610315    24A     -0.526628
      25A     -0.479792

  @DF-RHF Final Energy:  -450.65538394896532

   => Energetics <=

    Nuclear Repulsion Energy =            275.8261186346976501
    One-Electron Energy =               -1173.7668662113717346
    Two-Electron Energy =                 447.2853636277088185
    DFT Exchange-Correlation Energy =       0.0000000000000000
    Empirical Dispersion Energy =           0.0000000000000000
    PCM Polarization Energy =               0.0000000000000000
    EFP Energy =                            0.0000000000000000
    Total Energy =                       -450.6553839489652660
    Molecular point group: c1
  Basis Set: 6-31G*
  Basis Set:

  -Total Gradient:
     Atom            X                  Y                   Z
    ------   -----------------  -----------------  -----------------
       1       -0.000000075528     0.000008907711    -0.000001387523
       2        0.000029283029    -0.000010771128     0.000008372720
       3        0.000758090354     0.001444377101     0.000672616750
       4       -0.000737173363    -0.001404914657    -0.000430343570
       5       -0.000494471413    -0.000967060645    -0.000492494399
       6        0.000000545148    -0.000000763837     0.000001344539
       7        0.000459439728     0.000871650161     0.000243332501
       8       -0.000011143740     0.000011892727    -0.000002905095
       9       -0.000004494214     0.000046682563     0.000001464074

  **** Optimization is complete! (in 6 steps) ****
    Final optimized geometry and variables:
    Molecular point group: c1

    Geometry (in Angstrom), charge = 0, multiplicity = 1:

    H           -2.141755572775    -0.682771081386    -0.609146694004
    O           -2.078841221986    -0.045236383509     0.089056043316
    C           -0.978561724897     0.778833592672    -0.098633077672
    C            0.357149420587     0.031526942285    -0.006383192446
    H           -1.006602323555     1.282219987312    -1.058594023742
    H           -1.002703059581     1.518741698694     0.685769869174
    F            0.986207909354     0.030569250397    -1.175808680722
    F            1.170599695541     0.609445654975     0.862720272122
    F            0.206095114705    -1.226145208550     0.356534493223

  Mulliken Charges: (a.u.)
   Center  Symbol    Alpha    Beta     Spin     Total
       1     H     0.27432  0.27432  0.00000  0.45136
       2     O     4.35848  4.35848  0.00000 -0.71696
       3     C     3.07047  3.07047  0.00000 -0.14094
       4     C     2.45641  2.45641  0.00000  1.08718
       5     H     0.40504  0.40504  0.00000  0.18991
       6     H     0.39107  0.39107  0.00000  0.21786
       7     F     4.68548  4.68548  0.00000 -0.37096
       8     F     4.68259  4.68259  0.00000 -0.36518
       9     F     4.67614  4.67614  0.00000 -0.35228

   Total alpha = 25.00000, Total beta = 25.00000, Total charge = -0.00000
