                              Psi4 1.0.54 Driver

  ==> Input File <==

--------------------------------------------------------------------------
set {
	reference rhf
	basis cc-pvtz
}

set_num_threads( 4 )
memory 2 gb

molecule MOL {
0 1

O	 3.219313	 0.959291	 -0.614106
C	 2.698710	 0.058177	 -0.050237
C	 1.246364	 -0.005813	 0.348416
O	 3.344101	 -1.038700	 0.312317
C	 0.453207	 1.232821	 -0.049003
H	 0.839270	 -0.907818	 -0.092281
H	 1.216683	 -0.160521	 1.422434
C	 -0.998367	 1.217982	 0.432195
H	 0.481498	 1.345443	 -1.127236
H	 0.951413	 2.105557	 0.354893
C	 -1.882951	 0.151251	 -0.211235
H	 -1.429490	 2.193659	 0.228843
H	 -1.019755	 1.099323	 1.513279
C	 -1.358822	 -1.266390	 0.001765
H	 -2.887670	 0.227220	 0.198203
H	 -1.973696	 0.334040	 -1.277954
C	 -2.231482	 -2.340120	 -0.641929
H	 -1.278459	 -1.462820	 1.068207
H	 -0.349556	 -1.339807	 -0.396803
C	 -1.702391	 -3.753634	 -0.423259
H	 -3.240242	 -2.268147	 -0.244506
H	 -2.310534	 -2.146828	 -1.708346
H	 -2.344071	 -4.490566	 -0.892473
H	 -1.644859	 -3.990704	 0.633906
H	 -0.707440	 -3.868058	 -0.840615
C	 4.720529	 -1.114346	 0.001449
H	 4.874321	 -1.055557	 -1.065852
H	 5.057824	 -2.067950	 0.373977
H	 5.264321	 -0.313596	 0.480350

	symmetry c1
}
set optking {
	frozen_dihedral = ("
		15 11 8 5
	")
}

ee,wfn = optimize('scf', return_wfn=True)
oeprop( wfn, 'DIPOLE', 'QUADRUPOLE', 'MULLIKEN_CHARGES')
f=open( 'psi4out.xyz', 'w' )
f.write( "29  " )
f.write( str(ee) + "\n" )
f.write( MOL.save_string_xyz() )
f.close()
--------------------------------------------------------------------------

    Molecular point group: c1
  Charge       = 0
  Multiplicity = 1
  Basis Set: CC-PVTZ
  Basis Set:
  @DF-RHF Final Energy:  -501.19720267144214
    Total Energy =                       -501.1972026714420281
    Molecular point group: c1
  Basis Set: CC-PVTZ
  Basis Set:
  Basis Set: CC-PVTZ
  Basis Set:
  @DF-RHF Final Energy:  -501.21416316475973
    Total Energy =                       -501.2141631647593840
  Basis Set: CC-PVTZ
  Basis Set:
  Basis Set: CC-PVTZ
  Basis Set:
  @DF-RHF Final Energy:  -501.21808069953738
    Total Energy =                       -501.2180806995374951
  Basis Set: CC-PVTZ
  Basis Set:
  Basis Set: CC-PVTZ
  Basis Set:
  @DF-RHF Final Energy:  -501.21709113965505
    Total Energy =                       -501.2170911396550537
  Basis Set: CC-PVTZ
  Basis Set:
  @DF-RHF Final Energy:  -501.21942699806789
    Total Energy =                       -501.2194269980680019
  @DF-RHF Final Energy:  -501.21990665764952
    Total Energy =                       -501.2199066576490623
  @DF-RHF Final Energy:  -501.22008477810766
    Total Energy =                       -501.2200847781080029
  @DF-RHF Final Energy:  -501.22016863463000
    Total Energy =                       -501.2201686346297720
  Basis Set: CC-PVTZ
  Basis Set:
  @DF-RHF Final Energy:  -501.22010077798848
    Total Energy =                       -501.2201007779880229
  Basis Set: CC-PVTZ
  Basis Set:
  Basis Set: CC-PVTZ
  Basis Set:
  @DF-RHF Final Energy:  -501.22025009661695
    Total Energy =                       -501.2202500966163825
  Basis Set: CC-PVTZ
  Basis Set:
  Basis Set: CC-PVTZ
  Basis Set:
  @DF-RHF Final Energy:  -501.22025382341064
    Total Energy =                       -501.2202538234098483
  Basis Set: CC-PVTZ
  Basis Set:
  Charge       = 0
  Multiplicity = 1
  Basis Set: CC-PVTZ
  Basis Set:

    Orbital Energies (a.u.)
    -----------------------

    Doubly Occupied:

       1A    -20.595729     2A    -20.533639     3A    -11.363794
       4A    -11.278052     5A    -11.232170     6A    -11.216955
       7A    -11.215905     8A    -11.214404     9A    -11.213903
      10A    -11.213186    11A    -11.207691    12A     -1.471620
      13A     -1.365199    14A     -1.098378    15A     -1.066406
      16A     -1.020502    17A     -0.976977    18A     -0.931295
      19A     -0.863676    20A     -0.807567    21A     -0.780908
      22A     -0.767211    23A     -0.700015    24A     -0.685572
      25A     -0.675783    26A     -0.650958    27A     -0.629721
      28A     -0.606413    29A     -0.595117    30A     -0.581454
      31A     -0.565499    32A     -0.557930    33A     -0.536303
      34A     -0.528358    35A     -0.522311    36A     -0.504557
      37A     -0.492743    38A     -0.484287    39A     -0.473782
      40A     -0.461387    41A     -0.459416    42A     -0.458232
      43A     -0.439116    44A     -0.436897

  @DF-RHF Final Energy:  -501.22025480561274

   => Energetics <=

    Nuclear Repulsion Energy =            628.1848506365788580
    One-Electron Energy =               -1927.8481683434295064
    Two-Electron Energy =                 798.4430629012379086
    DFT Exchange-Correlation Energy =       0.0000000000000000
    Empirical Dispersion Energy =           0.0000000000000000
    PCM Polarization Energy =               0.0000000000000000
    EFP Energy =                            0.0000000000000000
    Total Energy =                       -501.2202548056127398
    Molecular point group: c1
  Basis Set: CC-PVTZ
  Basis Set:

  -Total Gradient:
     Atom            X                  Y                   Z
    ------   -----------------  -----------------  -----------------
       1        0.000018410693    -0.000063247475     0.000084338071
       2        0.000057911850     0.000094682952    -0.000109031382
       3       -0.000021772118    -0.000038736845     0.000066029753
       4       -0.000021967351    -0.000021225587     0.000016523847
       5        0.000316189648    -0.000889673702     0.000680725933
       6        0.000006917818     0.000039346170     0.000014104544
       7        0.000000891590    -0.000008677940     0.000009863909
       8       -0.000348934799     0.000982954273    -0.000786897649
       9        0.000013886023     0.000004773239    -0.000026489387
      10       -0.000033642560    -0.000023275520    -0.000012659113
      11       -0.000380384837     0.001069447470    -0.000891199036
      12        0.000012960581    -0.000008214245     0.000006018928
      13       -0.000010312621    -0.000000377905     0.000033383403
      14        0.000021632374     0.000002241480    -0.000049394862
      15        0.000436383663    -0.001154113418     0.000970721894
      16       -0.000015435759    -0.000022914263    -0.000010993445
      17        0.000016518307     0.000006333821     0.000000625742
      18        0.000006695790     0.000001515775    -0.000005928236
      19       -0.000023537826    -0.000009822423     0.000003546793
      20       -0.000014924650     0.000007043633     0.000028034123
      21       -0.000011616148    -0.000019701810    -0.000005593035
      22        0.000009154805     0.000008994931     0.000010060786
      23       -0.000007003830    -0.000000356157    -0.000001980544
      24        0.000007423862    -0.000005978283     0.000002122274
      25       -0.000005800461     0.000017067099     0.000002257413
      26       -0.000027695720     0.000037240035    -0.000040630719
      27        0.000010883971    -0.000005488386     0.000009318769
      28       -0.000016553792     0.000006140169    -0.000001962000
      29        0.000003721501    -0.000005977086     0.000005083227

  **** Optimization is complete! (in 12 steps) ****
    Final optimized geometry and variables:
    Molecular point group: c1

    Geometry (in Angstrom), charge = 0, multiplicity = 1:

    O            2.473052635785     1.414219927606    -0.721401242105
    C            2.122202154565     0.714000763428     0.166180853614
    C            0.723230734027     0.635787954743     0.722396051336
    O            2.937559739789    -0.112505100329     0.801279040006
    C           -0.259023199302     1.573274692527     0.028905605071
    H            0.415157130868    -0.399983534373     0.664387293258
    H            0.789490138699     0.863770154908     1.781225832689
    C           -1.689387381970     1.510488219944     0.590276467657
    H           -0.265270388899     1.369921086866    -1.035822940182
    H            0.119653211586     2.582541166696     0.130103872569
    C           -2.656815730497     0.559255930046    -0.121765456034
    H           -2.121131808551     2.503951198176     0.538681922238
    H           -1.653243788285     1.259363687999     1.647791199565
    C           -2.248164946809    -0.911694960744    -0.171537346613
    H           -3.616813392773     0.623958552755     0.383375698160
    H           -2.818036733458     0.914743161675    -1.136292426427
    C           -3.322952089545    -1.802770217532    -0.789364084570
    H           -2.030553208236    -1.263419918485     0.834671145662
    H           -1.332383623044    -1.025101496683    -0.743769832264
    C           -2.919297995090    -3.271864061103    -0.856017386024
    H           -4.240926669239    -1.707456732056    -0.216089120039
    H           -3.551220026165    -1.446430824942    -1.790134422550
    H           -3.704553888787    -3.875421136004    -1.296506003619
    H           -2.714681338137    -3.667122305557     0.133558557761
    H           -2.024766441372    -3.405453316591    -1.455316343436
    C            4.286967332781    -0.141349221028     0.382958573740
    H            4.359240281415    -0.439540976312    -0.652467232195
    H            4.778622565762    -0.864360878465     1.013386599972
    H            4.744363630918     0.829596551379     0.502629119522

  Mulliken Charges: (a.u.)
   Center  Symbol    Alpha    Beta     Spin     Total
       1     O     4.19710  4.19710  0.00000 -0.39420
       2     C     2.80514  2.80514  0.00000  0.38971
       3     C     3.10158  3.10158  0.00000 -0.20315
       4     O     4.14777  4.14777  0.00000 -0.29555
       5     C     3.09984  3.09984  0.00000 -0.19968
       6     H     0.43713  0.43713  0.00000  0.12574
       7     H     0.43838  0.43838  0.00000  0.12323
       8     C     3.10793  3.10793  0.00000 -0.21587
       9     H     0.44327  0.44327  0.00000  0.11347
      10     H     0.43819  0.43819  0.00000  0.12363
      11     C     3.09229  3.09229  0.00000 -0.18459
      12     H     0.44065  0.44065  0.00000  0.11870
      13     H     0.45531  0.45531  0.00000  0.08937
      14     C     3.09628  3.09628  0.00000 -0.19257
      15     H     0.44898  0.44898  0.00000  0.10204
      16     H     0.45127  0.45127  0.00000  0.09746
      17     C     3.08435  3.08435  0.00000 -0.16869
      18     H     0.45316  0.45316  0.00000  0.09368
      19     H     0.45305  0.45305  0.00000  0.09390
      20     C     3.15070  3.15070  0.00000 -0.30139
      21     H     0.45370  0.45370  0.00000  0.09260
      22     H     0.45381  0.45381  0.00000  0.09238
      23     H     0.44774  0.44774  0.00000  0.10452
      24     H     0.45520  0.45520  0.00000  0.08961
      25     H     0.45505  0.45505  0.00000  0.08990
      26     C     3.03819  3.03819  0.00000 -0.07638
      27     H     0.45442  0.45442  0.00000  0.09117
      28     H     0.44529  0.44529  0.00000  0.10942
      29     H     0.45424  0.45424  0.00000  0.09152

   Total alpha = 44.00000, Total beta = 44.00000, Total charge = -0.00000

*** Psi4 exiting successfully. Buy a developer a beer!
