                              Psi4 1.0.54 Driver

  ==> Input File <==

--------------------------------------------------------------------------
set {
	reference rhf
	basis cc-pvtz
}

set_num_threads( 4 )
memory 2 gb

molecule MOL {
0 1

H	 -0.338105	 -1.234739	 -0.755964
N	 -0.625934	 -0.663929	 -0.000707
C	 -1.978635	 -0.158664	 0.001017
C	 0.271447	 -0.401825	 0.975300
H	 -2.519057	 -0.493535	 -0.876362
H	 -1.938890	 0.917202	 -0.004137
H	 -2.514266	 -0.485137	 0.884506
C	 1.628660	 -1.038189	 0.770766
O	 0.023006	 0.271759	 1.931144
H	 2.075526	 -0.687503	 -0.152233
H	 2.265710	 -0.777396	 1.599754
H	 1.536651	 -2.116430	 0.711185

	symmetry c1
}
set optking {
	frozen_dihedral = ("
		4 2 3 5
	")
}

ee,wfn = optimize('scf', return_wfn=True)
oeprop( wfn, 'DIPOLE', 'QUADRUPOLE', 'MULLIKEN_CHARGES')
f=open( 'psi4out.xyz', 'w' )
f.write( "12  " )
f.write( str(ee) + "\n" )
f.write( MOL.save_string_xyz() )
f.close()
--------------------------------------------------------------------------

    Molecular point group: c1
  Charge       = 0
  Multiplicity = 1
  Basis Set: CC-PVTZ
  Basis Set:
  @DF-RHF Final Energy:  -247.10055638058378
    Total Energy =                       -247.1005563805837824
    Molecular point group: c1
  Basis Set: CC-PVTZ
  Basis Set:
  Basis Set: CC-PVTZ
  Basis Set:
  @DF-RHF Final Energy:  -247.10113760487894
    Total Energy =                       -247.1011376048787156
  Basis Set: CC-PVTZ
  Basis Set:
  Basis Set: CC-PVTZ
  Basis Set:
  @DF-RHF Final Energy:  -247.10110679837823
    Total Energy =                       -247.1011067983780549
  Basis Set: CC-PVTZ
  Basis Set:
  Basis Set: CC-PVTZ
  Basis Set:
  @DF-RHF Final Energy:  -247.10128182861624
    Total Energy =                       -247.1012818286163792
  Basis Set: CC-PVTZ
  Basis Set:
  Charge       = 0
  Multiplicity = 1
  Basis Set: CC-PVTZ
  Basis Set:

    Orbital Energies (a.u.)
    -----------------------

    Doubly Occupied:

       1A    -20.507034     2A    -15.574250     3A    -11.334867
       4A    -11.254097     5A    -11.228083     6A     -1.388755
       7A     -1.230341     8A     -1.016429     9A     -0.933048
      10A     -0.789521    11A     -0.690477    12A     -0.650812
      13A     -0.636454    14A     -0.584358    15A     -0.582604
      16A     -0.558582    17A     -0.546971    18A     -0.507100
      19A     -0.417268    20A     -0.390414

  @DF-RHF Final Energy:  -247.10128221974816

   => Energetics <=

    Nuclear Repulsion Energy =            181.8938479924732405
    One-Electron Energy =                -696.3473298570029328
    Two-Electron Energy =                 267.3521996447815923
    DFT Exchange-Correlation Energy =       0.0000000000000000
    Empirical Dispersion Energy =           0.0000000000000000
    PCM Polarization Energy =               0.0000000000000000
    EFP Energy =                            0.0000000000000000
    Total Energy =                       -247.1012822197481569
    Molecular point group: c1
  Basis Set: CC-PVTZ
  Basis Set:

  -Total Gradient:
     Atom            X                  Y                   Z
    ------   -----------------  -----------------  -----------------
       1       -0.000000077434    -0.000008357981     0.000006140337
       2        0.000025783240     0.000037617478     0.000085549147
       3        0.000047165295    -0.000004664147    -0.000039655660
       4       -0.000005913618    -0.000017877794    -0.000038403142
       5       -0.000030526064     0.000003307341     0.000001008737
       6       -0.000013175244     0.000004441115     0.000000786416
       7        0.000013811461    -0.000010187408    -0.000000297912
       8        0.000006981234    -0.000016970923    -0.000025175240
       9       -0.000010752514    -0.000003955710     0.000004091115
      10       -0.000003934552     0.000003495400     0.000002715310
      11       -0.000022231113     0.000009434190    -0.000001395298
      12       -0.000007130691     0.000003718439     0.000004636191

  **** Optimization is complete! (in 5 steps) ****
    Final optimized geometry and variables:
    Molecular point group: c1

    Geometry (in Angstrom), charge = 0, multiplicity = 1:

    H           -0.199923467291    -0.848358698125    -1.496166675804
    N           -0.472955976768    -0.275355252312    -0.738487203151
    C           -1.817520158994     0.252283171823    -0.705727562134
    C            0.419395044825    -0.011677311960     0.238575885768
    H           -2.344798554084    -0.089233038170    -1.585210822498
    H           -1.811297620034     1.333785343461    -0.698849771366
    H           -2.347445713439    -0.086586143005     0.174130595056
    C            1.782371593571    -0.640539001883     0.054758284149
    O            0.148440497912     0.671773947313     1.181509209924
    H            2.237519638728    -0.294600109146    -0.866013344307
    H            2.408493666459    -0.368923035446     0.888769790916
    H            1.697852627344    -1.719806626948     0.003029007091

  Mulliken Charges: (a.u.)
   Center  Symbol    Alpha    Beta     Spin     Total
       1     H     0.41155  0.41155  0.00000  0.17690
       2     N     3.61767  3.61767  0.00000 -0.23533
       3     C     3.07595  3.07595  0.00000 -0.15191
       4     C     2.83769  2.83769  0.00000  0.32461
       5     H     0.45617  0.45617  0.00000  0.08767
       6     H     0.44944  0.44944  0.00000  0.10112
       7     H     0.44955  0.44955  0.00000  0.10090
       8     C     3.15354  3.15354  0.00000 -0.30709
       9     O     4.21509  4.21509  0.00000 -0.43018
      10     H     0.44973  0.44973  0.00000  0.10054
      11     H     0.43367  0.43367  0.00000  0.13266
      12     H     0.44994  0.44994  0.00000  0.10012

   Total alpha = 20.00000, Total beta = 20.00000, Total charge = -0.00000

*** Psi4 exiting successfully. Buy a developer a beer!
