  ==> Input File <==

--------------------------------------------------------------------------
set {
	reference rhf
	basis cc-pvtz
}

set_num_threads( 4 )
memory 2 gb

molecule MOL {
0 1

H	 -4.191583	 0.675082	 -0.240969
O	 -3.491901	 0.062562	 -0.373106
C	 -2.277004	 0.617139	 0.056882
C	 -1.175688	 -0.398187	 -0.171891
H	 -2.059398	 1.530162	 -0.493399
H	 -2.328983	 0.875607	 1.112497
C	 0.196029	 0.106276	 0.266738
H	 -1.158406	 -0.654721	 -1.226458
H	 -1.428576	 -1.306594	 0.365475
C	 1.330220	 -0.826136	 -0.155230
H	 0.359542	 1.097229	 -0.145561
H	 0.212134	 0.218135	 1.348778
C	 2.719700	 -0.407669	 0.328325
H	 1.339388	 -0.911200	 -1.239363
H	 1.119001	 -1.821953	 0.224128
C	 3.241564	 0.893452	 -0.276737
H	 3.418299	 -1.204729	 0.093035
H	 2.711776	 -0.323368	 1.411960
H	 3.254204	 0.841071	 -1.360784
H	 2.634460	 1.745075	 0.005842
H	 4.254264	 1.092401	 0.054971

	symmetry c1
}
set optking {
	frozen_dihedral = ("
		8 4 7 10
	")
}

ee = optimize('scf')
oeprop('DIPOLE', 'QUADRUPOLE', 'MULLIKEN_CHARGES')
f=open( 'psi4out.xyz', 'w' )
f.write( "21  " )
f.write( str(ee) + "\n" )
f.write( MOL.save_string_xyz() )
f.close()
--------------------------------------------------------------------------

    Molecular point group: c1
  Charge       = 0
  Multiplicity = 1
  Basis Set: CC-PVTZ
  Basis Set:
  @DF-RHF Final Energy:  -310.33281513374197
    Total Energy =                       -310.3328151337416898
    Molecular point group: c1
  Basis Set: CC-PVTZ
  Basis Set:
  Basis Set: CC-PVTZ
  Basis Set:
  @DF-RHF Final Energy:  -310.33284355226237
    Total Energy =                       -310.3328435522618634
  Basis Set: CC-PVTZ
  Basis Set:
  Basis Set: CC-PVTZ
  Basis Set:
  @DF-RHF Final Energy:  -310.33284483271296
    Total Energy =                       -310.3328448327130218
  Basis Set: CC-PVTZ
  Basis Set:
  Basis Set: CC-PVTZ
  Basis Set:
  @DF-RHF Final Energy:  -310.33285473959080
    Total Energy =                       -310.3328547395911983
  Basis Set: CC-PVTZ
  Basis Set:
  Charge       = 0
  Multiplicity = 1
  Basis Set: CC-PVTZ
  Basis Set:

    Orbital Energies (a.u.)
    -----------------------

    Doubly Occupied:

       1A    -20.545436     2A    -11.265081     3A    -11.213167
       4A    -11.213060     5A    -11.211323     6A    -11.208907
       7A    -11.206137     8A     -1.363306     9A     -1.087422
      10A     -1.034399    11A     -0.955552    12A     -0.876540
      13A     -0.807903    14A     -0.779234    15A     -0.696392
      16A     -0.661786    17A     -0.624361    18A     -0.607633
      19A     -0.587371    20A     -0.573660    21A     -0.535176
      22A     -0.521961    23A     -0.512598    24A     -0.485573
      25A     -0.481583    26A     -0.461110    27A     -0.455805
      28A     -0.444291    29A     -0.437290

  @DF-RHF Final Energy:  -310.33285488279864

   => Energetics <=

    Nuclear Repulsion Energy =            312.9927529391364942
    One-Electron Energy =               -1040.9431049990923839
    Two-Electron Energy =                 417.6174971771571336
    DFT Exchange-Correlation Energy =       0.0000000000000000
    Empirical Dispersion Energy =           0.0000000000000000
    PCM Polarization Energy =               0.0000000000000000
    EFP Energy =                            0.0000000000000000
    Total Energy =                       -310.3328548827987561
    Molecular point group: c1
  Basis Set: CC-PVTZ
  Basis Set:

  -Total Gradient:
     Atom            X                  Y                   Z
    ------   -----------------  -----------------  -----------------
       1       -0.000004358060     0.000000081564     0.000002689028
       2       -0.000000068058     0.000007497124    -0.000012439688
       3        0.000014482311    -0.000010283416     0.000002416405
       4       -0.000427725419     0.001806487132    -0.000733204615
       5       -0.000004954847     0.000003686247    -0.000001749444
       6        0.000002082410    -0.000005458490    -0.000008631881
       7       -0.000031841980    -0.000993557367     0.001261561987
       8        0.000385893153    -0.001300550295     0.000344944616
       9       -0.000018065257    -0.000002710170     0.000014556809
      10        0.000076648848     0.000490966743    -0.000875751619
      11        0.000002890455     0.000015692826     0.000005897328
      12        0.000003278287    -0.000018290408    -0.000005369086
      13        0.000006334379    -0.000012044489     0.000002245237
      14       -0.000002504272     0.000002595433     0.000001103519
      15       -0.000004580025     0.000003622313     0.000000552111
      16       -0.000002683810     0.000010065406     0.000002981061
      17       -0.000003106408    -0.000001611931    -0.000001242927
      18        0.000009008449    -0.000002683448     0.000000977221
      19        0.000006051346    -0.000002081080     0.000000333754
      20       -0.000003157846     0.000003919511    -0.000005120031
      21       -0.000003623661     0.000004656795     0.000003250214

  **** Optimization is complete! (in 5 steps) ****
    Final optimized geometry and variables:
    Molecular point group: c1

    Geometry (in Angstrom), charge = 0, multiplicity = 1:

    H           -4.209259254991     0.626761223758    -0.146198539922
    O           -3.507956687462     0.016166893182    -0.278375332493
    C           -2.287152463595     0.592845545646     0.102656133159
    C           -1.182594878417    -0.417525853149    -0.128773740867
    H           -2.093453354207     1.492317407536    -0.477859857243
    H           -2.312357253759     0.879660440956     1.152048873543
    C            0.191975514256     0.094831670175     0.293261615639
    H           -1.172681031136    -0.693320805538    -1.178527908436
    H           -1.424650329774    -1.321821182186     0.420785837133
    C            1.323085994473    -0.845663796211    -0.118657825818
    H            0.356682308921     1.075349315150    -0.143713654006
    H            0.212396977393     0.233257122936     1.371685829126
    C            2.710755860513    -0.439485562496     0.380055670201
    H            1.341609770366    -0.926731020579    -1.202774553192
    H            1.100916946667    -1.841456394687     0.255083212040
    C            3.243067073573     0.865889270617    -0.206360403189
    H            3.407373413608    -1.237198369024     0.141212090326
    H            2.694915191112    -0.367083939707     1.464405386276
    H            3.263047237434     0.825957335887    -1.290831098980
    H            2.637916606364     1.716996119811     0.081885600933
    H            4.254320721590     1.056144467643     0.134658001257

  Mulliken Charges: (a.u.)
   Center  Symbol    Alpha    Beta     Spin     Total
       1     H     0.39761  0.39761  0.00000  0.20478
       2     O     4.19426  4.19426  0.00000 -0.38853
       3     C     2.96309  2.96309  0.00000  0.07382
       4     C     3.08386  3.08386  0.00000 -0.16773
       5     H     0.47467  0.47467  0.00000  0.05067
       6     H     0.47520  0.47520  0.00000  0.04960
       7     C     3.10337  3.10337  0.00000 -0.20674
       8     H     0.45147  0.45147  0.00000  0.09707
       9     H     0.45012  0.45012  0.00000  0.09976
      10     C     3.09424  3.09424  0.00000 -0.18848
      11     H     0.45491  0.45491  0.00000  0.09017
      12     H     0.45420  0.45420  0.00000  0.09160
      13     C     3.08977  3.08977  0.00000 -0.17954
      14     H     0.45313  0.45313  0.00000  0.09373
      15     H     0.44891  0.44891  0.00000  0.10218
      16     C     3.15262  3.15262  0.00000 -0.30524
      17     H     0.44849  0.44849  0.00000  0.10301
      18     H     0.45484  0.45484  0.00000  0.09031
      19     H     0.45469  0.45469  0.00000  0.09062
      20     H     0.45415  0.45415  0.00000  0.09171
      21     H     0.44639  0.44639  0.00000  0.10723

   Total alpha = 29.00000, Total beta = 29.00000, Total charge = -0.00000
