  ==> Input File <==

--------------------------------------------------------------------------
set {
	reference rhf
	basis 6-31G*
}

set_num_threads( 1 )
memory 2 gb

molecule MOL {
0 1

H	 -1.976036	 -0.054818	 3.637515
C	 -2.474169	 -0.537793	 2.787679
C	 -2.534118	 0.290396	 1.529458
O	 -2.918502	 -1.634001	 2.900138
C	 -1.157987	 0.827389	 1.112134
H	 -2.982165	 -0.309672	 0.745953
H	 -3.199974	 1.128912	 1.729907
C	 -0.182338	 -0.268082	 0.674698
H	 -1.296525	 1.533029	 0.298400
H	 -0.727125	 1.395508	 1.935150
C	 1.180775	 0.282413	 0.250794
H	 -0.620781	 -0.826701	 -0.149656
H	 -0.044303	 -0.983659	 1.483052
C	 2.148627	 -0.814315	 -0.201312
H	 1.035747	 1.003886	 -0.549316
H	 1.622362	 0.830859	 1.081812
C	 3.580890	 -0.659131	 0.322722
H	 2.166869	 -0.852443	 -1.289387
H	 1.762857	 -1.776509	 0.128956
C	 4.324889	 0.564933	 -0.213704
H	 4.142010	 -1.551473	 0.056605
H	 3.564836	 -0.624694	 1.410140
H	 4.342616	 0.565491	 -1.300421
H	 3.866655	 1.493402	 0.110242
H	 5.353900	 0.572371	 0.132816

	symmetry c1
}
set optking {
	frozen_dihedral = ("
		6 3 5 8,
		6 3 2 4,
		3 5 8 12,
		12 8 11 14,
		20 17 14 18
	")
}

ee = energy('scf')
oeprop('DIPOLE', 'QUADRUPOLE', 'MULLIKEN_CHARGES')
f=open( 'psi4out.xyz', 'w' )
f.write( "25  " )
f.write( str(ee) + "\n" )
f.write( MOL.save_string_xyz() )
f.close()
--------------------------------------------------------------------------

    Molecular point group: c1

    Geometry (in Angstrom), charge = 0, multiplicity = 1:

       Center              X                  Y                   Z               Mass
    ------------   -----------------  -----------------  -----------------  -----------------
           H         -2.203179816077     0.166462004338     2.614468039753     1.007825032070
           C         -2.701312816077    -0.316512995662     1.764632039753    12.000000000000
           C         -2.761261816077     0.511676004338     0.506411039753    12.000000000000
           O         -3.145645816077    -1.412720995662     1.877091039753    15.994914619560
           C         -1.385130816077     1.048669004338     0.089087039753    12.000000000000
           H         -3.209308816077    -0.088391995662    -0.277093960247     1.007825032070
           H         -3.427117816077     1.350192004338     0.706860039753     1.007825032070
           C         -0.409481816077    -0.046801995662    -0.348348960247    12.000000000000
           H         -1.523668816077     1.754309004338    -0.724646960247     1.007825032070
           H         -0.954268816077     1.616788004338     0.912103039753     1.007825032070
           C          0.953631183923     0.503693004338    -0.772252960247    12.000000000000
           H         -0.847924816077    -0.605420995662    -1.172702960247     1.007825032070
           H         -0.271446816077    -0.762378995662     0.460005039753     1.007825032070
           C          1.921483183923    -0.593034995662    -1.224358960247    12.000000000000
           H          0.808603183923     1.225166004338    -1.572362960247     1.007825032070
           H          1.395218183923     1.052139004338     0.058765039753     1.007825032070
           C          3.353746183923    -0.437850995662    -0.700324960247    12.000000000000
           H          1.939725183923    -0.631162995662    -2.312433960247     1.007825032070
           H          1.535713183923    -1.555228995662    -0.894090960247     1.007825032070
           C          4.097745183923     0.786213004338    -1.236750960247    12.000000000000
           H          3.914866183923    -1.330192995662    -0.966441960247     1.007825032070
           H          3.337692183923    -0.403413995662     0.387093039753     1.007825032070
           H          4.115472183923     0.786771004338    -2.323467960247     1.007825032070
           H          3.639511183923     1.714682004338    -0.912804960247     1.007825032070
           H          5.126756183923     0.793651004338    -0.890230960247     1.007825032070

  Charge       = 0
  Multiplicity = 1
  Basis Set: 6-31G*
  Basis Set:

    Orbital Energies (a.u.)
    -----------------------

    Doubly Occupied:

       1A    -20.562049     2A    -11.326224     3A    -11.235119
       4A    -11.234529     5A    -11.224337     6A    -11.218949
       7A    -11.217978     8A    -11.215706     9A    -11.210707
      10A     -1.402049    11A     -1.104137    12A     -1.069606
      13A     -1.013217    14A     -0.942259    15A     -0.874771
      16A     -0.822533    17A     -0.788106    18A     -0.780356
      19A     -0.665217    20A     -0.660109    21A     -0.634501
      22A     -0.624282    23A     -0.603634    24A     -0.591966
      25A     -0.575043    26A     -0.553151    27A     -0.532653
      28A     -0.524895    29A     -0.511498    30A     -0.493630
      31A     -0.490720    32A     -0.482489    33A     -0.459773
      34A     -0.458486    35A     -0.441035    36A     -0.409600

  @DF-RHF Final Energy:  -387.11808460684398

   => Energetics <=

    Nuclear Repulsion Energy =            440.1433924602342245
    One-Electron Energy =               -1396.6124611993955114
    Two-Electron Energy =                 569.3509841323200362
    DFT Exchange-Correlation Energy =       0.0000000000000000
    Empirical Dispersion Energy =           0.0000000000000000
    PCM Polarization Energy =               0.0000000000000000
    EFP Energy =                            0.0000000000000000
    Total Energy =                       -387.1180846068411938

  Mulliken Charges: (a.u.)
   Center  Symbol    Alpha    Beta     Spin     Total
       1     H     0.43260  0.43260  0.00000  0.13480
       2     C     2.83092  2.83092  0.00000  0.33816
       3     C     3.20813  3.20813  0.00000 -0.41627
       4     O     4.23779  4.23779  0.00000 -0.47558
       5     C     3.16703  3.16703  0.00000 -0.33405
       6     H     0.39972  0.39972  0.00000  0.20056
       7     H     0.40671  0.40671  0.00000  0.18659
       8     C     3.15770  3.15770  0.00000 -0.31541
       9     H     0.41281  0.41281  0.00000  0.17439
      10     H     0.41959  0.41959  0.00000  0.16083
      11     C     3.15417  3.15417  0.00000 -0.30834
      12     H     0.41746  0.41746  0.00000  0.16507
      13     H     0.41804  0.41804  0.00000  0.16391
      14     C     3.15600  3.15600  0.00000 -0.31200
      15     H     0.42017  0.42017  0.00000  0.15965
      16     H     0.42184  0.42184  0.00000  0.15632
      17     C     3.15403  3.15403  0.00000 -0.30807
      18     H     0.42123  0.42123  0.00000  0.15754
      19     H     0.41807  0.41807  0.00000  0.16386
      20     C     3.24081  3.24081  0.00000 -0.48162
      21     H     0.42064  0.42064  0.00000  0.15871
      22     H     0.42329  0.42329  0.00000  0.15342
      23     H     0.42190  0.42190  0.00000  0.15621
      24     H     0.42056  0.42056  0.00000  0.15888
      25     H     0.41878  0.41878  0.00000  0.16244

   Total alpha = 36.00000, Total beta = 36.00000, Total charge = -0.00000
