                              Psi4 1.0.54 Driver

  ==> Input File <==

--------------------------------------------------------------------------
set {
	reference rhf
	basis cc-pvtz
}

set_num_threads( 4 )
memory 2 gb

molecule MOL {
0 1

H	 -3.440266	 -0.171832	 0.174621
O	 -2.655722	 -0.699278	 0.177881
C	 -1.603678	 0.110396	 0.096849
C	 -0.308943	 -0.656211	 0.094050
O	 -1.717801	 1.285497	 0.032934
C	 0.926581	 0.227233	 0.000178
H	 -0.355700	 -1.358594	 -0.731904
H	 -0.294285	 -1.261020	 0.994998
C	 2.220156	 -0.582071	 -0.000088
H	 0.868855	 0.828538	 -0.900119
H	 0.930354	 0.926244	 0.828907
C	 3.466689	 0.296012	 -0.000457
H	 2.239073	 -1.234095	 -0.869382
H	 2.239505	 -1.233985	 0.869270
H	 3.493549	 0.935857	 -0.875887
H	 4.368821	 -0.304526	 -0.001199
H	 3.494559	 0.935166	 0.875458

	symmetry c1
}
set optking {
	frozen_dihedral = ("
		10 6 9 13
	")
}

ee,wfn = optimize('scf', return_wfn=True)
oeprop( wfn, 'DIPOLE', 'QUADRUPOLE', 'MULLIKEN_CHARGES')
f=open( 'psi4out.xyz', 'w' )
f.write( "17  " )
f.write( str(ee) + "\n" )
f.write( MOL.save_string_xyz() )
f.close()
--------------------------------------------------------------------------

    Molecular point group: c1
  Charge       = 0
  Multiplicity = 1
  Basis Set: CC-PVTZ
  Basis Set:
  @DF-RHF Final Energy:  -345.04887133878964
    Total Energy =                       -345.0488713387897519
    Molecular point group: c1
  Basis Set: CC-PVTZ
  Basis Set:
  Basis Set: CC-PVTZ
  Basis Set:
  @DF-RHF Final Energy:  -345.04882184808235
    Total Energy =                       -345.0488218480822979
  Basis Set: CC-PVTZ
  Basis Set:
  Basis Set: CC-PVTZ
  Basis Set:
  @DF-RHF Final Energy:  -345.04886158434550
    Total Energy =                       -345.0488615843453317
  Basis Set: CC-PVTZ
  Basis Set:
  Charge       = 0
  Multiplicity = 1
  Basis Set: CC-PVTZ
  Basis Set:

    Orbital Energies (a.u.)
    -----------------------

    Doubly Occupied:

       1A    -20.604137     2A    -20.540727     3A    -11.373692
       4A    -11.239358     5A    -11.221376     6A    -11.220736
       7A    -11.210729     8A     -1.477701     9A     -1.369223
      10A     -1.092916    11A     -1.019810    12A     -0.914852
      13A     -0.824900    14A     -0.790958    15A     -0.703942
      16A     -0.688117    17A     -0.672334    18A     -0.631548
      19A     -0.593329    20A     -0.585341    21A     -0.574756
      22A     -0.538409    23A     -0.509412    24A     -0.484765
      25A     -0.482636    26A     -0.478456    27A     -0.472979
      28A     -0.446296

  @DF-RHF Final Energy:  -345.04888233064509

   => Energetics <=

    Nuclear Repulsion Energy =            304.7946770312400417
    One-Electron Energy =               -1074.1602443824458533
    Two-Electron Energy =                 424.3166850205608966
    DFT Exchange-Correlation Energy =       0.0000000000000000
    Empirical Dispersion Energy =           0.0000000000000000
    PCM Polarization Energy =               0.0000000000000000
    EFP Energy =                            0.0000000000000000
    Total Energy =                       -345.0488823306448580
    Molecular point group: c1
  Basis Set: CC-PVTZ
  Basis Set:

  -Total Gradient:
     Atom            X                  Y                   Z
    ------   -----------------  -----------------  -----------------
       1       -0.000021921944     0.000019888496     0.000000318194
       2        0.000006232896    -0.000029824408     0.000045064480
       3       -0.000001610078    -0.000012730082    -0.000159796191
       4        0.000048055600     0.000029331817     0.000031257156
       5       -0.000006804793     0.000027266342     0.000056883238
       6        0.000503699630     0.000776285359     0.000367996857
       7       -0.000015774114    -0.000004181944    -0.000007533762
       8        0.000009933186    -0.000009305421     0.000018635716
       9       -0.000524237087    -0.000747444567     0.000393472174
      10       -0.000365685943    -0.000555562662    -0.000372748891
      11        0.000000460075     0.000023545042     0.000017758051
      12       -0.000102785387    -0.000044298153    -0.000003836328
      13        0.000345259871     0.000526973272    -0.000424858285
      14        0.000002370788    -0.000028615034     0.000036950582
      15       -0.000005555093     0.000049534323    -0.000094596560
      16        0.000134237403    -0.000073784082    -0.000005655107
      17       -0.000005875015     0.000052921700     0.000100688675

  **** Optimization is complete! (in 4 steps) ****
    Final optimized geometry and variables:
    Molecular point group: c1

    Geometry (in Angstrom), charge = 0, multiplicity = 1:

    H           -3.441452388252    -0.173651110450     0.104062298867
    O           -2.656980700172    -0.701228549531     0.111706955640
    C           -1.604805692323     0.108627750549     0.033138888443
    C           -0.309711825320    -0.657327915980     0.040444910613
    O           -1.719049100169     1.283676803369    -0.031868122816
    C            0.926161048351     0.226809680711    -0.046292361617
    H           -0.350543137003    -1.360798298513    -0.784964858173
    H           -0.301172312128    -1.260825044149     0.942300777387
    C            2.218790492544    -0.584201697416    -0.052139023522
    H            0.867443943229     0.829426170663    -0.945564782463
    H            0.928728863059     0.921301992440     0.786130777005
    C            3.465677760300     0.293813786888    -0.064275306932
    H            2.232673586114    -1.233979699370    -0.923144919612
    H            2.245203277394    -1.234866705919     0.817864630343
    H            3.481755315363     0.937091073859    -0.937695791481
    H            4.367871722238    -0.306886104764    -0.078738798972
    H            3.504461181740     0.929605224445     0.813821471486

  Mulliken Charges: (a.u.)
   Center  Symbol    Alpha    Beta     Spin     Total
       1     H     0.38244  0.38244  0.00000  0.23513
       2     O     4.15976  4.15976  0.00000 -0.31952
       3     C     2.80472  2.80472  0.00000  0.39056
       4     C     3.11095  3.11095  0.00000 -0.22191
       5     O     4.19115  4.19115  0.00000 -0.38230
       6     C     3.08197  3.08197  0.00000 -0.16393
       7     H     0.43820  0.43820  0.00000  0.12360
       8     H     0.43816  0.43816  0.00000  0.12368
       9     C     3.08608  3.08608  0.00000 -0.17217
      10     H     0.44596  0.44596  0.00000  0.10808
      11     H     0.44644  0.44644  0.00000  0.10713
      12     C     3.14917  3.14917  0.00000 -0.29833
      13     H     0.45442  0.45442  0.00000  0.09116
      14     H     0.45511  0.45511  0.00000  0.08979
      15     H     0.45361  0.45361  0.00000  0.09279
      16     H     0.44808  0.44808  0.00000  0.10383
      17     H     0.45380  0.45380  0.00000  0.09241

   Total alpha = 28.00000, Total beta = 28.00000, Total charge = -0.00000

*** Psi4 exiting successfully. Buy a developer a beer!
