  ==> Input File <==

--------------------------------------------------------------------------
set {
	reference rhf
	basis 6-31G*
}

set_num_threads( 4 )
memory 2 gb

molecule MOL {
0 1

H	 1.475160	 0.348539	 -2.031873
O	 0.642323	 0.205129	 -1.606039
C	 0.702312	 0.627605	 -0.264544
C	 -0.714990	 0.596302	 0.266387
H	 1.092479	 1.639581	 -0.197244
H	 1.339183	 -0.029969	 0.323264
O	 -1.405996	 -0.526611	 -0.195820
H	 -1.257453	 1.468809	 -0.075599
H	 -0.688972	 0.618407	 1.353696
H	 -0.890587	 -1.292708	 0.022039

	symmetry c1
}
set optking {
	frozen_dihedral = ("
		5 3 4 7
	")
}

ee = optimize('scf')
oeprop('DIPOLE', 'QUADRUPOLE', 'MULLIKEN_CHARGES')
f=open( 'psi4out.xyz', 'w' )
f.write( "10  " )
f.write( str(ee) + "\n" )
f.write( MOL.save_string_xyz() )
f.close()
--------------------------------------------------------------------------

    Molecular point group: c1
  Charge       = 0
  Multiplicity = 1
  Basis Set: 6-31G*
  Basis Set:
  @DF-RHF Final Energy:  -228.91503306811006
    Total Energy =                       -228.9150330681101480
    Molecular point group: c1
  Basis Set: 6-31G*
  Basis Set:
  Basis Set: 6-31G*
  Basis Set:
  @DF-RHF Final Energy:  -228.91605110396145
    Total Energy =                       -228.9160511039613652
  Basis Set: 6-31G*
  Basis Set:
  Basis Set: 6-31G*
  Basis Set:
  @DF-RHF Final Energy:  -228.91645363810011
    Total Energy =                       -228.9164536381001085
  Basis Set: 6-31G*
  Basis Set:
  Basis Set: 6-31G*
  Basis Set:
  @DF-RHF Final Energy:  -228.91654049877221
    Total Energy =                       -228.9165404987722354
  Basis Set: 6-31G*
  Basis Set:
  @DF-RHF Final Energy:  -228.91662392877882
    Total Energy =                       -228.9166239287788471
  @DF-RHF Final Energy:  -228.91696619811376
    Total Energy =                       -228.9169661981136699
  @DF-RHF Final Energy:  -228.91979985971025
    Total Energy =                       -228.9197998597103378
  @DF-RHF Final Energy:  -228.92247060303814
    Total Energy =                       -228.9224706030381356
  @DF-RHF Final Energy:  -228.92261355444663
    Total Energy =                       -228.9226135544467411
  @DF-RHF Final Energy:  -228.92266875371894
    Total Energy =                       -228.9226687537189378
  @DF-RHF Final Energy:  -228.92274548606551
    Total Energy =                       -228.9227454860654234
  @DF-RHF Final Energy:  -228.92273298079439
    Total Energy =                       -228.9227329807944500
  @DF-RHF Final Energy:  -228.91694496266015
    Total Energy =                       -228.9169449626602102
  @DF-RHF Final Energy:  -228.91935802645915
    Total Energy =                       -228.9193580264591787
  @DF-RHF Final Energy:  -228.91906293386552
    Total Energy =                       -228.9190629338655469
  @DF-RHF Final Energy:  -228.92228858370265
    Total Energy =                       -228.9222885837027093
  @DF-RHF Final Energy:  -228.92271095654485
    Total Energy =                       -228.9227109565448472
  @DF-RHF Final Energy:  -228.92278546312377
    Total Energy =                       -228.9227854631237449
  @DF-RHF Final Energy:  -228.92283363257033
    Total Energy =                       -228.9228336325704163
  @DF-RHF Final Energy:  -228.92287134227323
    Total Energy =                       -228.9228713422731403
  Basis Set: 6-31G*
  Basis Set:
  @DF-RHF Final Energy:  -228.92292799334746
    Total Energy =                       -228.9229279933475141
  Basis Set: 6-31G*
  Basis Set:
  Basis Set: 6-31G*
  Basis Set:
  @DF-RHF Final Energy:  -228.92294391740037
    Total Energy =                       -228.9229439174003744
  Basis Set: 6-31G*
  Basis Set:
  Basis Set: 6-31G*
  Basis Set:
  @DF-RHF Final Energy:  -228.92294742860517
    Total Energy =                       -228.9229474286050845
  Basis Set: 6-31G*
  Basis Set:
  Charge       = 0
  Multiplicity = 1
  Basis Set: 6-31G*
  Basis Set:

    Orbital Energies (a.u.)
    -----------------------

    Doubly Occupied:

       1A    -20.571934     2A    -20.542944     3A    -11.279511
       4A    -11.268253     5A     -1.385275     6A     -1.346319
       7A     -1.000427     8A     -0.844051     9A     -0.728205
      10A     -0.678621    11A     -0.653479    12A     -0.597703
      13A     -0.576410    14A     -0.533351    15A     -0.487406
      16A     -0.457321    17A     -0.426464

  @DF-RHF Final Energy:  -228.92294772459206

   => Energetics <=

    Nuclear Repulsion Energy =            135.1805071017490150
    One-Electron Energy =                -581.4515615603393144
    Two-Electron Energy =                 217.3481067339981792
    DFT Exchange-Correlation Energy =       0.0000000000000000
    Empirical Dispersion Energy =           0.0000000000000000
    PCM Polarization Energy =               0.0000000000000000
    EFP Energy =                            0.0000000000000000
    Total Energy =                       -228.9229477245921203
    Molecular point group: c1
  Basis Set: 6-31G*
  Basis Set:

  -Total Gradient:
     Atom            X                  Y                   Z
    ------   -----------------  -----------------  -----------------
       1       -0.000005242969     0.000006218311    -0.000001138194
       2        0.000001288786    -0.000000553394     0.000032750922
       3        0.002622722924     0.000612825369     0.006157680076
       4        0.002205026276    -0.002416104585     0.004645913261
       5       -0.002705473450     0.000006220776    -0.006257488159
       6        0.000013049862    -0.000008535770     0.000004665188
       7       -0.002115933438     0.001827001102    -0.004585278533
       8        0.000004631783     0.000006773724     0.000004611149
       9       -0.000010460138    -0.000029570742    -0.000000944406
      10       -0.000009609635    -0.000004274789    -0.000000771301

  **** Optimization is complete! (in 24 steps) ****
    Final optimized geometry and variables:
    Molecular point group: c1

    Geometry (in Angstrom), charge = 0, multiplicity = 1:

    H            1.645183858391    -0.090924097953    -1.549732926074
    O            0.782919474713    -0.050631812685    -1.162289990354
    C            0.849343067608     0.540750956860     0.116759974941
    C           -0.547537474565     0.429457859561     0.718398055661
    H            1.114838688630     1.588319132190     0.003064783254
    H            1.585253204923     0.034533534311     0.733899060846
    O           -1.118407189223    -0.820297126489     0.481901951207
    H           -1.173626927070     1.213234119889     0.295798761211
    H           -0.506434408185     0.580239945404     1.789644352503
    H           -0.934328422117    -1.055238516125    -0.418505699243

  Mulliken Charges: (a.u.)
   Center  Symbol    Alpha    Beta     Spin     Total
       1     H     0.27520  0.27520  0.00000  0.44959
       2     O     4.38188  4.38188  0.00000 -0.76376
       3     C     3.01271  3.01271  0.00000 -0.02543
       4     C     2.99438  2.99438  0.00000  0.01124
       5     H     0.42603  0.42603  0.00000  0.14795
       6     H     0.42279  0.42279  0.00000  0.15442
       7     O     4.37576  4.37576  0.00000 -0.75152
       8     H     0.42676  0.42676  0.00000  0.14649
       9     H     0.41759  0.41759  0.00000  0.16482
      10     H     0.26690  0.26690  0.00000  0.46620

   Total alpha = 17.00000, Total beta = 17.00000, Total charge = -0.00000
