  ==> Input File <==

--------------------------------------------------------------------------
set {
	reference rhf
	basis cc-pvtz
}

set_num_threads( 4 )
memory 2 gb

molecule MOL {
0 1

H	 2.342730	 0.877684	 -1.045694
C	 2.360424	 0.000000	 -0.411793
C	 1.173749	 0.000000	 0.526870
H	 3.286567	 0.000000	 0.151574
H	 2.342730	 -0.877684	 -1.045694
O	 -0.000000	 0.000000	 -0.223739
H	 1.203779	 0.876757	 1.172538
H	 1.203779	 -0.876757	 1.172538
C	 -1.173749	 0.000000	 0.526870
C	 -2.318650	 0.464507	 -0.346470
H	 -1.065772	 0.657797	 1.388342
H	 -1.372619	 -1.000643	 0.908518
H	 -2.132049	 1.464966	 -0.716247
H	 -3.244081	 0.472415	 0.218009
H	 -2.439220	 -0.195228	 -1.196578

	symmetry c1
}
set optking {
	frozen_dihedral = ("
		11 9 6 3
	")
}

ee = optimize('scf')
oeprop('DIPOLE', 'QUADRUPOLE', 'MULLIKEN_CHARGES')
f=open( 'psi4out.xyz', 'w' )
f.write( "15  " )
f.write( str(ee) + "\n" )
f.write( MOL.save_string_xyz() )
f.close()
--------------------------------------------------------------------------

    Molecular point group: c1
  Charge       = 0
  Multiplicity = 1
  Basis Set: CC-PVTZ
  Basis Set:
  @DF-RHF Final Energy:  -232.23279776944571
    Total Energy =                       -232.2327977694457104
    Molecular point group: c1
  Basis Set: CC-PVTZ
  Basis Set:
  Basis Set: CC-PVTZ
  Basis Set:
  @DF-RHF Final Energy:  -232.23284372751610
    Total Energy =                       -232.2328437275161264
  Basis Set: CC-PVTZ
  Basis Set:
  Basis Set: CC-PVTZ
  Basis Set:
  @DF-RHF Final Energy:  -232.23285483106454
    Total Energy =                       -232.2328548310645715
  Basis Set: CC-PVTZ
  Basis Set:
  Charge       = 0
  Multiplicity = 1
  Basis Set: CC-PVTZ
  Basis Set:

    Orbital Energies (a.u.)
    -----------------------

    Doubly Occupied:

       1A    -20.544838     2A    -11.266400     3A    -11.266084
       4A    -11.207436     5A    -11.207197     6A     -1.380609
       7A     -1.044991     8A     -0.983572     9A     -0.847575
      10A     -0.826519    11A     -0.678333    12A     -0.668791
      13A     -0.612979    14A     -0.594144    15A     -0.549936
      16A     -0.532477    17A     -0.523046    18A     -0.495244
      19A     -0.487014    20A     -0.466846    21A     -0.412352

  @DF-RHF Final Energy:  -232.23285498827335

   => Energetics <=

    Nuclear Repulsion Energy =            191.2894497820659012
    One-Electron Energy =                -693.8518382078381137
    Two-Electron Energy =                 270.3295334374986396
    DFT Exchange-Correlation Energy =       0.0000000000000000
    Empirical Dispersion Energy =           0.0000000000000000
    PCM Polarization Energy =               0.0000000000000000
    EFP Energy =                            0.0000000000000000
    Total Energy =                       -232.2328549882735729
    Molecular point group: c1
  Basis Set: CC-PVTZ
  Basis Set:

  -Total Gradient:
     Atom            X                  Y                   Z
    ------   -----------------  -----------------  -----------------
       1        0.000001837893    -0.000002394427    -0.000000849892
       2        0.000011236557     0.000011025280     0.000007337951
       3        0.000012865144     0.001878284761     0.000018025426
       4        0.000015166000     0.000001067998    -0.000003141891
       5       -0.000008427691     0.000003697249     0.000009491422
       6        0.000182797127    -0.003198430204     0.000300653410
       7       -0.000003936319    -0.000003914569    -0.000007916157
       8       -0.000001115838     0.000002835835     0.000002263554
       9       -0.001008877463     0.003137026124    -0.001589709595
      10       -0.000000775667    -0.000008214976    -0.000004774071
      11        0.000793331895    -0.001811227615     0.001256391809
      12       -0.000000215403    -0.000003897827    -0.000004472566
      13        0.000009305106    -0.000005862328     0.000006407944
      14       -0.000003103806    -0.000003167281     0.000006104444
      15       -0.000000087537     0.000003171981     0.000004188209

  **** Optimization is complete! (in 4 steps) ****
    Final optimized geometry and variables:
    Molecular point group: c1

    Geometry (in Angstrom), charge = 0, multiplicity = 1:

    H            2.339668252831     0.765687901227    -1.066845016970
    C            2.353398124321    -0.107794961366    -0.426901348023
    C            1.169107331950    -0.092941918427     0.514650171541
    H            3.281028043020    -0.110006987895     0.134275510386
    H            2.328476974980    -0.989620295013    -1.054829669161
    O           -0.006032804917    -0.080717788092    -0.233705962985
    H            1.208919082277     0.785096696437     1.157391025832
    H            1.194090659444    -0.968480294844     1.162838107580
    C           -1.184248097195    -0.088483657960     0.512194216938
    C           -2.333116749731     0.365060143506    -0.361091602563
    H           -1.082109606425     0.556348068763     1.383189862652
    H           -1.373120398338    -1.092895690055     0.889905961705
    H           -2.170231983204     1.377113491272    -0.710275018146
    H           -3.263778858878     0.335858804379     0.194359391658
    H           -2.428405528571    -0.281061014917    -1.224890078568

  Mulliken Charges: (a.u.)
   Center  Symbol    Alpha    Beta     Spin     Total
       1     H     0.45163  0.45163  0.00000  0.09674
       2     C     3.13550  3.13550  0.00000 -0.27100
       3     C     2.96646  2.96646  0.00000  0.06708
       4     H     0.45896  0.45896  0.00000  0.08209
       5     H     0.45149  0.45149  0.00000  0.09702
       6     O     4.17982  4.17982  0.00000 -0.35963
       7     H     0.47251  0.47251  0.00000  0.05497
       8     H     0.47420  0.47420  0.00000  0.05160
       9     C     2.96810  2.96810  0.00000  0.06381
      10     C     3.13459  3.13459  0.00000 -0.26918
      11     H     0.47482  0.47482  0.00000  0.05037
      12     H     0.46940  0.46940  0.00000  0.06119
      13     H     0.45276  0.45276  0.00000  0.09449
      14     H     0.45896  0.45896  0.00000  0.08209
      15     H     0.45081  0.45081  0.00000  0.09837

   Total alpha = 21.00000, Total beta = 21.00000, Total charge =  0.00000
