  ==> Input File <==

--------------------------------------------------------------------------
set {
	reference rhf
	basis 6-31G*
}

set_num_threads( 1 )
memory 2 gb

molecule MOL {
0 1

H	 -2.585789	 -0.413940	 0.284576
N	 -1.852125	 0.165761	 -0.074816
C	 -0.563778	 -0.502042	 0.037919
H	 -1.858800	 1.009855	 0.465754
C	 0.575259	 0.508231	 -0.048326
H	 -0.482092	 -1.204004	 -0.786564
H	 -0.460411	 -1.085169	 0.956626
C	 1.954651	 -0.143624	 0.035137
H	 0.475158	 1.060484	 -0.977307
H	 0.469181	 1.234488	 0.755973
H	 2.103292	 -0.853109	 -0.774172
H	 2.742821	 0.599562	 -0.030094
H	 2.083613	 -0.679371	 0.971560

	symmetry c1
}
set optking {
	frozen_dihedral = ("
		6 3 5 9
	")
}

ee = energy('scf')
oeprop('DIPOLE', 'QUADRUPOLE', 'MULLIKEN_CHARGES')
f=open( 'psi4out.xyz', 'w' )
f.write( "13  " )
f.write( str(ee) + "\n" )
f.write( MOL.save_string_xyz() )
f.close()
--------------------------------------------------------------------------

    Molecular point group: c1

    Geometry (in Angstrom), charge = 0, multiplicity = 1:

       Center              X                  Y                   Z               Mass
    ------------   -----------------  -----------------  -----------------  -----------------
           H         -2.588574922695    -0.419664188887     0.282506760004     1.007825032070
           N         -1.854910922695     0.160036811113    -0.076885239996    14.003074004780
           C         -0.566563922695    -0.507766188887     0.035849760004    12.000000000000
           H         -1.861585922695     1.004130811113     0.463684760004     1.007825032070
           C          0.572473077305     0.502506811113    -0.050395239996    12.000000000000
           H         -0.484877922695    -1.209728188887    -0.788633239996     1.007825032070
           H         -0.463196922695    -1.090893188887     0.954556760004     1.007825032070
           C          1.951865077305    -0.149348188887     0.033067760004    12.000000000000
           H          0.472372077305     1.054759811113    -0.979376239996     1.007825032070
           H          0.466395077305     1.228763811113     0.753903760004     1.007825032070
           H          2.100506077305    -0.858833188887    -0.776241239996     1.007825032070
           H          2.740035077305     0.593837811113    -0.032163239996     1.007825032070
           H          2.080827077305    -0.685095188887     0.969490760004     1.007825032070

  Charge       = 0
  Multiplicity = 1
  Basis Set: 6-31G*
  Basis Set:

    Orbital Energies (a.u.)
    -----------------------

    Doubly Occupied:

       1A    -15.531524     2A    -11.239593     3A    -11.216340
       4A    -11.211472     5A     -1.176935     6A     -1.036784
       7A     -0.899150     8A     -0.804287     9A     -0.650394
      10A     -0.641188    11A     -0.603459    12A     -0.560733
      13A     -0.539076    14A     -0.495055    15A     -0.477158
      16A     -0.469812    17A     -0.380526

  @DF-RHF Final Energy:  -173.28100811674526

   => Energetics <=

    Nuclear Repulsion Energy =            131.9157031883106299
    One-Electron Energy =                -494.5264405730866315
    Two-Electron Energy =                 189.3297292680308601
    DFT Exchange-Correlation Energy =       0.0000000000000000
    Empirical Dispersion Energy =           0.0000000000000000
    PCM Polarization Energy =               0.0000000000000000
    EFP Energy =                            0.0000000000000000
    Total Energy =                       -173.2810081167451699

  Mulliken Charges: (a.u.)
   Center  Symbol    Alpha    Beta     Spin     Total
       1     H     0.33290  0.33290  0.00000  0.33421
       2     N     3.92387  3.92387  0.00000 -0.84775
       3     C     3.05235  3.05235  0.00000 -0.10469
       4     H     0.33529  0.33529  0.00000  0.32942
       5     C     3.15991  3.15991  0.00000 -0.31982
       6     H     0.42013  0.42013  0.00000  0.15974
       7     H     0.43499  0.43499  0.00000  0.13002
       8     C     3.24284  3.24284  0.00000 -0.48568
       9     H     0.41233  0.41233  0.00000  0.17534
      10     H     0.42680  0.42680  0.00000  0.14640
      11     H     0.41966  0.41966  0.00000  0.16068
      12     H     0.41748  0.41748  0.00000  0.16504
      13     H     0.42146  0.42146  0.00000  0.15709

   Total alpha = 17.00000, Total beta = 17.00000, Total charge =  0.00000
