  ==> Input File <==

--------------------------------------------------------------------------
set {
	reference rhf
	basis 6-31G*
}

set_num_threads( 4 )
memory 2 gb

molecule MOL {
0 1

O	 0.074228	 1.262779	 -0.000085
C	 0.028650	 0.075053	 -0.000277
C	 -1.233602	 -0.752807	 0.000328
O	 1.109162	 -0.694619	 -0.000298
C	 -2.501530	 0.091881	 0.000126
H	 -1.193807	 -1.406641	 -0.865785
H	 -1.193516	 -1.405779	 0.867015
H	 -2.545121	 0.729328	 -0.874513
H	 -3.377167	 -0.548497	 0.000561
H	 -2.544818	 0.730135	 0.874258
C	 1.266181	 -1.581755	 -1.092966
H	 0.438849	 -2.275018	 -1.141156
H	 2.188323	 -2.111789	 -0.912462
H	 1.324917	 -1.033412	 -2.022127

	symmetry c1
}
set optking {
	frozen_dihedral = ("
		11 4 2 3
	")
}

ee = optimize('scf')
oeprop('DIPOLE', 'QUADRUPOLE', 'MULLIKEN_CHARGES')
f=open( 'psi4out.xyz', 'w' )
f.write( "14  " )
f.write( str(ee) + "\n" )
f.write( MOL.save_string_xyz() )
f.close()
--------------------------------------------------------------------------

    Molecular point group: c1
  Charge       = 0
  Multiplicity = 1
  Basis Set: 6-31G*
  Basis Set:
  @DF-RHF Final Energy:  -305.84667873924832
    Total Energy =                       -305.8466787392483184
    Molecular point group: c1
  Basis Set: 6-31G*
  Basis Set:
  Basis Set: 6-31G*
  Basis Set:
  @DF-RHF Final Energy:  -305.84900102372023
    Total Energy =                       -305.8490010237203478
  Basis Set: 6-31G*
  Basis Set:
  Basis Set: 6-31G*
  Basis Set:
  @DF-RHF Final Energy:  -305.85157990038454
    Total Energy =                       -305.8515799003844791
  Basis Set: 6-31G*
  Basis Set:
  Basis Set: 6-31G*
  Basis Set:
  @DF-RHF Final Energy:  -305.85153978809763
    Total Energy =                       -305.8515397880976820
  Basis Set: 6-31G*
  Basis Set:
  Basis Set: 6-31G*
  Basis Set:
  @DF-RHF Final Energy:  -305.85186894764377
    Total Energy =                       -305.8518689476435384
  Basis Set: 6-31G*
  Basis Set:
  Basis Set: 6-31G*
  Basis Set:
  @DF-RHF Final Energy:  -305.85196231438971
    Total Energy =                       -305.8519623143899935
  Basis Set: 6-31G*
  Basis Set:
  Basis Set: 6-31G*
  Basis Set:
  @DF-RHF Final Energy:  -305.85196431852432
    Total Energy =                       -305.8519643185243240
  Basis Set: 6-31G*
  Basis Set:
  Charge       = 0
  Multiplicity = 1
  Basis Set: 6-31G*
  Basis Set:

    Orbital Energies (a.u.)
    -----------------------

    Doubly Occupied:

       1A    -20.591435     2A    -20.553040     3A    -11.375212
       4A    -11.295604     5A    -11.245714     6A    -11.220621
       7A     -1.460397     8A     -1.368662     9A     -1.062491
      10A     -0.980686    11A     -0.896531    12A     -0.767395
      13A     -0.702121    14A     -0.679695    15A     -0.673949
      16A     -0.628517    17A     -0.611456    18A     -0.560288
      19A     -0.546524    20A     -0.524879    21A     -0.512412
      22A     -0.489922    23A     -0.456451    24A     -0.436063

  @DF-RHF Final Energy:  -305.85196482435697

   => Energetics <=

    Nuclear Repulsion Energy =            246.8633087554965186
    One-Electron Energy =                -906.1504114849751659
    Two-Electron Energy =                 353.4351379051217350
    DFT Exchange-Correlation Energy =       0.0000000000000000
    Empirical Dispersion Energy =           0.0000000000000000
    PCM Polarization Energy =               0.0000000000000000
    EFP Energy =                            0.0000000000000000
    Total Energy =                       -305.8519648243569122
    Molecular point group: c1
  Basis Set: 6-31G*
  Basis Set:

  -Total Gradient:
     Atom            X                  Y                   Z
    ------   -----------------  -----------------  -----------------
       1        0.000056484747    -0.000030067738     0.000064844192
       2        0.000825826885     0.000849362778    -0.004540467457
       3       -0.000062339742     0.000098901077     0.002420923004
       4       -0.002116626712    -0.002810305042     0.003450028494
       5        0.000014369220    -0.000016229166     0.000019165185
       6        0.000003152072    -0.000043229764     0.000047126436
       7        0.000021176076    -0.000005380446    -0.000011102948
       8       -0.000006726554     0.000005912282    -0.000000468754
       9       -0.000002048891     0.000001313970    -0.000001207905
      10       -0.000002396191     0.000002299590    -0.000007158566
      11        0.001241108043     0.001934249631    -0.001444111553
      12        0.000026233269     0.000012465271    -0.000006040891
      13        0.000003541474    -0.000002548848     0.000014418340
      14       -0.000001753705     0.000003256402    -0.000005947577

  **** Optimization is complete! (in 8 steps) ****
    Final optimized geometry and variables:
    Molecular point group: c1

    Geometry (in Angstrom), charge = 0, multiplicity = 1:

    O            0.250949254586     1.507395116617     0.175187007192
    C            0.192209794604     0.328338968879     0.129557090880
    C           -1.104569688236    -0.454504284721     0.127716949075
    O            1.317241011807    -0.411703936099     0.185532065152
    C           -2.334430117650     0.432646399615     0.281036503202
    H           -1.167945523766    -1.029625094771    -0.792283868006
    H           -1.039222568576    -1.182673530112     0.931233791645
    H           -2.401383100513     1.147413004706    -0.529652918535
    H           -3.234210800828    -0.173225230482     0.279970914132
    H           -2.297925653703     0.990146299586     1.208699544417
    C            1.585559429981    -1.346049196712    -0.835947409332
    H            0.921530911165    -2.200904349815    -0.785215963832
    H            2.599763908267    -1.678848795962    -0.680211191994
    H            1.511063228328    -0.883737035672    -1.813502577812

  Mulliken Charges: (a.u.)
   Center  Symbol    Alpha    Beta     Spin     Total
       1     O     4.25322  4.25322  0.00000 -0.50644
       2     C     2.61226  2.61226  0.00000  0.77547
       3     C     3.22015  3.22015  0.00000 -0.44030
       4     O     4.30897  4.30897  0.00000 -0.61793
       5     C     3.23691  3.23691  0.00000 -0.47383
       6     H     0.40632  0.40632  0.00000  0.18736
       7     H     0.39947  0.39947  0.00000  0.20106
       8     H     0.40851  0.40851  0.00000  0.18297
       9     H     0.41828  0.41828  0.00000  0.16343
      10     H     0.40792  0.40792  0.00000  0.18416
      11     C     3.09397  3.09397  0.00000 -0.18795
      12     H     0.41926  0.41926  0.00000  0.16148
      13     H     0.39978  0.39978  0.00000  0.20044
      14     H     0.41496  0.41496  0.00000  0.17008

   Total alpha = 24.00000, Total beta = 24.00000, Total charge =  0.00000
