                              Psi4 1.0.54 Driver

  ==> Input File <==

--------------------------------------------------------------------------
set {
	reference rhf
	basis cc-pvtz
}

set_num_threads( 4 )
memory 2 gb

molecule MOL {
0 1

O	 -2.081319	 -0.951530	 -0.502732
N	 -1.613558	 0.006676	 0.014756
C	 -0.329345	 -0.171618	 0.743966
O	 -2.068523	 1.100482	 -0.024385
C	 0.835904	 0.041968	 -0.213982
H	 -0.346048	 -1.174374	 1.137184
H	 -0.333613	 0.555559	 1.538590
C	 2.177039	 -0.130175	 0.494460
H	 0.754456	 -0.665923	 -1.030569
H	 0.765464	 1.037260	 -0.637266
C	 2.025727	 -0.724716	 1.890205
H	 2.674943	 0.832502	 0.563607
H	 2.821261	 -0.768880	 -0.102567
H	 1.413287	 -0.090087	 2.520968
H	 1.558604	 -1.702413	 1.849962
H	 2.990405	 -0.837314	 2.369663

	symmetry c1
}
set optking {
	frozen_dihedral = ("
		11 8 5 9
	")
}

ee,wfn = optimize('scf', return_wfn=True)
oeprop( wfn, 'DIPOLE', 'QUADRUPOLE', 'MULLIKEN_CHARGES')
f=open( 'psi4out.xyz', 'w' )
f.write( "16  " )
f.write( str(ee) + "\n" )
f.write( MOL.save_string_xyz() )
f.close()
--------------------------------------------------------------------------

    Molecular point group: c1
  Charge       = 0
  Multiplicity = 1
  Basis Set: CC-PVTZ
  Basis Set:
  @DF-RHF Final Energy:  -360.89618194552855
    Total Energy =                       -360.8961819455287241
    Molecular point group: c1
  Basis Set: CC-PVTZ
  Basis Set:
  Basis Set: CC-PVTZ
  Basis Set:
  @DF-RHF Final Energy:  -360.72794402190601
    Total Energy =                       -360.7279440219059552
  Basis Set: CC-PVTZ
  Basis Set:
  Basis Set: CC-PVTZ
  Basis Set:
  @DF-RHF Final Energy:  -360.85521674769228
    Total Energy =                       -360.8552167476923955
  Basis Set: CC-PVTZ
  Basis Set:
  Basis Set: CC-PVTZ
  Basis Set:
  @DF-RHF Final Energy:  -360.89749219925943
    Total Energy =                       -360.8974921992596592
  Basis Set: CC-PVTZ
  Basis Set:
  @DF-RHF Final Energy:  -360.90021092776908
    Total Energy =                       -360.9002109277691943
  @DF-RHF Final Energy:  -360.87757825063915
    Total Energy =                       -360.8775782506391465
  @DF-RHF Final Energy:  -360.89412593266826
    Total Energy =                       -360.8941259326684303
  Basis Set: CC-PVTZ
  Basis Set:
  @DF-RHF Final Energy:  -360.90037250424052
    Total Energy =                       -360.9003725042402380
  Basis Set: CC-PVTZ
  Basis Set:
  Basis Set: CC-PVTZ
  Basis Set:
  @DF-RHF Final Energy:  -360.90057059173523
    Total Energy =                       -360.9005705917355158
  Basis Set: CC-PVTZ
  Basis Set:
  Basis Set: CC-PVTZ
  Basis Set:
  @DF-RHF Final Energy:  -360.90058955358506
    Total Energy =                       -360.9005895535849504
  Basis Set: CC-PVTZ
  Basis Set:
  Charge       = 0
  Multiplicity = 1
  Basis Set: CC-PVTZ
  Basis Set:

    Orbital Energies (a.u.)
    -----------------------

    Doubly Occupied:

       1A    -20.589401     2A    -20.589313     3A    -15.835805
       4A    -11.295925     5A    -11.250551     6A    -11.241954
       7A    -11.230246     8A     -1.634815     9A     -1.419164
      10A     -1.134471    11A     -1.055811    12A     -0.952861
      13A     -0.857711    14A     -0.815150    15A     -0.761164
      16A     -0.737486    17A     -0.721022    18A     -0.675155
      19A     -0.616546    20A     -0.607991    21A     -0.576898
      22A     -0.556868    23A     -0.509942    24A     -0.502292
      25A     -0.490253    26A     -0.480945    27A     -0.471883
      28A     -0.451004

  @DF-RHF Final Energy:  -360.90059012220235

   => Energetics <=

    Nuclear Repulsion Energy =            316.7516481175677541
    One-Electron Energy =               -1119.1792218976379445
    Two-Electron Energy =                 441.5269836578673903
    DFT Exchange-Correlation Energy =       0.0000000000000000
    Empirical Dispersion Energy =           0.0000000000000000
    PCM Polarization Energy =               0.0000000000000000
    EFP Energy =                            0.0000000000000000
    Total Energy =                       -360.9005901222027433
    Molecular point group: c1
  Basis Set: CC-PVTZ
  Basis Set:

  -Total Gradient:
     Atom            X                  Y                   Z
    ------   -----------------  -----------------  -----------------
       1        0.000059284868    -0.000105245889     0.000054031734
       2       -0.000036894962    -0.000050569447    -0.000044126077
       3        0.000027963438    -0.000018037167     0.000013521829
       4        0.000007389314     0.000162311235     0.000002436179
       5       -0.001790376577    -0.001316290604     0.004079374529
       6       -0.000004742277    -0.000001423303     0.000001637445
       7       -0.000021150098     0.000003198261    -0.000004893396
       8        0.001659475658    -0.003562454763    -0.001112268931
       9        0.001092969309     0.002090906903    -0.003228858823
      10        0.000013026292    -0.000006089317     0.000009125994
      11       -0.000986047082     0.002808506246     0.000253949245
      12       -0.000007403147     0.000002694500    -0.000014814469
      13       -0.000014032219    -0.000002665553    -0.000012742461
      14        0.000008399388     0.000000812726     0.000006050094
      15       -0.000010251983    -0.000003921099     0.000002710666
      16        0.000002390071    -0.000001732730    -0.000005133561

  **** Optimization is complete! (in 11 steps) ****
    Final optimized geometry and variables:
    Molecular point group: c1

    Geometry (in Angstrom), charge = 0, multiplicity = 1:

    O           -1.624710936333    -1.467153372336    -0.582688809738
    N           -1.415645183808    -0.314970456233    -0.399026691486
    C           -0.227426839596     0.039206970913     0.424378422035
    O           -2.059107384003     0.579125340493    -0.836953207562
    C            0.978644402605     0.186300537067    -0.497162687689
    H           -0.112808758606    -0.761318201614     1.133588185216
    H           -0.478302114502     0.961790178883     0.918988774590
    C            2.300449099171     0.581660266124     0.206854429879
    H            1.113418214941    -0.734000910556    -1.050806051155
    H            0.735432605483     0.939916978035    -1.235449921181
    C            2.337365105863     0.465271919970     1.730509418050
    H            2.529862895779     1.608898084009    -0.051047522713
    H            3.100217590152    -0.016587109426    -0.210903093692
    H            1.604253792806     1.106339201790     2.205411224189
    H            2.164354700581    -0.550730398115     2.067667022277
    H            3.311633104624     0.764929863821     2.096287370510

  Mulliken Charges: (a.u.)
   Center  Symbol    Alpha    Beta     Spin     Total
       1     O     4.17409  4.17409  0.00000 -0.34818
       2     N     3.27374  3.27374  0.00000  0.45253
       3     C     3.04390  3.04390  0.00000 -0.08780
       4     O     4.17433  4.17433  0.00000 -0.34865
       5     C     3.11273  3.11273  0.00000 -0.22546
       6     H     0.43252  0.43252  0.00000  0.13495
       7     H     0.43212  0.43212  0.00000  0.13576
       8     C     3.09167  3.09167  0.00000 -0.18335
       9     H     0.43527  0.43527  0.00000  0.12947
      10     H     0.43508  0.43508  0.00000  0.12984
      11     C     3.15997  3.15997  0.00000 -0.31994
      12     H     0.44687  0.44687  0.00000  0.10625
      13     H     0.44471  0.44471  0.00000  0.11059
      14     H     0.45332  0.45332  0.00000  0.09337
      15     H     0.45027  0.45027  0.00000  0.09946
      16     H     0.43942  0.43942  0.00000  0.12116

   Total alpha = 28.00000, Total beta = 28.00000, Total charge = -0.00000

*** Psi4 exiting successfully. Buy a developer a beer!
