  ==> Input File <==

--------------------------------------------------------------------------
set {
	reference rhf
	basis cc-pvtz
}

set_num_threads( 4 )
memory 2 gb

molecule MOL {
0 1

H	 2.088631	 1.167801	 -0.440551
C	 1.937502	 0.127533	 -0.175668
N	 0.526300	 -0.128137	 0.000000
H	 2.462093	 -0.054133	 0.753763
H	 2.400225	 -0.482636	 -0.954226
C	 -0.247113	 0.037112	 -1.209233
H	 0.389986	 -1.044352	 0.368277
H	 -0.996493	 -0.743733	 -1.271440
H	 0.397975	 -0.057351	 -2.073512
H	 -0.763794	 0.997171	 -1.271673

	symmetry c1
}
set optking {
	frozen_dihedral = ("
		2 3 6 8
	")
}

ee = optimize('scf')
oeprop('DIPOLE', 'QUADRUPOLE', 'MULLIKEN_CHARGES')
f=open( 'psi4out.xyz', 'w' )
f.write( "10  " )
f.write( str(ee) + "\n" )
f.write( MOL.save_string_xyz() )
f.close()
--------------------------------------------------------------------------

    Molecular point group: c1
  Charge       = 0
  Multiplicity = 1
  Basis Set: CC-PVTZ
  Basis Set:
  @DF-RHF Final Energy:  -134.28916954926649
    Total Energy =                       -134.2891695492665178
    Molecular point group: c1
  Basis Set: CC-PVTZ
  Basis Set:
  Basis Set: CC-PVTZ
  Basis Set:
  @DF-RHF Final Energy:  -134.28971857852770
    Total Energy =                       -134.2897185785277259
  Basis Set: CC-PVTZ
  Basis Set:
  Basis Set: CC-PVTZ
  Basis Set:
  @DF-RHF Final Energy:  -134.28978575208362
    Total Energy =                       -134.2897857520836169
  Basis Set: CC-PVTZ
  Basis Set:
  Charge       = 0
  Multiplicity = 1
  Basis Set: CC-PVTZ
  Basis Set:

    Orbital Energies (a.u.)
    -----------------------

    Doubly Occupied:

       1A    -15.531227     2A    -11.234405     3A    -11.234241
       4A     -1.198445     5A     -0.948333     6A     -0.854685
       7A     -0.661206     8A     -0.613047     9A     -0.590008
      10A     -0.545271    11A     -0.508645    12A     -0.504303
      13A     -0.362874

  @DF-RHF Final Energy:  -134.28978692540136

   => Energetics <=

    Nuclear Repulsion Energy =             84.5714098225762569
    One-Electron Energy =                -348.1490139978557181
    Two-Electron Energy =                 129.2878172498781169
    DFT Exchange-Correlation Energy =       0.0000000000000000
    Empirical Dispersion Energy =           0.0000000000000000
    PCM Polarization Energy =               0.0000000000000000
    EFP Energy =                            0.0000000000000000
    Total Energy =                       -134.2897869254013585
    Molecular point group: c1
  Basis Set: CC-PVTZ
  Basis Set:

  -Total Gradient:
     Atom            X                  Y                   Z
    ------   -----------------  -----------------  -----------------
       1       -0.000010337460    -0.000006625344    -0.000001415612
       2        0.000331556558    -0.002743742356    -0.000530010377
       3        0.000101877818     0.003265746672     0.000252262194
       4        0.000040790787    -0.000001881664     0.000010777891
       5       -0.000022255939     0.000002104364    -0.000007824982
       6       -0.002786021996     0.001556152522     0.002085138451
       7        0.000011940281     0.000048028456     0.000016731802
       8        0.002356492090    -0.002129350932    -0.001805789054
       9       -0.000006645966     0.000009913191    -0.000008860888
      10       -0.000017396172    -0.000000344908    -0.000011009424

  **** Optimization is complete! (in 4 steps) ****
    Final optimized geometry and variables:
    Molecular point group: c1

    Geometry (in Angstrom), charge = 0, multiplicity = 1:

    H            1.353701388196     1.167910820966     0.038916131689
    C            1.194772008303     0.130517155433     0.311032218570
    N           -0.218506685800    -0.123546609125     0.475587408229
    H            1.709168580633    -0.042765500589     1.247977987632
    H            1.662525008126    -0.487965286322    -0.457069989930
    C           -1.001636207946     0.031007975493    -0.737576954302
    H           -0.347248376159    -1.038126191220     0.846135590070
    H           -1.753589770858    -0.745694897500    -0.803799132003
    H           -0.391135000301    -0.054702821545    -1.635587455692
    H           -1.497048288695     0.994691675813    -0.765756070616

  Mulliken Charges: (a.u.)
   Center  Symbol    Alpha    Beta     Spin     Total
       1     H     0.45656  0.45656  0.00000  0.08688
       2     C     3.08300  3.08300  0.00000 -0.16600
       3     N     3.62922  3.62922  0.00000 -0.25844
       4     H     0.45303  0.45303  0.00000  0.09393
       5     H     0.47384  0.47384  0.00000  0.05231
       6     C     3.07607  3.07607  0.00000 -0.15213
       7     H     0.44118  0.44118  0.00000  0.11763
       8     H     0.45815  0.45815  0.00000  0.08370
       9     H     0.47339  0.47339  0.00000  0.05322
      10     H     0.45556  0.45556  0.00000  0.08889

   Total alpha = 13.00000, Total beta = 13.00000, Total charge =  0.00000
