                              Psi4 1.0.54 Driver

  ==> Input File <==

--------------------------------------------------------------------------
set {
	reference rhf
	basis cc-pvtz
}

set_num_threads( 4 )
memory 2 gb

molecule MOL {
0 1

O	 -1.347323	 1.497614	 -1.971410
C	 -1.646214	 0.821005	 -1.041735
C	 -0.881910	 -0.448129	 -0.720509
C	 -2.784882	 1.195750	 -0.123165
C	 0.376695	 -0.140025	 0.100361
H	 -0.599789	 -0.907285	 -1.659495
H	 -1.515447	 -1.141827	 -0.178033
C	 1.630207	 -0.772146	 -0.501001
H	 0.486632	 0.935267	 0.162725
H	 0.248225	 -0.501310	 1.117842
C	 2.907848	 -0.545876	 0.309149
H	 1.772784	 -0.391628	 -1.509394
H	 1.468529	 -1.842059	 -0.599744
C	 3.373802	 0.906639	 0.372125
H	 3.699140	 -1.146831	 -0.127906
H	 2.764321	 -0.923458	 1.318191
H	 3.519798	 1.311927	 -0.623875
H	 4.316899	 0.983758	 0.900700
H	 2.661122	 1.540651	 0.885346
H	 -3.588890	 0.476034	 -0.239691
H	 -3.147658	 2.183143	 -0.364035
H	 -2.469050	 1.157869	 0.913370

	symmetry c1
}
set optking {
	frozen_dihedral = ("
		6 3 5 8
	")
}

ee,wfn = optimize('scf', return_wfn=True)
oeprop( wfn, 'DIPOLE', 'QUADRUPOLE', 'MULLIKEN_CHARGES')
f=open( 'psi4out.xyz', 'w' )
f.write( "22  " )
f.write( str(ee) + "\n" )
f.write( MOL.save_string_xyz() )
f.close()
--------------------------------------------------------------------------

    Molecular point group: c1
  Charge       = 0
  Multiplicity = 1
  Basis Set: CC-PVTZ
  Basis Set:
  @DF-RHF Final Energy:  -348.21808422112491
    Total Energy =                       -348.2180842211246272
    Molecular point group: c1
  Basis Set: CC-PVTZ
  Basis Set:
  Basis Set: CC-PVTZ
  Basis Set:
  @DF-RHF Final Energy:  -348.21828515388927
    Total Energy =                       -348.2182851538897239
  Basis Set: CC-PVTZ
  Basis Set:
  Basis Set: CC-PVTZ
  Basis Set:
  @DF-RHF Final Energy:  -348.21854708526740
    Total Energy =                       -348.2185470852675166
  Basis Set: CC-PVTZ
  Basis Set:
  Basis Set: CC-PVTZ
  Basis Set:
  @DF-RHF Final Energy:  -348.21867554275553
    Total Energy =                       -348.2186755427555909
  Basis Set: CC-PVTZ
  Basis Set:
  @DF-RHF Final Energy:  -348.21876085588292
    Total Energy =                       -348.2187608558824650
  @DF-RHF Final Energy:  -348.21880682431595
    Total Energy =                       -348.2188068243161183
  Basis Set: CC-PVTZ
  Basis Set:
  @DF-RHF Final Energy:  -348.21882502197349
    Total Energy =                       -348.2188250219735437
  Basis Set: CC-PVTZ
  Basis Set:
  Basis Set: CC-PVTZ
  Basis Set:
  @DF-RHF Final Energy:  -348.21882659539438
    Total Energy =                       -348.2188265953942619
  Basis Set: CC-PVTZ
  Basis Set:
  Basis Set: CC-PVTZ
  Basis Set:
  @DF-RHF Final Energy:  -348.21882944135461
    Total Energy =                       -348.2188294413547283
  Basis Set: CC-PVTZ
  Basis Set:
  Charge       = 0
  Multiplicity = 1
  Basis Set: CC-PVTZ
  Basis Set:

    Orbital Energies (a.u.)
    -----------------------

    Doubly Occupied:

       1A    -20.536648     2A    -11.318925     3A    -11.230314
       4A    -11.227306     5A    -11.226300     6A    -11.220227
       7A    -11.218792     8A    -11.210187     9A     -1.396437
      10A     -1.096747    11A     -1.045735    12A     -0.998079
      13A     -0.939139    14A     -0.861553    15A     -0.788004
      16A     -0.735914    17A     -0.662136    18A     -0.641089
      19A     -0.632044    20A     -0.615439    21A     -0.604798
      22A     -0.589287    23A     -0.554814    24A     -0.543499
      25A     -0.536093    26A     -0.523772    27A     -0.500836
      28A     -0.490249    29A     -0.469943    30A     -0.465046
      31A     -0.460366    32A     -0.398803

  @DF-RHF Final Energy:  -348.21883021301522

   => Energetics <=

    Nuclear Repulsion Energy =            375.4004659178422685
    One-Electron Energy =               -1215.7615505644630503
    Two-Electron Energy =                 492.1422544336060128
    DFT Exchange-Correlation Energy =       0.0000000000000000
    Empirical Dispersion Energy =           0.0000000000000000
    PCM Polarization Energy =               0.0000000000000000
    EFP Energy =                            0.0000000000000000
    Total Energy =                       -348.2188302130148259
    Molecular point group: c1
  Basis Set: CC-PVTZ
  Basis Set:

  -Total Gradient:
     Atom            X                  Y                   Z
    ------   -----------------  -----------------  -----------------
       1       -0.000001540845     0.000000502945    -0.000002565756
       2       -0.000003641049    -0.000009591525     0.000016352105
       3        0.000220894579     0.003216482586    -0.001424540023
       4       -0.000052882620    -0.000020366696    -0.000027053659
       5       -0.000352886941    -0.002485021573     0.001386091711
       6       -0.000084462179    -0.002130703096     0.000891890044
       7       -0.000024009222     0.000000417050    -0.000021287253
       8        0.000233328722     0.001422500379    -0.000838957717
       9        0.000027041821    -0.000001321297     0.000018497029
      10        0.000001760141     0.000008456329    -0.000000984463
      11        0.000000835337     0.000007223100    -0.000001769779
      12       -0.000000526218    -0.000004999390    -0.000000444494
      13        0.000003391349    -0.000001703732     0.000004638981
      14        0.000003448812    -0.000003005378     0.000000219772
      15       -0.000004390446    -0.000002199699     0.000003030595
      16       -0.000005166873     0.000009087788    -0.000006515888
      17       -0.000005394438    -0.000000938306     0.000000259527
      18        0.000002211960    -0.000000652366    -0.000002267075
      19        0.000003804728    -0.000005764185    -0.000000970909
      20       -0.000000455701    -0.000001128153     0.000020106883
      21        0.000009207444     0.000002299792    -0.000009569630
      22        0.000029431636     0.000000425423    -0.000004159998

  **** Optimization is complete! (in 10 steps) ****
    Final optimized geometry and variables:
    Molecular point group: c1

    Geometry (in Angstrom), charge = 0, multiplicity = 1:

    O           -1.812898675325     0.932054287855    -1.759665075425
    C           -1.876303231928     0.375880152872    -0.711824211367
    C           -1.011396584269    -0.825274958236    -0.398549412903
    C           -2.819965079673     0.842008469688     0.372991236215
    C            0.180954291427    -0.464179376530     0.522194667880
    H           -0.656973792765    -1.233969174881    -1.334018425541
    H           -1.621728119453    -1.587348489087     0.074600438447
    C            1.509878179358    -0.995426054603    -0.013824669606
    H            0.248219665645     0.613177344786     0.622799760566
    H            0.009446842413    -0.852260802873     1.520286724121
    C            2.712456861702    -0.739892118661     0.895419316862
    H            1.694274327313    -0.557318533202    -0.990816388666
    H            1.417628608445    -2.066390974600    -0.172579938792
    C            3.085111646387     0.731185347719     1.064218102125
    H            3.566310820157    -1.269889833604     0.485335405520
    H            2.524823787604    -1.179572185247     1.871601083634
    H            3.265126613616     1.200103373555     0.102431615461
    H            3.988414551439     0.832007880040     1.654624425682
    H            2.306599870414     1.293841115634     1.565347253487
    H           -3.615363315111     0.112302862072     0.486536477918
    H           -3.246491851844     1.797127095274     0.107597271722
    H           -2.311189913502     0.913970603047     1.327160262435

  Mulliken Charges: (a.u.)
   Center  Symbol    Alpha    Beta     Spin     Total
       1     O     4.17640  4.17640  0.00000 -0.35279
       2     C     2.85857  2.85857  0.00000  0.28286
       3     C     3.09978  3.09978  0.00000 -0.19956
       4     C     3.15616  3.15616  0.00000 -0.31231
       5     C     3.10553  3.10553  0.00000 -0.21105
       6     H     0.43976  0.43976  0.00000  0.12048
       7     H     0.44494  0.44494  0.00000  0.11013
       8     C     3.09444  3.09444  0.00000 -0.18888
       9     H     0.44868  0.44868  0.00000  0.10263
      10     H     0.44879  0.44879  0.00000  0.10241
      11     C     3.09221  3.09221  0.00000 -0.18442
      12     H     0.44682  0.44682  0.00000  0.10636
      13     H     0.44738  0.44738  0.00000  0.10525
      14     C     3.15222  3.15222  0.00000 -0.30444
      15     H     0.44717  0.44717  0.00000  0.10567
      16     H     0.45488  0.45488  0.00000  0.09024
      17     H     0.45211  0.45211  0.00000  0.09578
      18     H     0.44584  0.44584  0.00000  0.10833
      19     H     0.45491  0.45491  0.00000  0.09017
      20     H     0.44810  0.44810  0.00000  0.10381
      21     H     0.43571  0.43571  0.00000  0.12859
      22     H     0.44962  0.44962  0.00000  0.10076

   Total alpha = 32.00000, Total beta = 32.00000, Total charge = -0.00000

*** Psi4 exiting successfully. Buy a developer a beer!
