  ==> Input File <==

--------------------------------------------------------------------------
set {
	reference rhf
	basis 6-31G*
}

set_num_threads( 4 )
memory 2 gb

molecule MOL {
0 1

O	 1.214711	 1.306902	 -0.000018
C	 1.122059	 0.121804	 -0.000188
C	 -0.170150	 -0.657997	 -0.000612
O	 2.172624	 -0.688929	 0.000216
C	 -1.412532	 0.227344	 -0.000452
H	 -0.153702	 -1.313099	 -0.867402
H	 -0.153924	 -1.313811	 0.865644
C	 -1.066368	 1.714934	 -0.081777
H	 -1.991231	 0.032644	 0.897158
H	 -2.049251	 -0.048515	 -0.835313
C	 -2.305445	 2.609187	 -0.083439
H	 -0.427674	 1.985833	 0.756531
H	 -0.484383	 1.904009	 -0.981563
H	 -2.891019	 2.468409	 0.820408
H	 -2.032381	 3.658162	 -0.141432
H	 -2.947808	 2.386429	 -0.930428
C	 3.452279	 -0.082609	 0.000533
H	 3.583069	 0.529321	 -0.880332
H	 4.163299	 -0.894027	 0.001117
H	 3.582335	 0.529955	 0.881077

	symmetry c1
}
set optking {
	frozen_dihedral = ("
		9 5 3 6
	")
}

ee = optimize('scf')
oeprop('DIPOLE', 'QUADRUPOLE', 'MULLIKEN_CHARGES')
f=open( 'psi4out.xyz', 'w' )
f.write( "20  " )
f.write( str(ee) + "\n" )
f.write( MOL.save_string_xyz() )
f.close()
--------------------------------------------------------------------------

    Molecular point group: c1
  Charge       = 0
  Multiplicity = 1
  Basis Set: 6-31G*
  Basis Set:
  @DF-RHF Final Energy:  -383.90216196780204
    Total Energy =                       -383.9021619678019306
    Molecular point group: c1
  Basis Set: 6-31G*
  Basis Set:
  Basis Set: 6-31G*
  Basis Set:
  @DF-RHF Final Energy:  -383.92304936799974
    Total Energy =                       -383.9230493680000791
  Basis Set: 6-31G*
  Basis Set:
  Basis Set: 6-31G*
  Basis Set:
  @DF-RHF Final Energy:  -383.92714985144733
    Total Energy =                       -383.9271498514472114
  Basis Set: 6-31G*
  Basis Set:
  Basis Set: 6-31G*
  Basis Set:
  @DF-RHF Final Energy:  -383.92564478701104
    Total Energy =                       -383.9256447870109241
  Basis Set: 6-31G*
  Basis Set:
  @DF-RHF Final Energy:  -383.92867105661082
    Total Energy =                       -383.9286710566105967
  @DF-RHF Final Energy:  -383.92916208066424
    Total Energy =                       -383.9291620806643550
  @DF-RHF Final Energy:  -383.92913859693743
    Total Energy =                       -383.9291385969372641
  @DF-RHF Final Energy:  -383.92934825646404
    Total Energy =                       -383.9293482564643227
  @DF-RHF Final Energy:  -383.92973142568252
    Total Energy =                       -383.9297314256823483
  @DF-RHF Final Energy:  -383.92996914080578
    Total Energy =                       -383.9299691408056106
  @DF-RHF Final Energy:  -383.93017430733556
    Total Energy =                       -383.9301743073355055
  @DF-RHF Final Energy:  -383.93044155957074
    Total Energy =                       -383.9304415595704540
  @DF-RHF Final Energy:  -383.93009647683999
    Total Energy =                       -383.9300964768400490
  @DF-RHF Final Energy:  -383.93078366879348
    Total Energy =                       -383.9307836687935378
  @DF-RHF Final Energy:  -383.93095960598595
    Total Energy =                       -383.9309596059855494
  @DF-RHF Final Energy:  -383.93102516742078
    Total Energy =                       -383.9310251674206711
  @DF-RHF Final Energy:  -383.93116230332112
    Total Energy =                       -383.9311623033211163
  @DF-RHF Final Energy:  -383.93156171336722
    Total Energy =                       -383.9315617133669321
  @DF-RHF Final Energy:  -383.93183118743406
    Total Energy =                       -383.9318311874341134
  @DF-RHF Final Energy:  -383.93200416948088
    Total Energy =                       -383.9320041694808197
  @DF-RHF Final Energy:  -383.93212592543750
    Total Energy =                       -383.9321259254377310
  @DF-RHF Final Energy:  -383.93219823780908
    Total Energy =                       -383.9321982378096436
  Basis Set: 6-31G*
  Basis Set:
  @DF-RHF Final Energy:  -383.93220665860787
    Total Energy =                       -383.9322066586081519
  Basis Set: 6-31G*
  Basis Set:
  Basis Set: 6-31G*
  Basis Set:
  @DF-RHF Final Energy:  -383.93221275508841
    Total Energy =                       -383.9322127550883579
  Basis Set: 6-31G*
  Basis Set:
  Basis Set: 6-31G*
  Basis Set:
  @DF-RHF Final Energy:  -383.93222060452069
    Total Energy =                       -383.9322206045203529
  Basis Set: 6-31G*
  Basis Set:
  Charge       = 0
  Multiplicity = 1
  Basis Set: 6-31G*
  Basis Set:

    Orbital Energies (a.u.)
    -----------------------

    Doubly Occupied:

       1A    -20.604917     2A    -20.542933     3A    -11.371276
       4A    -11.280644     5A    -11.233880     6A    -11.230806
       7A    -11.220197     8A    -11.212798     9A     -1.468970
      10A     -1.361168    11A     -1.087536    12A     -1.022083
      13A     -0.967700    14A     -0.890642    15A     -0.813892
      16A     -0.768101    17A     -0.686675    18A     -0.678052
      19A     -0.674411    20A     -0.643756    21A     -0.594711
      22A     -0.592967    23A     -0.580470    24A     -0.555688
      25A     -0.529968    26A     -0.520266    27A     -0.511746
      28A     -0.484691    29A     -0.471864    30A     -0.467379
      31A     -0.452617    32A     -0.431458

  @DF-RHF Final Energy:  -383.93222081460505

   => Energetics <=

    Nuclear Repulsion Energy =            394.8580237528769317
    One-Electron Energy =               -1305.6719700658788952
    Two-Electron Energy =                 526.8817254983969178
    DFT Exchange-Correlation Energy =       0.0000000000000000
    Empirical Dispersion Energy =           0.0000000000000000
    PCM Polarization Energy =               0.0000000000000000
    EFP Energy =                            0.0000000000000000
    Total Energy =                       -383.9322208146049888
    Molecular point group: c1
  Basis Set: 6-31G*
  Basis Set:

  -Total Gradient:
     Atom            X                  Y                   Z
    ------   -----------------  -----------------  -----------------
       1        0.000055355909     0.000004324322     0.000070972207
       2        0.000018076392     0.000037477547    -0.000005850535
       3        0.000521272139     0.000473637273    -0.000580141158
       4       -0.000002794039    -0.000074830490    -0.000011440337
       5        0.000370428555     0.000603429239     0.000481597521
       6       -0.000527299745    -0.000410946834     0.000403058547
       7        0.000023676221     0.000005197341    -0.000027239609
       8       -0.000074370844    -0.000001327699    -0.000086838294
       9       -0.000396745942    -0.000635037492    -0.000310104987
      10       -0.000028262758     0.000018840253    -0.000003554012
      11        0.000015193646    -0.000021453930     0.000030770128
      12        0.000043336033    -0.000016801309     0.000006506747
      13        0.000047717880     0.000014115254     0.000002475711
      14       -0.000019313376     0.000007738094     0.000000824660
      15        0.000008419576    -0.000026363308     0.000013448774
      16       -0.000005625375     0.000007412698    -0.000010028280
      17       -0.000016626944     0.000061307683     0.000020832795
      18        0.000005459769    -0.000011177693    -0.000005147382
      19       -0.000031177395    -0.000020405678     0.000000157545
      20       -0.000006719702    -0.000015135270     0.000009699960

  **** Optimization is complete! (in 26 steps) ****
    Final optimized geometry and variables:
    Molecular point group: c1

    Geometry (in Angstrom), charge = 0, multiplicity = 1:

    O            1.171616639822    -0.275835414074     1.517410720578
    C            0.714163285388    -0.698197327350     0.503799060861
    C           -0.670465571138    -1.282983672305     0.361899934523
    O            1.379710074131    -0.700923559745    -0.644244876397
    C           -1.772361023848    -0.252854495357    -0.030238447977
    H           -0.628881168339    -2.077825370298    -0.371379182032
    H           -0.909357413718    -1.726511325457     1.319078195503
    C           -1.302018416816     1.172804737547    -0.336566023904
    H           -2.502045425701    -0.213393977884     0.771782737230
    H           -2.302047368423    -0.634892935440    -0.897059925703
    C           -2.468728112742     2.094116562053    -0.690271905625
    H           -0.772902659691     1.575654703574     0.522171184597
    H           -0.594691842503     1.155471145342    -1.160786659977
    H           -3.180658658774     2.158097816954     0.127609281394
    H           -2.119942177907     3.099373664540    -0.903970818722
    H           -3.002071436781     1.735686791089    -1.566207393912
    C            2.685088549775    -0.152132724906    -0.629905121162
    H            2.656935795204     0.887265954118    -0.336033134530
    H            3.055687266763    -0.246188784416    -1.638737374020
    H            3.318210140791    -0.697839983489     0.054627569685

  Mulliken Charges: (a.u.)
   Center  Symbol    Alpha    Beta     Spin     Total
       1     O     4.28479  4.28479  0.00000 -0.56957
       2     C     2.61943  2.61943  0.00000  0.76114
       3     C     3.19815  3.19815  0.00000 -0.39630
       4     O     4.30195  4.30195  0.00000 -0.60391
       5     C     3.15401  3.15401  0.00000 -0.30802
       6     H     0.40181  0.40181  0.00000  0.19637
       7     H     0.39806  0.39806  0.00000  0.20387
       8     C     3.17062  3.17062  0.00000 -0.34124
       9     H     0.41361  0.41361  0.00000  0.17279
      10     H     0.41548  0.41548  0.00000  0.16903
      11     C     3.23977  3.23977  0.00000 -0.47954
      12     H     0.41007  0.41007  0.00000  0.17985
      13     H     0.41452  0.41452  0.00000  0.17095
      14     H     0.42014  0.42014  0.00000  0.15972
      15     H     0.41704  0.41704  0.00000  0.16593
      16     H     0.42130  0.42130  0.00000  0.15739
      17     C     3.09291  3.09291  0.00000 -0.18582
      18     H     0.40928  0.40928  0.00000  0.18144
      19     H     0.40883  0.40883  0.00000  0.18234
      20     H     0.40821  0.40821  0.00000  0.18358

   Total alpha = 32.00000, Total beta = 32.00000, Total charge = -0.00000
