                              Psi4 1.0.54 Driver

  ==> Input File <==

--------------------------------------------------------------------------
set {
	reference rhf
	basis cc-pvtz
}

set_num_threads( 4 )
memory 2 gb

molecule MOL {
0 1

H	 3.163263	 0.384590	 -0.709766
N	 2.337676	 -0.175529	 -0.693555
C	 1.263552	 0.494993	 0.021953
H	 2.575946	 -1.038680	 -0.251363
C	 -0.016533	 -0.325589	 -0.026925
H	 1.092845	 1.452701	 -0.458308
H	 1.514196	 0.706961	 1.062256
C	 -1.280353	 0.525521	 0.047747
H	 -0.016686	 -0.912532	 -0.939714
H	 -0.014099	 -1.037598	 0.796369
C	 -2.560681	 -0.301323	 -0.007747
H	 -1.279957	 1.241025	 -0.770189
H	 -1.270445	 1.110526	 0.963468
H	 -2.617064	 -0.872870	 -0.928010
H	 -3.439525	 0.331102	 0.043462
H	 -2.609427	 -1.002736	 0.818585

	symmetry c1
}
set optking {
	frozen_dihedral = ("
		6 3 5 9
	")
}

ee,wfn = optimize('scf', return_wfn=True)
oeprop( wfn, 'DIPOLE', 'QUADRUPOLE', 'MULLIKEN_CHARGES')
f=open( 'psi4out.xyz', 'w' )
f.write( "16  " )
f.write( str(ee) + "\n" )
f.write( MOL.save_string_xyz() )
f.close()
--------------------------------------------------------------------------

    Molecular point group: c1
  Charge       = 0
  Multiplicity = 1
  Basis Set: CC-PVTZ
  Basis Set:
  @DF-RHF Final Energy:  -212.39765708990845
    Total Energy =                       -212.3976570899083072
    Molecular point group: c1
  Basis Set: CC-PVTZ
  Basis Set:
  Basis Set: CC-PVTZ
  Basis Set:
  @DF-RHF Final Energy:  -212.39787701673708
    Total Energy =                       -212.3978770167370840
  Basis Set: CC-PVTZ
  Basis Set:
  Basis Set: CC-PVTZ
  Basis Set:
  @DF-RHF Final Energy:  -212.39797310700339
    Total Energy =                       -212.3979731070034518
  Basis Set: CC-PVTZ
  Basis Set:
  Basis Set: CC-PVTZ
  Basis Set:
  @DF-RHF Final Energy:  -212.39797665720971
    Total Energy =                       -212.3979766572095969
  Basis Set: CC-PVTZ
  Basis Set:
  Charge       = 0
  Multiplicity = 1
  Basis Set: CC-PVTZ
  Basis Set:

    Orbital Energies (a.u.)
    -----------------------

    Doubly Occupied:

       1A    -15.527358     2A    -11.237975     3A    -11.213270
       4A    -11.207816     5A    -11.205719     6A     -1.178489
       7A     -1.060619     8A     -0.959265     9A     -0.844592
      10A     -0.793556    11A     -0.657274    12A     -0.647430
      13A     -0.599729    14A     -0.578345    15A     -0.571238
      16A     -0.519991    17A     -0.502760    18A     -0.469385
      19A     -0.465016    20A     -0.462650    21A     -0.383379

  @DF-RHF Final Energy:  -212.39797714004951

   => Energetics <=

    Nuclear Repulsion Energy =            186.4734197715308426
    One-Electron Energy =                -655.5710865311100406
    Two-Electron Energy =                 256.6996896195297495
    DFT Exchange-Correlation Energy =       0.0000000000000000
    Empirical Dispersion Energy =           0.0000000000000000
    PCM Polarization Energy =               0.0000000000000000
    EFP Energy =                            0.0000000000000000
    Total Energy =                       -212.3979771400494201
    Molecular point group: c1
  Basis Set: CC-PVTZ
  Basis Set:

  -Total Gradient:
     Atom            X                  Y                   Z
    ------   -----------------  -----------------  -----------------
       1        0.000018492763     0.000006451869    -0.000025015385
       2       -0.000035758820     0.000058111940     0.000010906164
       3        0.001847269145    -0.002811164768    -0.004382328993
       4       -0.000005491977    -0.000033416972     0.000017553748
       5       -0.002701914139     0.004593188877    -0.001462984564
       6       -0.001165546490     0.001592845297     0.003898655567
       7        0.000016275055     0.000006653330     0.000031666490
       8        0.000031317104    -0.000018029686    -0.000041914748
       9        0.001974272508    -0.003371707759     0.001938396231
      10        0.000020890102    -0.000015220570     0.000009409253
      11       -0.000006911711    -0.000001535498     0.000013302624
      12       -0.000000125885     0.000001227972     0.000003829684
      13        0.000014252492    -0.000009297271    -0.000017022998
      14        0.000000434997     0.000013387415     0.000010841074
      15       -0.000004902626    -0.000010434926     0.000006102265
      16       -0.000002552521    -0.000001059251    -0.000011396412

  **** Optimization is complete! (in 5 steps) ****
    Final optimized geometry and variables:
    Molecular point group: c1

    Geometry (in Angstrom), charge = 0, multiplicity = 1:

    H            3.211543104168     0.300463251147    -0.547297326861
    N            2.364974677065    -0.225581955029    -0.600437093050
    C            1.288819866427     0.446401566509     0.108944459773
    H            2.551211906452    -1.119877245243    -0.195750454361
    C           -0.009962724305    -0.354876234243     0.047854866662
    H            1.134403003435     1.424618238331    -0.333794195805
    H            1.530561642037     0.638353982363     1.155752469003
    C           -1.262420622559     0.499400316044     0.205013373364
    H           -0.032043536819    -0.909617963549    -0.884597674860
    H            0.004706694420    -1.109578440968     0.832357064263
    C           -2.547182180656    -0.321264978401     0.233368430230
    H           -1.309584366426     1.215319148423    -0.610453094748
    H           -1.188487013110     1.083046416018     1.119239887010
    H           -2.662395362013    -0.896335422496    -0.679252489788
    H           -3.418216145304     0.315817933213     0.335347390152
    H           -2.548331437082    -1.018698599187     1.064411959915

  Mulliken Charges: (a.u.)
   Center  Symbol    Alpha    Beta     Spin     Total
       1     H     0.43072  0.43072  0.00000  0.13856
       2     N     3.68603  3.68603  0.00000 -0.37206
       3     C     3.02566  3.02566  0.00000 -0.05132
       4     H     0.43102  0.43102  0.00000  0.13796
       5     C     3.08562  3.08562  0.00000 -0.17125
       6     H     0.45972  0.45972  0.00000  0.08057
       7     H     0.46851  0.46851  0.00000  0.06298
       8     C     3.08644  3.08644  0.00000 -0.17287
       9     H     0.44969  0.44969  0.00000  0.10062
      10     H     0.45929  0.45929  0.00000  0.08141
      11     C     3.14971  3.14971  0.00000 -0.29941
      12     H     0.45304  0.45304  0.00000  0.09392
      13     H     0.45602  0.45602  0.00000  0.08796
      14     H     0.45403  0.45403  0.00000  0.09195
      15     H     0.44886  0.44886  0.00000  0.10229
      16     H     0.45565  0.45565  0.00000  0.08871

   Total alpha = 21.00000, Total beta = 21.00000, Total charge = -0.00000

*** Psi4 exiting successfully. Buy a developer a beer!
