                              Psi4 1.0.54 Driver

  ==> Input File <==

--------------------------------------------------------------------------
set {
	reference rhf
	basis cc-pvtz
}

set_num_threads( 4 )
memory 2 gb

molecule MOL {
0 1

O	 0.887420	 1.823864	 0.485294
C	 0.164818	 1.636164	 1.403813
C	 -1.104136	 0.823819	 1.367559
O	 0.385614	 2.129036	 2.611581
C	 -1.413045	 0.229353	 0.001137
H	 -1.010433	 0.048833	 2.121281
H	 -1.907970	 1.469286	 1.706214
C	 -2.702562	 -0.586401	 0.000228
H	 -0.583855	 -0.394117	 -0.313935
H	 -1.482891	 1.027588	 -0.729265
C	 -3.953810	 0.284959	 -0.000782
H	 -2.717793	 -1.238567	 -0.869075
H	 -2.719108	 -1.238472	 0.869576
H	 -3.983727	 0.924403	 -0.876454
H	 -4.852989	 -0.320147	 -0.001515
H	 -3.985140	 0.924399	 0.874841
C	 1.546810	 2.914713	 2.789500
H	 2.433892	 2.339361	 2.569767
H	 1.546067	 3.216851	 3.824188
H	 1.521920	 3.782807	 2.147615

	symmetry c1
}
set optking {
	frozen_dihedral = ("
		9 5 8 12
	")
}

ee,wfn = optimize('scf', return_wfn=True)
oeprop( wfn, 'DIPOLE', 'QUADRUPOLE', 'MULLIKEN_CHARGES')
f=open( 'psi4out.xyz', 'w' )
f.write( "20  " )
f.write( str(ee) + "\n" )
f.write( MOL.save_string_xyz() )
f.close()
--------------------------------------------------------------------------

    Molecular point group: c1
  Charge       = 0
  Multiplicity = 1
  Basis Set: CC-PVTZ
  Basis Set:
  @DF-RHF Final Energy:  -384.08098098041245
    Total Energy =                       -384.0809809804122779
    Molecular point group: c1
  Basis Set: CC-PVTZ
  Basis Set:
  Basis Set: CC-PVTZ
  Basis Set:
  @DF-RHF Final Energy:  -384.08122264474963
    Total Energy =                       -384.0812226447499143
  Basis Set: CC-PVTZ
  Basis Set:
  Basis Set: CC-PVTZ
  Basis Set:
  @DF-RHF Final Energy:  -384.08105690771549
    Total Energy =                       -384.0810569077150376
  Basis Set: CC-PVTZ
  Basis Set:
  Basis Set: CC-PVTZ
  Basis Set:
  @DF-RHF Final Energy:  -384.08126443679311
    Total Energy =                       -384.0812644367933899
  Basis Set: CC-PVTZ
  Basis Set:
  Charge       = 0
  Multiplicity = 1
  Basis Set: CC-PVTZ
  Basis Set:

    Orbital Energies (a.u.)
    -----------------------

    Doubly Occupied:

       1A    -20.596371     2A    -20.534213     3A    -11.364700
       4A    -11.278529     5A    -11.233744     6A    -11.218546
       7A    -11.217354     8A    -11.210660     9A     -1.472263
      10A     -1.365864    11A     -1.089673    12A     -1.023965
      13A     -0.968917    14A     -0.894116    15A     -0.801455
      16A     -0.767203    17A     -0.703565    18A     -0.685925
      19A     -0.676299    20A     -0.633251    21A     -0.612896
      22A     -0.596307    23A     -0.571698    24A     -0.549362
      25A     -0.532813    26A     -0.524627    27A     -0.511403
      28A     -0.475375    29A     -0.473289    30A     -0.467917
      31A     -0.459036    32A     -0.440707

  @DF-RHF Final Energy:  -384.08126574957760

   => Energetics <=

    Nuclear Repulsion Energy =            384.9694312663373239
    One-Electron Energy =               -1286.1973098603566541
    Two-Electron Energy =                 517.1466128444415062
    DFT Exchange-Correlation Energy =       0.0000000000000000
    Empirical Dispersion Energy =           0.0000000000000000
    PCM Polarization Energy =               0.0000000000000000
    EFP Energy =                            0.0000000000000000
    Total Energy =                       -384.0812657495778240
    Molecular point group: c1
  Basis Set: CC-PVTZ
  Basis Set:

  -Total Gradient:
     Atom            X                  Y                   Z
    ------   -----------------  -----------------  -----------------
       1        0.000024155723    -0.000000380162    -0.000058664608
       2       -0.000028878325     0.000000987543     0.000028880296
       3        0.000021441088     0.000000504087     0.000031164174
       4       -0.000017545525    -0.000008183293     0.000009262068
       5        0.000509885095    -0.000849141026     0.002313254412
       6       -0.000010622747    -0.000009534391    -0.000007376982
       7        0.000001551387    -0.000005620024    -0.000011553153
       8       -0.001044793665     0.001657638318    -0.001572338783
       9       -0.000274307171     0.000487384648    -0.001709850525
      10        0.000000480272    -0.000012887073     0.000012213118
      11       -0.000023381810     0.000029135778     0.000010917921
      12        0.000789340843    -0.001275795609     0.000974577440
      13       -0.000005504094     0.000018286783    -0.000013249774
      14        0.000023129609    -0.000008737064     0.000002560024
      15        0.000018518143    -0.000002819823     0.000007307955
      16        0.000004288877    -0.000025714542    -0.000022844871
      17        0.000019414308     0.000000548613     0.000000331394
      18       -0.000000542109     0.000004094500     0.000002304636
      19       -0.000004082336    -0.000000195476     0.000003532287
      20       -0.000002547562     0.000000428214    -0.000000427032

  **** Optimization is complete! (in 5 steps) ****
    Final optimized geometry and variables:
    Molecular point group: c1

    Geometry (in Angstrom), charge = 0, multiplicity = 1:

    O            1.644337317033     0.628307455690    -0.614046787885
    C            0.919810100932     0.458191901456     0.306357339877
    C           -0.357715928239    -0.341336677760     0.280058961162
    O            1.145823633237     0.962036083745     1.508768801527
    C           -0.665248320319    -0.953107499431    -1.080112043649
    H           -0.270554111333    -1.108938325527     1.042139770485
    H           -1.150092793935     0.318591425736     0.613942027585
    C           -1.958854794283    -1.770992603737    -1.102725328110
    H            0.164699934740    -1.578611491474    -1.384956505530
    H           -0.720928238540    -0.164049715094    -1.822169070935
    C           -3.235092776837    -0.934192673206    -1.112536649265
    H           -1.945571204634    -2.412882451026    -1.977105494001
    H           -1.975330989775    -2.442918091899    -0.248018919051
    H           -3.262933580758    -0.280125421324    -1.977478975467
    H           -4.113081390513    -1.568587871861    -1.149168131292
    H           -3.320373075826    -0.314244287895    -0.227243532802
    C            2.315454219298     1.736905978500     1.678324090841
    H            3.196274118652     1.149584336556     1.465155888798
    H            2.317879395639     2.050392297116     2.709642734215
    H            2.300098856669     2.598131850044     1.026950625596

  Mulliken Charges: (a.u.)
   Center  Symbol    Alpha    Beta     Spin     Total
       1     O     4.19683  4.19683  0.00000 -0.39367
       2     C     2.80467  2.80467  0.00000  0.39066
       3     C     3.10084  3.10084  0.00000 -0.20169
       4     O     4.14717  4.14717  0.00000 -0.29434
       5     C     3.08813  3.08813  0.00000 -0.17625
       6     H     0.44008  0.44008  0.00000  0.11984
       7     H     0.44002  0.44002  0.00000  0.11995
       8     C     3.09405  3.09405  0.00000 -0.18810
       9     H     0.44133  0.44133  0.00000  0.11733
      10     H     0.44757  0.44757  0.00000  0.10486
      11     C     3.14973  3.14973  0.00000 -0.29945
      12     H     0.44531  0.44531  0.00000  0.10938
      13     H     0.45689  0.45689  0.00000  0.08622
      14     H     0.45316  0.45316  0.00000  0.09368
      15     H     0.44637  0.44637  0.00000  0.10726
      16     H     0.45617  0.45617  0.00000  0.08766
      17     C     3.03784  3.03784  0.00000 -0.07568
      18     H     0.45426  0.45426  0.00000  0.09148
      19     H     0.44527  0.44527  0.00000  0.10945
      20     H     0.45430  0.45430  0.00000  0.09140

   Total alpha = 32.00000, Total beta = 32.00000, Total charge = -0.00000

*** Psi4 exiting successfully. Buy a developer a beer!
