  ==> Input File <==

--------------------------------------------------------------------------
set {
	reference rhf
	basis 6-31G*
}

set_num_threads( 4 )
memory 2 gb

molecule MOL {
0 1

H	 -3.135461	 -1.215070	 0.001379
O	 -2.310168	 -0.871793	 -0.309793
C	 -2.026376	 0.340750	 0.341611
C	 -0.673256	 0.843270	 -0.132153
H	 -2.792215	 1.080697	 0.115987
H	 -2.013526	 0.200402	 1.421792
C	 0.486613	 -0.083066	 0.235839
H	 -0.715586	 0.970948	 -1.210718
H	 -0.508072	 1.829858	 0.297090
C	 1.796469	 0.669113	 0.477335
H	 0.625035	 -0.811558	 -0.556406
H	 0.225825	 -0.645366	 1.131745
C	 2.954183	 -0.256030	 0.850806
H	 2.058546	 1.230528	 -0.417006
H	 1.653225	 1.403890	 1.267289
H	 3.144785	 -0.980784	 0.064491
H	 3.869882	 0.304221	 1.013776
H	 2.737364	 -0.807459	 1.761535

	symmetry c1
}
set optking {
	frozen_dihedral = ("
		10 7 4 8
	")
}

ee = optimize('scf')
oeprop('DIPOLE', 'QUADRUPOLE', 'MULLIKEN_CHARGES')
f=open( 'psi4out.xyz', 'w' )
f.write( "18  " )
f.write( str(ee) + "\n" )
f.write( MOL.save_string_xyz() )
f.close()
--------------------------------------------------------------------------

    Molecular point group: c1
  Charge       = 0
  Multiplicity = 1
  Basis Set: 6-31G*
  Basis Set:
  @DF-RHF Final Energy:  -271.17706657966085
    Total Energy =                       -271.1770665796610729
    Molecular point group: c1
  Basis Set: 6-31G*
  Basis Set:
  Basis Set: 6-31G*
  Basis Set:
  @DF-RHF Final Energy:  -271.17724690006025
    Total Energy =                       -271.1772469000600267
  Basis Set: 6-31G*
  Basis Set:
  Basis Set: 6-31G*
  Basis Set:
  @DF-RHF Final Energy:  -271.17733595788786
    Total Energy =                       -271.1773359578879763
  Basis Set: 6-31G*
  Basis Set:
  Charge       = 0
  Multiplicity = 1
  Basis Set: 6-31G*
  Basis Set:

    Orbital Energies (a.u.)
    -----------------------

    Doubly Occupied:

       1A    -20.552767     2A    -11.267622     3A    -11.211817
       4A    -11.211457     5A    -11.206833     6A    -11.204824
       7A     -1.359552     8A     -1.073973     9A     -1.008608
      10A     -0.912648    11A     -0.818773    12A     -0.783611
      13A     -0.702893    14A     -0.648229    15A     -0.620402
      16A     -0.575378    17A     -0.572877    18A     -0.558507
      19A     -0.521624    20A     -0.505916    21A     -0.484912
      22A     -0.467053    23A     -0.457372    24A     -0.447673
      25A     -0.428712

  @DF-RHF Final Energy:  -271.17733590107161

   => Energetics <=

    Nuclear Repulsion Energy =            249.0711980236227419
    One-Electron Energy =                -861.2889998259927324
    Two-Electron Energy =                 341.0404659012982620
    DFT Exchange-Correlation Energy =       0.0000000000000000
    Empirical Dispersion Energy =           0.0000000000000000
    PCM Polarization Energy =               0.0000000000000000
    EFP Energy =                            0.0000000000000000
    Total Energy =                       -271.1773359010717286
    Molecular point group: c1
  Basis Set: 6-31G*
  Basis Set:

  -Total Gradient:
     Atom            X                  Y                   Z
    ------   -----------------  -----------------  -----------------
       1       -0.000002705526    -0.000012846292    -0.000008164680
       2       -0.000073499458     0.000042931220     0.000000537040
       3        0.000101398193    -0.000180203724     0.000156642870
       4        0.002874468805     0.004088554000     0.001000592092
       5        0.000036956954     0.000000289470    -0.000012551540
       6       -0.000082920013    -0.000037321648     0.000050339670
       7        0.000324735115    -0.001139779560    -0.003816466669
       8       -0.002393130115    -0.003108434431    -0.000280033805
       9        0.000067543494    -0.000121850561     0.000032533741
      10       -0.000675866864     0.000438635896     0.002900526087
      11       -0.000124651213     0.000005119427     0.000027736538
      12       -0.000062063859     0.000038442087     0.000034812286
      13       -0.000017404231    -0.000033441077    -0.000146437670
      14        0.000039001410     0.000084212472     0.000039536493
      15       -0.000007922784    -0.000057635170     0.000035488377
      16        0.000009253572    -0.000054260045     0.000021530212
      17       -0.000009275465     0.000006893066    -0.000053542140
      18       -0.000003918012     0.000040694872     0.000016921100

  **** Optimization is complete! (in 4 steps) ****
    Final optimized geometry and variables:
    Molecular point group: c1

    Geometry (in Angstrom), charge = 0, multiplicity = 1:

    H           -3.085168220637    -1.322333799606    -0.244592697775
    O           -2.260937283442    -0.965817662389    -0.543569224676
    C           -2.025727552094     0.272165226000     0.078050843130
    C           -0.666757584426     0.783220102645    -0.370703693726
    H           -2.798906185041     0.988373283315    -0.195289131550
    H           -2.044525435726     0.165247725624     1.162028559486
    C            0.489179447395    -0.149245037166     0.022426743487
    H           -0.706978270732     0.888307738168    -1.451187017738
    H           -0.519332523049     1.773250760818     0.054033774437
    C            1.808497492706     0.591504988211     0.251719943313
    H            0.613914598797    -0.913953618899    -0.736859281305
    H            0.229342922695    -0.677764120885     0.937861821618
    C            2.969519592872    -0.346226965455     0.579391793872
    H            2.057581558067     1.177322280791    -0.631423240701
    H            1.679721431046     1.305074942489     1.062927114231
    H            3.143755773881    -1.051015305575    -0.228611188194
    H            3.889908791896     0.206792459203     0.740563342398
    H            2.766753461247    -0.920815777589     1.479016890698

  Mulliken Charges: (a.u.)
   Center  Symbol    Alpha    Beta     Spin     Total
       1     H     0.28068  0.28068  0.00000  0.43864
       2     O     4.36957  4.36957  0.00000 -0.73915
       3     C     2.99921  2.99921  0.00000  0.00158
       4     C     3.16163  3.16163  0.00000 -0.32326
       5     H     0.42989  0.42989  0.00000  0.14021
       6     H     0.43281  0.43281  0.00000  0.13439
       7     C     3.14853  3.14853  0.00000 -0.29706
       8     H     0.41363  0.41363  0.00000  0.17275
       9     H     0.42251  0.42251  0.00000  0.15499
      10     C     3.15371  3.15371  0.00000 -0.30743
      11     H     0.41273  0.41273  0.00000  0.17453
      12     H     0.42360  0.42360  0.00000  0.15280
      13     C     3.23918  3.23918  0.00000 -0.47836
      14     H     0.42357  0.42357  0.00000  0.15287
      15     H     0.42505  0.42505  0.00000  0.14990
      16     H     0.42100  0.42100  0.00000  0.15801
      17     H     0.42044  0.42044  0.00000  0.15913
      18     H     0.42226  0.42226  0.00000  0.15547

   Total alpha = 25.00000, Total beta = 25.00000, Total charge =  0.00000
