                              Psi4 1.0.54 Driver

  ==> Input File <==

--------------------------------------------------------------------------
set {
	reference rhf
	basis cc-pvtz
}

set_num_threads( 4 )
memory 2 gb

molecule MOL {
0 1

H	 -2.588684	 2.494749	 -1.810328
C	 -3.216685	 2.108304	 -0.995982
C	 -2.653809	 0.914422	 -0.273689
O	 -4.253188	 2.622299	 -0.753539
C	 -1.216901	 1.136108	 0.207794
H	 -3.315136	 0.664276	 0.545706
H	 -2.670195	 0.087944	 -0.980774
C	 -0.247837	 0.040196	 -0.230469
H	 -0.872882	 2.093195	 -0.169002
H	 -1.209325	 1.218376	 1.291938
C	 1.181757	 0.280428	 0.247371
H	 -0.259600	 -0.030819	 -1.314870
H	 -0.591284	 -0.923375	 0.136958
C	 2.151032	 -0.811012	 -0.202643
H	 1.515939	 1.247397	 -0.115449
H	 1.191514	 0.341223	 1.333422
C	 3.580021	 -0.656538	 0.320835
H	 2.170545	 -0.847575	 -1.289412
H	 1.766632	 -1.772905	 0.124928
C	 4.327657	 0.562694	 -0.213579
H	 4.138806	 -1.549270	 0.057813
H	 3.561991	 -0.620783	 1.406976
H	 4.355973	 0.557257	 -1.298551
H	 3.867136	 1.491650	 0.100501
H	 5.351524	 0.571613	 0.142204

	symmetry c1
}
set optking {
	frozen_dihedral = ("
		6 3 5 8
	")
}

ee,wfn = optimize('scf', return_wfn=True)
oeprop( wfn, 'DIPOLE', 'QUADRUPOLE', 'MULLIKEN_CHARGES')
f=open( 'psi4out.xyz', 'w' )
f.write( "25  " )
f.write( str(ee) + "\n" )
f.write( MOL.save_string_xyz() )
f.close()
--------------------------------------------------------------------------

    Molecular point group: c1
  Charge       = 0
  Multiplicity = 1
  Basis Set: CC-PVTZ
  Basis Set:
  @DF-RHF Final Energy:  -387.25621935035849
    Total Energy =                       -387.2562193503583785
    Molecular point group: c1
  Basis Set: CC-PVTZ
  Basis Set:
  Basis Set: CC-PVTZ
  Basis Set:
  @DF-RHF Final Energy:  -387.25620605332620
    Total Energy =                       -387.2562060533260819
  Basis Set: CC-PVTZ
  Basis Set:
  Basis Set: CC-PVTZ
  Basis Set:
  @DF-RHF Final Energy:  -387.25311525500712
    Total Energy =                       -387.2531152550070601
  Basis Set: CC-PVTZ
  Basis Set:
  Basis Set: CC-PVTZ
  Basis Set:
  @DF-RHF Final Energy:  -387.25648473533300
    Total Energy =                       -387.2564847353328332
  Basis Set: CC-PVTZ
  Basis Set:
  Basis Set: CC-PVTZ
  Basis Set:
  @DF-RHF Final Energy:  -387.25650658455231
    Total Energy =                       -387.2565065845524259
  Basis Set: CC-PVTZ
  Basis Set:
  Basis Set: CC-PVTZ
  Basis Set:
  @DF-RHF Final Energy:  -387.25653092724286
    Total Energy =                       -387.2565309272426930
  Basis Set: CC-PVTZ
  Basis Set:
  Basis Set: CC-PVTZ
  Basis Set:
  @DF-RHF Final Energy:  -387.25653236458515
    Total Energy =                       -387.2565323645854960
  Basis Set: CC-PVTZ
  Basis Set:
  Charge       = 0
  Multiplicity = 1
  Basis Set: CC-PVTZ
  Basis Set:

    Orbital Energies (a.u.)
    -----------------------

    Doubly Occupied:

       1A    -20.551207     2A    -11.321002     3A    -11.233777
       4A    -11.233195     5A    -11.225055     6A    -11.219348
       7A    -11.218169     8A    -11.217467     9A    -11.210284
      10A     -1.406481    11A     -1.105722    12A     -1.071252
      13A     -1.016278    14A     -0.946216    15A     -0.876751
      16A     -0.816687    17A     -0.794675    18A     -0.783424
      19A     -0.674303    20A     -0.662965    21A     -0.636281
      22A     -0.622906    23A     -0.603671    24A     -0.598445
      25A     -0.574624    26A     -0.555911    27A     -0.540475
      28A     -0.523394    29A     -0.511125    30A     -0.500966
      31A     -0.486482    32A     -0.478963    33A     -0.467316
      34A     -0.461333    35A     -0.451046    36A     -0.410198

  @DF-RHF Final Energy:  -387.25653248650804

   => Energetics <=

    Nuclear Repulsion Energy =            432.9038440774240826
    One-Electron Energy =               -1382.3059675009731109
    Two-Electron Energy =                 562.1455909370408790
    DFT Exchange-Correlation Energy =       0.0000000000000000
    Empirical Dispersion Energy =           0.0000000000000000
    PCM Polarization Energy =               0.0000000000000000
    EFP Energy =                            0.0000000000000000
    Total Energy =                       -387.2565324865081493
    Molecular point group: c1
  Basis Set: CC-PVTZ
  Basis Set:

  -Total Gradient:
     Atom            X                  Y                   Z
    ------   -----------------  -----------------  -----------------
       1       -0.000006248916     0.000020850248     0.000021883932
       2       -0.000076831900    -0.000049474244    -0.000003695718
       3        0.000715584748    -0.002320865458    -0.000849780631
       4        0.000022902491     0.000015240706    -0.000026111175
       5       -0.000525054805    -0.000555947335     0.001925292280
       6       -0.000430261324     0.002106236906     0.000252150947
       7       -0.000034911058    -0.000005951777    -0.000017735901
       8        0.000308122484     0.000767789210    -0.001294088393
       9        0.000011706876    -0.000013127524     0.000006012745
      10        0.000021230271     0.000013925490     0.000009401601
      11       -0.000001066294     0.000011797875    -0.000017117559
      12        0.000009838723     0.000000449834    -0.000002264486
      13       -0.000015544829     0.000001816651    -0.000000370775
      14       -0.000003912977     0.000006429372    -0.000013315227
      15       -0.000011282412    -0.000010539984     0.000000986162
      16        0.000000527284     0.000006000726    -0.000001857856
      17       -0.000007893810     0.000010575820     0.000020478822
      18        0.000001946564     0.000007376052    -0.000002120127
      19        0.000000938009    -0.000004755245    -0.000009995511
      20        0.000006293090     0.000001297773    -0.000001734811
      21       -0.000005522967    -0.000003572675     0.000004869252
      22        0.000001708445     0.000007400851     0.000004099655
      23       -0.000001380643     0.000000414064    -0.000004915301
      24        0.000019835675    -0.000010232872     0.000002381863
      25       -0.000000722743    -0.000003134463    -0.000002453787

  **** Optimization is complete! (in 8 steps) ****
    Final optimized geometry and variables:
    Molecular point group: c1

    Geometry (in Angstrom), charge = 0, multiplicity = 1:

    H           -2.583320289867     1.807564960198    -1.614566676939
    C           -3.195342108872     1.421074134305    -0.788414225345
    C           -2.623282065240     0.221928306189    -0.081077772028
    O           -4.219526468422     1.943899520750    -0.515712587832
    C           -1.171137726120     0.456075171523     0.385741515825
    H           -3.281728658356    -0.011706451822     0.743628342626
    H           -2.660430946043    -0.603743733068    -0.786862691938
    C           -0.204397203974    -0.647194547864    -0.037806577097
    H           -0.807100929485     1.401474891429    -0.008553996350
    H           -1.158376407448     0.562274782865     1.463974671194
    C            1.221686516564    -0.422098184681     0.455607445503
    H           -0.203981946342    -0.720761149105    -1.122673323352
    H           -0.568164553804    -1.603016748125     0.331297387449
    C            2.183953886272    -1.525124896042     0.018704255140
    H            1.571165365120     0.540527836467     0.095569046551
    H            1.218735302657    -0.359614920580     1.541387109626
    C            3.607021152473    -1.388588200837     0.562882241027
    H            2.219149184927    -1.561456192747    -1.067814380315
    H            1.783183257349    -2.482478255167     0.340352773893
    C            4.377706789188    -0.179280131362     0.038849388758
    H            4.158132350849    -2.288584661816     0.308466923893
    H            3.573337771802    -1.351855573782     1.648543297504
    H            4.420618546965    -0.184999256099    -1.045665129299
    H            3.925513518253     0.755633759729     0.347107126961
    H            5.396670977097    -0.184086988244     0.408369485197

  Mulliken Charges: (a.u.)
   Center  Symbol    Alpha    Beta     Spin     Total
       1     H     0.46744  0.46744  0.00000  0.06511
       2     C     2.90274  2.90274  0.00000  0.19452
       3     C     3.08499  3.08499  0.00000 -0.16998
       4     O     4.16441  4.16441  0.00000 -0.32883
       5     C     3.10758  3.10758  0.00000 -0.21516
       6     H     0.43934  0.43934  0.00000  0.12132
       7     H     0.44830  0.44830  0.00000  0.10340
       8     C     3.09143  3.09143  0.00000 -0.18286
       9     H     0.45205  0.45205  0.00000  0.09591
      10     H     0.44235  0.44235  0.00000  0.11530
      11     C     3.09394  3.09394  0.00000 -0.18787
      12     H     0.45339  0.45339  0.00000  0.09321
      13     H     0.45005  0.45005  0.00000  0.09991
      14     C     3.09540  3.09540  0.00000 -0.19080
      15     H     0.45126  0.45126  0.00000  0.09749
      16     H     0.45304  0.45304  0.00000  0.09391
      17     C     3.09067  3.09067  0.00000 -0.18135
      18     H     0.45369  0.45369  0.00000  0.09262
      19     H     0.44904  0.44904  0.00000  0.10193
      20     C     3.15263  3.15263  0.00000 -0.30526
      21     H     0.44780  0.44780  0.00000  0.10441
      22     H     0.45424  0.45424  0.00000  0.09151
      23     H     0.45476  0.45476  0.00000  0.09048
      24     H     0.45385  0.45385  0.00000  0.09230
      25     H     0.44560  0.44560  0.00000  0.10879

   Total alpha = 36.00000, Total beta = 36.00000, Total charge = -0.00000

*** Psi4 exiting successfully. Buy a developer a beer!
