  ==> Input File <==

--------------------------------------------------------------------------
set {
	reference rhf
	basis cc-pvtz
}

set_num_threads( 4 )
memory 2 gb

molecule MOL {
0 1

H	 -2.498963	 -0.741158	 -0.729149
O	 -2.346257	 -0.289210	 0.080372
C	 -1.183935	 0.486039	 -0.009831
C	 0.062853	 -0.375310	 0.027457
H	 -1.178881	 1.094526	 -0.908634
H	 -1.184406	 1.155156	 0.838676
O	 1.172093	 0.457955	 -0.054438
H	 0.052476	 -1.081302	 -0.804627
H	 0.076323	 -0.955658	 0.947560
C	 2.386905	 -0.168183	 0.197364
H	 2.577674	 -0.966981	 -0.515940
H	 3.166841	 0.573458	 0.105957
H	 2.417278	 -0.587708	 1.200158

	symmetry c1
}
set optking {
	frozen_dihedral = ("
		10 7 4 8
	")
}

ee = optimize('scf')
oeprop('DIPOLE', 'QUADRUPOLE', 'MULLIKEN_CHARGES')
f=open( 'psi4out.xyz', 'w' )
f.write( "13  " )
f.write( str(ee) + "\n" )
f.write( MOL.save_string_xyz() )
f.close()
--------------------------------------------------------------------------

    Molecular point group: c1
  Charge       = 0
  Multiplicity = 1
  Basis Set: CC-PVTZ
  Basis Set:
  @DF-RHF Final Energy:  -268.06212067744525
    Total Energy =                       -268.0621206774453640
    Molecular point group: c1
  Basis Set: CC-PVTZ
  Basis Set:
  Basis Set: CC-PVTZ
  Basis Set:
  @DF-RHF Final Energy:  -268.06213139925842
    Total Energy =                       -268.0621313992585328
  Basis Set: CC-PVTZ
  Basis Set:
  Charge       = 0
  Multiplicity = 1
  Basis Set: CC-PVTZ
  Basis Set:

    Orbital Energies (a.u.)
    -----------------------

    Doubly Occupied:

       1A    -20.555918     2A    -20.552812     3A    -11.269298
       4A    -11.267779     5A    -11.267361     6A     -1.391776
       7A     -1.369174     8A     -1.019709     9A     -0.914105
      10A     -0.842553    11A     -0.711803    12A     -0.677268
      13A     -0.662622    14A     -0.638088    15A     -0.599397
      16A     -0.572161    17A     -0.544445    18A     -0.491040
      19A     -0.484907    20A     -0.442045    21A     -0.423865

  @DF-RHF Final Energy:  -268.06213351378506

   => Energetics <=

    Nuclear Repulsion Energy =            190.4970229261365091
    One-Electron Energy =                -743.7220602338113622
    Two-Electron Energy =                 285.1629037938898819
    DFT Exchange-Correlation Energy =       0.0000000000000000
    Empirical Dispersion Energy =           0.0000000000000000
    PCM Polarization Energy =               0.0000000000000000
    EFP Energy =                            0.0000000000000000
    Total Energy =                       -268.0621335137849428
    Molecular point group: c1
  Basis Set: CC-PVTZ
  Basis Set:

  -Total Gradient:
     Atom            X                  Y                   Z
    ------   -----------------  -----------------  -----------------
       1        0.000021751718     0.000019808491     0.000000683173
       2        0.000009485473     0.000006753601     0.000028441309
       3        0.000022737900    -0.000031151134    -0.000041910839
       4        0.000747951921    -0.000877738518     0.001124227698
       5       -0.000011702610     0.000007782371     0.000012668956
       6       -0.000016705508     0.000004148594     0.000009665858
       7       -0.000085380512    -0.000088945224    -0.001411391937
       8       -0.000620941432     0.000720831409    -0.000644859488
       9       -0.000007525733     0.000036375489     0.000020532977
      10       -0.000070455226     0.000196939897     0.000913642683
      11        0.000004846716     0.000001656187    -0.000002343197
      12       -0.000002650440     0.000001639641    -0.000005374337
      13        0.000008587733     0.000001899198    -0.000003982855

  **** Optimization is complete! (in 3 steps) ****
    Final optimized geometry and variables:
    Molecular point group: c1

    Geometry (in Angstrom), charge = 0, multiplicity = 1:

    H           -2.489958057724    -0.741222239368    -0.788527265888
    O           -2.345777524345    -0.295605316744     0.026065439788
    C           -1.182229842553     0.479684015974    -0.046178388549
    C            0.064047080076    -0.382826002316    -0.002748554560
    H           -1.167201505075     1.094578498646    -0.940505419826
    H           -1.191679516297     1.142836602330     0.806988289241
    O            1.173259448996     0.450189110343    -0.092527438901
    H            0.049215237954    -1.089992090206    -0.833698069576
    H            0.076490440283    -0.956630839971     0.920878295034
    C            2.390997657710    -0.173243101048     0.152923283711
    H            2.577810159405    -0.976850333974    -0.556190859585
    H            3.169094205332     0.568753038746     0.049336417111
    H            2.429752863720    -0.585325469767     1.158252158426

  Mulliken Charges: (a.u.)
   Center  Symbol    Alpha    Beta     Spin     Total
       1     H     0.39377  0.39377  0.00000  0.21246
       2     O     4.20240  4.20240  0.00000 -0.40480
       3     C     2.97349  2.97349  0.00000  0.05301
       4     C     2.96533  2.96533  0.00000  0.06933
       5     H     0.46672  0.46672  0.00000  0.06655
       6     H     0.45316  0.45316  0.00000  0.09368
       7     O     4.17591  4.17591  0.00000 -0.35183
       8     H     0.48008  0.48008  0.00000  0.03983
       9     H     0.47057  0.47057  0.00000  0.05885
      10     C     3.03146  3.03146  0.00000 -0.06291
      11     H     0.47142  0.47142  0.00000  0.05716
      12     H     0.44629  0.44629  0.00000  0.10742
      13     H     0.46937  0.46937  0.00000  0.06126

   Total alpha = 21.00000, Total beta = 21.00000, Total charge =  0.00000
