  ==> Input File <==

--------------------------------------------------------------------------
set {
	reference rhf
	basis 6-31G*
}

set_num_threads( 4 )
memory 2 gb

molecule MOL {
0 1

H	 2.968701	 -1.152295	 0.340083
N	 3.092854	 -0.246221	 -0.068770
C	 1.865559	 0.531981	 0.018834
H	 3.347466	 -0.393569	 -1.027045
C	 0.645745	 -0.382037	 -0.029944
H	 1.841966	 1.207024	 -0.831236
H	 1.815756	 1.155410	 0.915079
C	 -0.679275	 0.379305	 0.025956
H	 0.698998	 -0.976915	 -0.937203
H	 0.693479	 -1.083846	 0.802235
C	 -1.903357	 -0.536963	 -0.023547
H	 -0.726309	 1.082987	 -0.803784
H	 -0.717680	 0.977832	 0.934877
C	 -3.225172	 0.228290	 0.028445
H	 -1.867824	 -1.134999	 -0.931459
H	 -1.860449	 -1.239604	 0.805977
H	 -3.313397	 0.915643	 -0.808262
H	 -4.073500	 -0.448134	 -0.008893
H	 -3.306061	 0.809945	 0.942516

	symmetry c1
}
set optking {
	frozen_dihedral = ("
		1 2 3 6
	")
}

ee = optimize('scf')
oeprop('DIPOLE', 'QUADRUPOLE', 'MULLIKEN_CHARGES')
f=open( 'psi4out.xyz', 'w' )
f.write( "19  " )
f.write( str(ee) + "\n" )
f.write( MOL.save_string_xyz() )
f.close()
--------------------------------------------------------------------------

    Molecular point group: c1
  Charge       = 0
  Multiplicity = 1
  Basis Set: 6-31G*
  Basis Set:
  @DF-RHF Final Energy:  -251.34799916743390
    Total Energy =                       -251.3479991674338976
    Molecular point group: c1
  Basis Set: 6-31G*
  Basis Set:
  Basis Set: 6-31G*
  Basis Set:
  @DF-RHF Final Energy:  -251.34932821890462
    Total Energy =                       -251.3493282189046454
  Basis Set: 6-31G*
  Basis Set:
  Basis Set: 6-31G*
  Basis Set:
  @DF-RHF Final Energy:  -251.34953189548943
    Total Energy =                       -251.3495318954894060
  Basis Set: 6-31G*
  Basis Set:
  Basis Set: 6-31G*
  Basis Set:
  @DF-RHF Final Energy:  -251.34953482263856
    Total Energy =                       -251.3495348226385886
  Basis Set: 6-31G*
  Basis Set:
  Charge       = 0
  Multiplicity = 1
  Basis Set: 6-31G*
  Basis Set:

    Orbital Energies (a.u.)
    -----------------------

    Doubly Occupied:

       1A    -15.532044     2A    -11.239929     3A    -11.217359
       4A    -11.216419     5A    -11.215197     6A    -11.209897
       7A     -1.176270     8A     -1.076120     9A     -1.000555
      10A     -0.901789    11A     -0.819502    12A     -0.793599
      13A     -0.674649    14A     -0.638886    15A     -0.599979
      16A     -0.591900    17A     -0.571242    18A     -0.555567
      19A     -0.524866    20A     -0.502363    21A     -0.484162
      22A     -0.469590    23A     -0.466976    24A     -0.463407
      25A     -0.376021

  @DF-RHF Final Energy:  -251.34953490082714

   => Energetics <=

    Nuclear Repulsion Energy =            245.4373916208239450
    One-Electron Energy =                -824.9372738474139624
    Two-Electron Energy =                 328.1503473257627661
    DFT Exchange-Correlation Energy =       0.0000000000000000
    Empirical Dispersion Energy =           0.0000000000000000
    PCM Polarization Energy =               0.0000000000000000
    EFP Energy =                            0.0000000000000000
    Total Energy =                       -251.3495349008272228
    Molecular point group: c1
  Basis Set: 6-31G*
  Basis Set:

  -Total Gradient:
     Atom            X                  Y                   Z
    ------   -----------------  -----------------  -----------------
       1       -0.000850471398    -0.001364605619    -0.003248395749
       2        0.000695887179     0.001155781735     0.003650976246
       3        0.001521701300     0.002566942144     0.001486193447
       4       -0.000007670687     0.000004448566    -0.000021787741
       5        0.000079787315     0.000007816180     0.000000625657
       6       -0.001367965712    -0.002376493210    -0.001854509832
       7       -0.000006551144     0.000009760948     0.000008476402
       8        0.000015666542    -0.000008386623    -0.000006251403
       9        0.000000363984     0.000012223647     0.000007706647
      10       -0.000005733898    -0.000015521321    -0.000018802231
      11       -0.000037125247     0.000022389769     0.000001189991
      12        0.000006263843    -0.000016775128    -0.000005922081
      13       -0.000012913835     0.000010174940    -0.000017879701
      14       -0.000025156881    -0.000024073225     0.000025484337
      15        0.000000535437     0.000017916405    -0.000003817866
      16        0.000002681457    -0.000005953140    -0.000008656915
      17        0.000005062765    -0.000008336237    -0.000002457290
      18       -0.000012165683     0.000006677548     0.000007103969
      19       -0.000002195343     0.000006012622     0.000000724113

  **** Optimization is complete! (in 5 steps) ****
    Final optimized geometry and variables:
    Molecular point group: c1

    Geometry (in Angstrom), charge = 0, multiplicity = 1:

    H            3.064539359733    -1.105304500926     0.373915443075
    N            3.149888204711    -0.189225408803    -0.024337930250
    C            1.871535058080     0.514893444131     0.021484290017
    H            3.431726106582    -0.332061683545    -0.974702742186
    C            0.639462814497    -0.392113939462    -0.031988786939
    H            1.834546102641     1.196420763749    -0.822872589712
    H            1.835410473328     1.119968071607     0.922561112939
    C           -0.679876258914     0.379435692252     0.027244380358
    H            0.675359233928    -0.987352575812    -0.943379126492
    H            0.681812094334    -1.097216527326     0.797787837570
    C           -1.913548804494    -0.524656517220    -0.008882453703
    H           -0.725450721303     1.080257076100    -0.804942658349
    H           -0.704167487675     0.982197000184     0.933512676775
    C           -3.226995571423     0.254084383225     0.054215650318
    H           -1.893285220611    -1.124969835659    -0.915959495096
    H           -1.869767529628    -1.225800357611     0.821766333860
    H           -3.316992990159     0.939639224538    -0.783718214229
    H           -4.082325212750    -0.413974868774     0.027925593392
    H           -3.292324358687     0.839228057016     0.967172026107

  Mulliken Charges: (a.u.)
   Center  Symbol    Alpha    Beta     Spin     Total
       1     H     0.33442  0.33442  0.00000  0.33115
       2     N     3.92157  3.92157  0.00000 -0.84315
       3     C     3.05541  3.05541  0.00000 -0.11081
       4     H     0.33427  0.33427  0.00000  0.33146
       5     C     3.16311  3.16311  0.00000 -0.32622
       6     H     0.42292  0.42292  0.00000  0.15415
       7     H     0.41861  0.41861  0.00000  0.16279
       8     C     3.15459  3.15459  0.00000 -0.30917
       9     H     0.42589  0.42589  0.00000  0.14821
      10     H     0.42541  0.42541  0.00000  0.14917
      11     C     3.15090  3.15090  0.00000 -0.30180
      12     H     0.42354  0.42354  0.00000  0.15291
      13     H     0.42211  0.42211  0.00000  0.15579
      14     C     3.23942  3.23942  0.00000 -0.47884
      15     H     0.42310  0.42310  0.00000  0.15381
      16     H     0.42271  0.42271  0.00000  0.15459
      17     H     0.42164  0.42164  0.00000  0.15671
      18     H     0.41906  0.41906  0.00000  0.16188
      19     H     0.42132  0.42132  0.00000  0.15737

   Total alpha = 25.00000, Total beta = 25.00000, Total charge =  0.00000
