  ==> Input File <==

--------------------------------------------------------------------------
set {
	reference rhf
	basis 6-31G*
}

set_num_threads( 4 )
memory 2 gb

molecule MOL {
0 1

H	 -2.646374	 -0.642757	 1.268656
C	 -2.083525	 -0.384536	 0.393091
O	 -0.807605	 -0.127164	 0.768327
F	 -2.118945	 -1.383102	 -0.486752
F	 -2.621877	 0.670592	 -0.209486
C	 0.084052	 0.273579	 -0.209957
C	 1.353033	 -0.546803	 -0.018071
Cl	 0.433844	 2.004619	 -0.074457
H	 -0.288836	 0.092657	 -1.202930
F	 2.180941	 -0.354443	 -1.022912
F	 1.032004	 -1.824950	 0.008735
F	 1.969672	 -0.250091	 1.099826

	symmetry c1
}
set optking {
	frozen_dihedral = ("
		10 7 6 9
	")
}

ee = optimize('scf')
oeprop('DIPOLE', 'QUADRUPOLE', 'MULLIKEN_CHARGES')
f=open( 'psi4out.xyz', 'w' )
f.write( "12  " )
f.write( str(ee) + "\n" )
f.write( MOL.save_string_xyz() )
f.close()
--------------------------------------------------------------------------

    Molecular point group: c1
  Charge       = 0
  Multiplicity = 1
  Basis Set: 6-31G*
  Basis Set:
  @DF-RHF Final Energy: -1146.31388775489631
    Total Energy =                      -1146.3138877548965411
    Molecular point group: c1
  Basis Set: 6-31G*
  Basis Set:
  Basis Set: 6-31G*
  Basis Set:
  @DF-RHF Final Energy: -1146.31395855906112
    Total Energy =                      -1146.3139585590611205
  Basis Set: 6-31G*
  Basis Set:
  Basis Set: 6-31G*
  Basis Set:
  @DF-RHF Final Energy: -1146.31401302545191
    Total Energy =                      -1146.3140130254521409
  Basis Set: 6-31G*
  Basis Set:
  Basis Set: 6-31G*
  Basis Set:
  @DF-RHF Final Energy: -1146.31401492948066
    Total Energy =                      -1146.3140149294818002
  Basis Set: 6-31G*
  Basis Set:
  Charge       = 0
  Multiplicity = 1
  Basis Set: 6-31G*
  Basis Set:

    Orbital Energies (a.u.)
    -----------------------

    Doubly Occupied:

       1A   -104.843169     2A    -26.359814     3A    -26.358590
       4A    -26.357487     5A    -26.346819     6A    -26.346314
       7A    -20.650139     8A    -11.527541     9A    -11.490028
      10A    -11.400942    11A    -10.577895    12A     -8.047247
      13A     -8.043723    14A     -8.043613    15A     -1.761005
      16A     -1.718176    17A     -1.658107    18A     -1.655336
      19A     -1.638785    20A     -1.486828    21A     -1.179420
      22A     -1.051270    23A     -0.987180    24A     -0.919789
      25A     -0.859975    26A     -0.852674    27A     -0.844851
      28A     -0.824325    29A     -0.811704    30A     -0.789813
      31A     -0.727601    32A     -0.726880    33A     -0.706157
      34A     -0.701524    35A     -0.678118    36A     -0.675053
      37A     -0.658249    38A     -0.657239    39A     -0.646100
      40A     -0.633605    41A     -0.597576    42A     -0.580836
      43A     -0.523606    44A     -0.476665    45A     -0.468353

  @DF-RHF Final Energy: -1146.31401566039403

   => Energetics <=

    Nuclear Repulsion Energy =            737.8986727242964889
    One-Electron Energy =               -3058.6451358711219655
    Two-Electron Energy =                1174.4324474864315562
    DFT Exchange-Correlation Energy =       0.0000000000000000
    Empirical Dispersion Energy =           0.0000000000000000
    PCM Polarization Energy =               0.0000000000000000
    EFP Energy =                            0.0000000000000000
    Total Energy =                      -1146.3140156603940341
    Molecular point group: c1
  Basis Set: 6-31G*
  Basis Set:

  -Total Gradient:
     Atom            X                  Y                   Z
    ------   -----------------  -----------------  -----------------
       1       -0.000009876333    -0.000004447781    -0.000004952029
       2       -0.000029105016     0.000025240409     0.000058106027
       3        0.000049966022    -0.000013446161    -0.000085969816
       4        0.000009674845    -0.000012468292    -0.000009159758
       5        0.000049610084     0.000029646239    -0.000010672619
       6       -0.002098665846    -0.003128854189     0.000786348871
       7        0.001477460701     0.002681138386     0.001361308852
       8       -0.000028136214     0.000021443942     0.000022506940
       9        0.001472286591     0.002058945134    -0.000889811053
      10       -0.000893982680    -0.001725878840    -0.001163722972
      11       -0.000001745952     0.000056349318    -0.000038862351
      12        0.000002513777     0.000012331752    -0.000025120095

  **** Optimization is complete! (in 5 steps) ****
    Final optimized geometry and variables:
    Molecular point group: c1

    Geometry (in Angstrom), charge = 0, multiplicity = 1:

    H           -2.654370708306    -0.625927163233     1.273840742077
    C           -2.087307906953    -0.380190572889     0.397501718011
    O           -0.814033089872    -0.112948007273     0.775444760396
    F           -2.114481767161    -1.392703738415    -0.466245696827
    F           -2.624496449944     0.663895123370    -0.224980129982
    C            0.080213099432     0.272319360908    -0.203670224548
    C            1.352771956141    -0.544944485402    -0.014205210520
    CL           0.438727782637     2.005439198422    -0.083539055443
    H           -0.284623133890     0.099370485064    -1.200915883274
    F            2.178077898220    -0.330084028188    -1.017889605298
    F            1.040653937520    -1.825447487325    -0.017215563457
    F            1.967254914196    -0.271548713520     1.109915049070

  Mulliken Charges: (a.u.)
   Center  Symbol    Alpha    Beta     Spin     Total
       1     H     0.40107  0.40107  0.00000  0.19786
       2     C     2.56515  2.56515  0.00000  0.86971
       3     O     4.29741  4.29741  0.00000 -0.59483
       4     F     4.68622  4.68622  0.00000 -0.37243
       5     F     4.68437  4.68437  0.00000 -0.36873
       6     C     3.04762  3.04762  0.00000 -0.09524
       7     C     2.43359  2.43359  0.00000  1.13281
       8    CL     8.50054  8.50054  0.00000 -0.00108
       9     H     0.36610  0.36610  0.00000  0.26780
      10     F     4.67491  4.67491  0.00000 -0.34982
      11     F     4.67570  4.67570  0.00000 -0.35140
      12     F     4.66733  4.66733  0.00000 -0.33466

   Total alpha = 45.00000, Total beta = 45.00000, Total charge = -0.00000
