  ==> Input File <==

--------------------------------------------------------------------------
set {
	reference rhf
	basis 6-31G*
}

set_num_threads( 4 )
memory 2 gb

molecule MOL {
0 1

H	 2.673716	 -5.711985	 -0.665616
C	 2.507443	 -4.658871	 -0.530060
C	 1.220945	 -4.166658	 -0.338037
C	 3.566195	 -3.774388	 -0.543770
H	 0.383530	 -4.841475	 -0.324423
C	 1.003869	 -2.816938	 -0.163879
H	 4.568149	 -4.137011	 -0.691002
C	 3.364063	 -2.409387	 -0.369492
H	 0.015557	 -2.423486	 -0.014649
C	 2.077822	 -1.929462	 -0.178872
H	 4.207735	 -1.747089	 -0.385174
O	 1.765256	 -0.628444	 0.000000
C	 2.778419	 0.335181	 0.000000
H	 2.731280	 0.961222	 -0.884976
H	 3.711703	 -0.207767	 0.000000
H	 2.731280	 0.961222	 0.884976

	symmetry c1
}
set optking {
	frozen_dihedral = ("
		10 12 13 14
	")
}

ee = optimize('scf')
oeprop('DIPOLE', 'QUADRUPOLE', 'MULLIKEN_CHARGES')
f=open( 'psi4out.xyz', 'w' )
f.write( "16  " )
f.write( str(ee) + "\n" )
f.write( MOL.save_string_xyz() )
f.close()
--------------------------------------------------------------------------

    Molecular point group: c1
  Charge       = 0
  Multiplicity = 1
  Basis Set: 6-31G*
  Basis Set:
  @DF-RHF Final Energy:  -344.57165395600902
    Total Energy =                       -344.5716539560090723
    Molecular point group: c1
  Basis Set: 6-31G*
  Basis Set:
  Basis Set: 6-31G*
  Basis Set:
  @DF-RHF Final Energy:  -344.57067958491336
    Total Energy =                       -344.5706795849132504
  Basis Set: 6-31G*
  Basis Set:
  Basis Set: 6-31G*
  Basis Set:
  @DF-RHF Final Energy:  -344.57677615197673
    Total Energy =                       -344.5767761519764463
  Basis Set: 6-31G*
  Basis Set:
  Basis Set: 6-31G*
  Basis Set:
  @DF-RHF Final Energy:  -344.57773152277917
    Total Energy =                       -344.5777315227788904
  Basis Set: 6-31G*
  Basis Set:
  @DF-RHF Final Energy:  -344.57873224092441
    Total Energy =                       -344.5787322409245235
  @DF-RHF Final Energy:  -344.57893909883370
    Total Energy =                       -344.5789390988334731
  Basis Set: 6-31G*
  Basis Set:
  @DF-RHF Final Energy:  -344.57907629443321
    Total Energy =                       -344.5790762944332073
  Basis Set: 6-31G*
  Basis Set:
  Basis Set: 6-31G*
  Basis Set:
  @DF-RHF Final Energy:  -344.57908790223161
    Total Energy =                       -344.5790879022314925
  Basis Set: 6-31G*
  Basis Set:
  Basis Set: 6-31G*
  Basis Set:
  @DF-RHF Final Energy:  -344.57909100551927
    Total Energy =                       -344.5790910055193876
  Basis Set: 6-31G*
  Basis Set:
  Charge       = 0
  Multiplicity = 1
  Basis Set: 6-31G*
  Basis Set:

    Orbital Energies (a.u.)
    -----------------------

    Doubly Occupied:

       1A    -20.577960     2A    -11.291816     3A    -11.278203
       4A    -11.233132     5A    -11.231577     6A    -11.224481
       7A    -11.221171     8A    -11.220074     9A     -1.406317
      10A     -1.146062    11A     -1.019823    12A     -1.013250
      13A     -0.938837    14A     -0.831733    15A     -0.804895
      16A     -0.717911    17A     -0.664079    18A     -0.661228
      19A     -0.648496    20A     -0.614422    21A     -0.589606
      22A     -0.580630    23A     -0.526362    24A     -0.513284
      25A     -0.507340    26A     -0.480126    27A     -0.449741
      28A     -0.334391    29A     -0.308532

  @DF-RHF Final Energy:  -344.57909143313327

   => Energetics <=

    Nuclear Repulsion Energy =            347.6448263319914531
    One-Electron Energy =               -1156.3768782388203817
    Two-Electron Energy =                 464.1529604736953161
    DFT Exchange-Correlation Energy =       0.0000000000000000
    Empirical Dispersion Energy =           0.0000000000000000
    PCM Polarization Energy =               0.0000000000000000
    EFP Energy =                            0.0000000000000000
    Total Energy =                       -344.5790914331336126
    Molecular point group: c1
  Basis Set: 6-31G*
  Basis Set:

  -Total Gradient:
     Atom            X                  Y                   Z
    ------   -----------------  -----------------  -----------------
       1       -0.000009642718    -0.000004474793     0.000006381171
       2        0.000065704527     0.000016842366    -0.000004659098
       3       -0.000026313403     0.000050588226    -0.000013928626
       4       -0.000023618677    -0.000083107557    -0.000006726779
       5        0.000008829596    -0.000008316722     0.000001903228
       6       -0.000050587596    -0.000021493514     0.000009123919
       7       -0.000004517728     0.000001176691     0.000005529940
       8       -0.000021770151     0.000079984434     0.000016767826
       9        0.000004994864     0.000000758544    -0.000001518913
      10       -0.000835451559    -0.000224671256     0.001945679581
      11       -0.000014323501    -0.000009943546    -0.000007913134
      12        0.000868347372     0.000725616444    -0.002838653442
      13        0.001828594559    -0.002199485163     0.000649654999
      14       -0.001812973270     0.001701761178     0.000244883411
      15        0.000000672051    -0.000005967016     0.000002188920
      16        0.000022055634    -0.000019268320    -0.000008713004

  **** Optimization is complete! (in 10 steps) ****
    Final optimized geometry and variables:
    Molecular point group: c1

    Geometry (in Angstrom), charge = 0, multiplicity = 1:

    H            0.351820665862    -3.328323743512    -0.114255538718
    C            0.197556332094    -2.264671395558    -0.100873052688
    C           -1.066037549559    -1.740804369599     0.135233332389
    C            1.254205848077    -1.400859871002    -0.323605264401
    H           -1.897755133402    -2.400582394088     0.307909287014
    C           -1.267712387560    -0.374043369894     0.159317024077
    H            2.237109622798    -1.791865291486    -0.518501106273
    C            1.063011927278    -0.026473053487    -0.311378452032
    H           -2.239115405121     0.045060925343     0.345081393857
    C           -0.200487582823     0.487870892420    -0.060130173849
    H            1.888276592357     0.631693855847    -0.511441273984
    O           -0.473635091831     1.813324828788    -0.062526117343
    C            0.451657142209     2.725919577596     0.471236611030
    H            0.895070298452     3.314084962969    -0.323793751015
    H            1.227127963749     2.231306714560     1.040705531597
    H           -0.091658686712     3.394984152828     1.126216248044

  Mulliken Charges: (a.u.)
   Center  Symbol    Alpha    Beta     Spin     Total
       1     H     0.40089  0.40089  0.00000  0.19822
       2     C     3.11054  3.11054  0.00000 -0.22108
       3     C     3.09327  3.09327  0.00000 -0.18655
       4     C     3.09272  3.09272  0.00000 -0.18545
       5     H     0.39872  0.39872  0.00000  0.20256
       6     C     3.12466  3.12466  0.00000 -0.24932
       7     H     0.39930  0.39930  0.00000  0.20139
       8     C     3.13527  3.13527  0.00000 -0.27054
       9     H     0.39328  0.39328  0.00000  0.21344
      10     C     2.78891  2.78891  0.00000  0.42218
      11     H     0.39746  0.39746  0.00000  0.20508
      12     O     4.33099  4.33099  0.00000 -0.66198
      13     C     3.08655  3.08655  0.00000 -0.17311
      14     H     0.41723  0.41723  0.00000  0.16554
      15     H     0.41922  0.41922  0.00000  0.16156
      16     H     0.41096  0.41096  0.00000  0.17807

   Total alpha = 29.00000, Total beta = 29.00000, Total charge =  0.00000
