  ==> Input File <==

--------------------------------------------------------------------------
set {
	reference rhf
	basis 6-31G*
}

set_num_threads( 1 )
memory 2 gb

molecule MOL {
0 1

H	 0.968429	 -0.216380	 -1.741405
O	 1.203735	 0.609519	 -1.340937
C	 0.709265	 0.639550	 -0.033818
C	 -0.793441	 0.596080	 0.058728
H	 1.074733	 1.560209	 0.406662
H	 1.127145	 -0.175029	 0.556828
C	 -1.530462	 -0.493172	 -0.025500
H	 -1.268471	 1.554324	 0.202247
H	 -1.092586	 -1.461565	 -0.186463
H	 -2.602122	 -0.450675	 0.050101

	symmetry c1
}
set optking {
	frozen_dihedral = ("
		5 3 2 1,
		3 4 7 9
	")
}

ee = energy('scf')
oeprop('DIPOLE', 'QUADRUPOLE', 'MULLIKEN_CHARGES')
f=open( 'psi4out.xyz', 'w' )
f.write( "10  " )
f.write( str(ee) + "\n" )
f.write( MOL.save_string_xyz() )
f.close()
--------------------------------------------------------------------------

    Molecular point group: c1

    Geometry (in Angstrom), charge = 0, multiplicity = 1:

       Center              X                  Y                   Z               Mass
    ------------   -----------------  -----------------  -----------------  -----------------
           H          1.001662231523    -0.551929686772    -1.359390146504     1.007825032070
           O          1.236968231523     0.273969313228    -0.958922146504    15.994914619560
           C          0.742498231523     0.304000313228     0.348196853496    12.000000000000
           C         -0.760207768477     0.260530313228     0.440742853496    12.000000000000
           H          1.107966231523     1.224659313228     0.788676853496     1.007825032070
           H          1.160378231523    -0.510578686772     0.938842853496     1.007825032070
           C         -1.497228768477    -0.828721686772     0.356514853496    12.000000000000
           H         -1.235237768477     1.218774313228     0.584261853496     1.007825032070
           H         -1.059352768477    -1.797114686772     0.195551853496     1.007825032070
           H         -2.568888768477    -0.786224686772     0.432115853496     1.007825032070

  Charge       = 0
  Multiplicity = 1
  Basis Set: 6-31G*
  Basis Set:

    Orbital Energies (a.u.)
    -----------------------

    Doubly Occupied:

       1A    -20.556594     2A    -11.275215     3A    -11.232134
       4A    -11.228613     5A     -1.365371     6A     -1.063354
       7A     -0.925205     8A     -0.771783     9A     -0.702115
      10A     -0.638331    11A     -0.621429    12A     -0.587041
      13A     -0.531212    14A     -0.492611    15A     -0.436110
      16A     -0.375432

  @DF-RHF Final Energy:  -191.91252306554887

   => Energetics <=

    Nuclear Repulsion Energy =            118.0981416610555073
    One-Electron Energy =                -494.4162286546762743
    Two-Electron Energy =                 184.4055639280720413
    DFT Exchange-Correlation Energy =       0.0000000000000000
    Empirical Dispersion Energy =           0.0000000000000000
    PCM Polarization Energy =               0.0000000000000000
    EFP Energy =                            0.0000000000000000
    Total Energy =                       -191.9125230655487542

  Mulliken Charges: (a.u.)
   Center  Symbol    Alpha    Beta     Spin     Total
       1     H     0.28250  0.28250  0.00000  0.43500
       2     O     4.36243  4.36243  0.00000 -0.72486
       3     C     3.00957  3.00957  0.00000 -0.01913
       4     C     3.08388  3.08388  0.00000 -0.16776
       5     H     0.41276  0.41276  0.00000  0.17447
       6     H     0.42554  0.42554  0.00000  0.14892
       7     C     3.19506  3.19506  0.00000 -0.39012
       8     H     0.40589  0.40589  0.00000  0.18822
       9     H     0.41532  0.41532  0.00000  0.16937
      10     H     0.40705  0.40705  0.00000  0.18589

   Total alpha = 16.00000, Total beta = 16.00000, Total charge =  0.00000
