  ==> Input File <==

--------------------------------------------------------------------------
set {
	reference rhf
	basis 6-31G*
}

set_num_threads( 4 )
memory 2 gb

molecule MOL {
0 1

H	 -2.646374	 -0.642757	 1.268656
C	 -2.083525	 -0.384536	 0.393091
O	 -0.807605	 -0.127164	 0.768327
F	 -2.118945	 -1.383102	 -0.486752
F	 -2.621877	 0.670592	 -0.209486
C	 0.084052	 0.273579	 -0.209957
C	 1.360636	 0.703610	 0.501076
Cl	 -0.581412	 1.611576	 -1.160818
H	 0.328318	 -0.521855	 -0.892154
F	 2.266220	 1.088321	 -0.373026
F	 1.844513	 -0.327288	 1.164816
F	 1.149705	 1.681041	 1.348490

	symmetry c1
}
set optking {
	frozen_dihedral = ("
		9 6 3 2
	")
}

ee = optimize('scf')
oeprop('DIPOLE', 'QUADRUPOLE', 'MULLIKEN_CHARGES')
f=open( 'psi4out.xyz', 'w' )
f.write( "12  " )
f.write( str(ee) + "\n" )
f.write( MOL.save_string_xyz() )
f.close()
--------------------------------------------------------------------------

    Molecular point group: c1
  Charge       = 0
  Multiplicity = 1
  Basis Set: 6-31G*
  Basis Set:
  @DF-RHF Final Energy: -1146.29395849584171
    Total Energy =                      -1146.2939584958412524
    Molecular point group: c1
  Basis Set: 6-31G*
  Basis Set:
  Basis Set: 6-31G*
  Basis Set:
  @DF-RHF Final Energy: -1146.30520829565512
    Total Energy =                      -1146.3052082956546656
  Basis Set: 6-31G*
  Basis Set:
  Basis Set: 6-31G*
  Basis Set:
  @DF-RHF Final Energy: -1146.30799023153645
    Total Energy =                      -1146.3079902315369054
  Basis Set: 6-31G*
  Basis Set:
  Basis Set: 6-31G*
  Basis Set:
  @DF-RHF Final Energy: -1146.30917316115938
    Total Energy =                      -1146.3091731611593787
  Basis Set: 6-31G*
  Basis Set:
  @DF-RHF Final Energy: -1146.30948661358934
    Total Energy =                      -1146.3094866135902521
  @DF-RHF Final Energy: -1146.30957138854365
    Total Energy =                      -1146.3095713885429632
  Basis Set: 6-31G*
  Basis Set:
  @DF-RHF Final Energy: -1146.30958907483864
    Total Energy =                      -1146.3095890748397778
  Basis Set: 6-31G*
  Basis Set:
  Basis Set: 6-31G*
  Basis Set:
  @DF-RHF Final Energy: -1146.30960495407771
    Total Energy =                      -1146.3096049540770309
  Basis Set: 6-31G*
  Basis Set:
  Basis Set: 6-31G*
  Basis Set:
  @DF-RHF Final Energy: -1146.30960958549053
    Total Energy =                      -1146.3096095854900796
  Basis Set: 6-31G*
  Basis Set:
  Charge       = 0
  Multiplicity = 1
  Basis Set: 6-31G*
  Basis Set:

    Orbital Energies (a.u.)
    -----------------------

    Doubly Occupied:

       1A   -104.845117     2A    -26.359177     3A    -26.357628
       4A    -26.356713     5A    -26.346579     6A    -26.337908
       7A    -20.646882     8A    -11.527047     9A    -11.487486
      10A    -11.401218    11A    -10.580145    12A     -8.049512
      13A     -8.045937    14A     -8.045821    15A     -1.760398
      16A     -1.713476    17A     -1.656753    18A     -1.655263
      19A     -1.635767    20A     -1.480786    21A     -1.180604
      22A     -1.057649    23A     -0.983215    24A     -0.916350
      25A     -0.854395    26A     -0.848999    27A     -0.844467
      28A     -0.817120    29A     -0.808505    30A     -0.788966
      31A     -0.730363    32A     -0.724382    33A     -0.705911
      34A     -0.693026    35A     -0.679171    36A     -0.673594
      37A     -0.658492    38A     -0.656872    39A     -0.645402
      40A     -0.634364    41A     -0.596393    42A     -0.564632
      43A     -0.527494    44A     -0.476966    45A     -0.468984

  @DF-RHF Final Energy: -1146.30960983578893

   => Energetics <=

    Nuclear Repulsion Energy =            739.4628281737864199
    One-Electron Energy =               -3061.8930134168731456
    Two-Electron Energy =                1176.1205754072980199
    DFT Exchange-Correlation Energy =       0.0000000000000000
    Empirical Dispersion Energy =           0.0000000000000000
    PCM Polarization Energy =               0.0000000000000000
    EFP Energy =                            0.0000000000000000
    Total Energy =                      -1146.3096098357887058
    Molecular point group: c1
  Basis Set: 6-31G*
  Basis Set:

  -Total Gradient:
     Atom            X                  Y                   Z
    ------   -----------------  -----------------  -----------------
       1        0.000025426523    -0.000004619580     0.000000845670
       2       -0.001126422895     0.003940804358     0.000208659536
       3        0.002634339754    -0.006274300152     0.000475923981
       4        0.000024198609    -0.000022681628     0.000028681754
       5       -0.000011722389     0.000047532520     0.000021080252
       6       -0.005098139186     0.003193977057    -0.003708035750
       7        0.000031711201     0.000015140191    -0.000032253516
       8        0.000023216079     0.000002828756    -0.000002045041
       9        0.003532384518    -0.000881690123     0.003006031067
      10       -0.000015565455     0.000011043810     0.000007765701
      11       -0.000015159681    -0.000021333793     0.000015418539
      12       -0.000004267069    -0.000006701441    -0.000022072192

  **** Optimization is complete! (in 10 steps) ****
    Final optimized geometry and variables:
    Molecular point group: c1

    Geometry (in Angstrom), charge = 0, multiplicity = 1:

    H           -2.321493636739    -1.463734728288     1.223661464546
    C           -1.920327565611    -0.916998954960     0.391698420171
    O           -0.640813563968    -0.578784596988     0.696104722202
    F           -1.954444425334    -1.668728048707    -0.706380520511
    F           -2.665929352513     0.153099143145     0.166042667076
    C            0.282761125341    -0.257566754806    -0.282167830610
    C            1.525564962968     0.184118777111     0.485673675032
    CL          -0.219769540188     1.016234776367    -1.404159404558
    H            0.557357661003    -1.126055651025    -0.857313583718
    F            2.506966787823     0.443715675060    -0.352260422364
    F            1.916123616669    -0.795545462096     1.276062190685
    F            1.305629416610     1.247220503616     1.219620389789

  Mulliken Charges: (a.u.)
   Center  Symbol    Alpha    Beta     Spin     Total
       1     H     0.40483  0.40483  0.00000  0.19034
       2     C     2.55672  2.55672  0.00000  0.88655
       3     O     4.31399  4.31399  0.00000 -0.62797
       4     F     4.68752  4.68752  0.00000 -0.37505
       5     F     4.67750  4.67750  0.00000 -0.35500
       6     C     3.02995  3.02995  0.00000 -0.05991
       7     C     2.43598  2.43598  0.00000  1.12804
       8    CL     8.50153  8.50153  0.00000 -0.00305
       9     H     0.37181  0.37181  0.00000  0.25638
      10     F     4.67529  4.67529  0.00000 -0.35058
      11     F     4.67698  4.67698  0.00000 -0.35396
      12     F     4.66790  4.66790  0.00000 -0.33580

   Total alpha = 45.00000, Total beta = 45.00000, Total charge = -0.00000
