                              Psi4 1.0.54 Driver

  ==> Input File <==

--------------------------------------------------------------------------
set {
	reference rhf
	basis cc-pvtz
}

set_num_threads( 4 )
memory 2 gb

molecule MOL {
0 1

O	 -2.081319	 -0.951530	 -0.502732
N	 -1.613558	 0.006676	 0.014756
C	 -0.329345	 -0.171618	 0.743966
O	 -2.068523	 1.100482	 -0.024385
C	 0.835904	 0.041968	 -0.213982
H	 -0.346048	 -1.174374	 1.137184
H	 -0.333613	 0.555559	 1.538590
C	 2.177039	 -0.130175	 0.494460
H	 0.754456	 -0.665923	 -1.030569
H	 0.765464	 1.037260	 -0.637266
C	 3.321290	 -0.385978	 -0.480084
H	 2.110353	 -0.954676	 1.198156
H	 2.392750	 0.758763	 1.079836
H	 3.149298	 -1.288098	 -1.056536
H	 3.432279	 0.437107	 -1.177170
H	 4.260066	 -0.503079	 0.047313

	symmetry c1
}
set optking {
	frozen_dihedral = ("
		11 8 5 9
	")
}

ee,wfn = optimize('scf', return_wfn=True)
oeprop( wfn, 'DIPOLE', 'QUADRUPOLE', 'MULLIKEN_CHARGES')
f=open( 'psi4out.xyz', 'w' )
f.write( "16  " )
f.write( str(ee) + "\n" )
f.write( MOL.save_string_xyz() )
f.close()
--------------------------------------------------------------------------

    Molecular point group: c1
  Charge       = 0
  Multiplicity = 1
  Basis Set: CC-PVTZ
  Basis Set:
  @DF-RHF Final Energy:  -360.90824412855409
    Total Energy =                       -360.9082441285539744
    Molecular point group: c1
  Basis Set: CC-PVTZ
  Basis Set:
  Basis Set: CC-PVTZ
  Basis Set:
  @DF-RHF Final Energy:  -360.90838095172967
    Total Energy =                       -360.9083809517299528
  Basis Set: CC-PVTZ
  Basis Set:
  Basis Set: CC-PVTZ
  Basis Set:
  @DF-RHF Final Energy:  -360.90722775355289
    Total Energy =                       -360.9072277535529452
  Basis Set: CC-PVTZ
  Basis Set:
  Basis Set: CC-PVTZ
  Basis Set:
  @DF-RHF Final Energy:  -360.90837977079190
    Total Energy =                       -360.9083797707919530
  Basis Set: CC-PVTZ
  Basis Set:
  Basis Set: CC-PVTZ
  Basis Set:
  @DF-RHF Final Energy:  -360.90839704174277
    Total Energy =                       -360.9083970417428304
  Basis Set: CC-PVTZ
  Basis Set:
  Basis Set: CC-PVTZ
  Basis Set:
  @DF-RHF Final Energy:  -360.90840207984138
    Total Energy =                       -360.9084020798412098
  Basis Set: CC-PVTZ
  Basis Set:
  Charge       = 0
  Multiplicity = 1
  Basis Set: CC-PVTZ
  Basis Set:

    Orbital Energies (a.u.)
    -----------------------

    Doubly Occupied:

       1A    -20.589754     2A    -20.589626     3A    -15.836250
       4A    -11.296628     5A    -11.250489     6A    -11.241899
       7A    -11.226075     8A     -1.635275     9A     -1.419560
      10A     -1.136451    11A     -1.059942    12A     -0.948741
      13A     -0.843782    14A     -0.829498    15A     -0.758221
      16A     -0.737826    17A     -0.728315    18A     -0.677263
      19A     -0.617347    20A     -0.607860    21A     -0.567450
      22A     -0.542676    23A     -0.517330    24A     -0.504820
      25A     -0.494945    26A     -0.486056    27A     -0.469873
      28A     -0.452123

  @DF-RHF Final Energy:  -360.90840244251768

   => Energetics <=

    Nuclear Repulsion Energy =            312.9759370160160756
    One-Electron Energy =               -1111.6365278625212341
    Two-Electron Energy =                 437.7521884039875886
    DFT Exchange-Correlation Energy =       0.0000000000000000
    Empirical Dispersion Energy =           0.0000000000000000
    PCM Polarization Energy =               0.0000000000000000
    EFP Energy =                            0.0000000000000000
    Total Energy =                       -360.9084024425175130
    Molecular point group: c1
  Basis Set: CC-PVTZ
  Basis Set:

  -Total Gradient:
     Atom            X                  Y                   Z
    ------   -----------------  -----------------  -----------------
       1       -0.000024567840     0.000077283143    -0.000001279734
       2        0.000021026295    -0.000027276034     0.000030531939
       3       -0.000008303427    -0.000001287853    -0.000008719539
       4       -0.000031666380    -0.000046215749    -0.000041852252
       5       -0.001697815859    -0.003721366361     0.002676001586
       6        0.000017203237     0.000004383288    -0.000000450682
       7        0.000013293969    -0.000002241192     0.000004732002
       8        0.000731457950     0.003833603543    -0.000762901064
       9        0.001279118125     0.002248892472    -0.002082891365
      10       -0.000004569498     0.000003778627     0.000009041931
      11       -0.000300982514    -0.002370897091     0.000180490282
      12        0.000001442032     0.000001162925    -0.000004442367
      13        0.000005009005     0.000003540768    -0.000002162072
      14       -0.000003701269    -0.000001099106     0.000001475427
      15       -0.000002333403    -0.000002623359     0.000005105844
      16        0.000005389577     0.000000361982    -0.000002679935

  **** Optimization is complete! (in 7 steps) ****
    Final optimized geometry and variables:
    Molecular point group: c1

    Geometry (in Angstrom), charge = 0, multiplicity = 1:

    O           -2.096616065870    -0.879069030517    -0.483492038104
    N           -1.610904950727     0.067965321806     0.038120298727
    C           -0.318469579053    -0.133099155338     0.746788552742
    O           -2.054549099905     1.166923454454     0.018243707126
    C            0.835704735065     0.077891339106    -0.222978419711
    H           -0.340826358307    -1.139512324856     1.129753482210
    H           -0.302537716159     0.585683986809     1.549250835402
    C            2.190427297554    -0.046414428722     0.476302303083
    H            0.766632807182    -0.632890539449    -1.037821852240
    H            0.744362124631     1.063223707058    -0.666073412589
    C            3.336854089499    -0.266182909639    -0.504552398187
    H            2.163881268069    -0.881763549966     1.170818713824
    H            2.373047566235     0.841356998934     1.072594826211
    H            3.202909486555    -1.190412260618    -1.054830270497
    H            3.400117639271     0.542524175229    -1.224704661377
    H            4.285871470082    -0.321609814399     0.014635717144

  Mulliken Charges: (a.u.)
   Center  Symbol    Alpha    Beta     Spin     Total
       1     O     4.17408  4.17408  0.00000 -0.34817
       2     N     3.27607  3.27607  0.00000  0.44786
       3     C     3.03930  3.03930  0.00000 -0.07861
       4     O     4.17394  4.17394  0.00000 -0.34789
       5     C     3.10231  3.10231  0.00000 -0.20463
       6     H     0.43379  0.43379  0.00000  0.13242
       7     H     0.43414  0.43414  0.00000  0.13173
       8     C     3.09313  3.09313  0.00000 -0.18626
       9     H     0.43850  0.43850  0.00000  0.12301
      10     H     0.43727  0.43727  0.00000  0.12546
      11     C     3.14775  3.14775  0.00000 -0.29550
      12     H     0.45359  0.45359  0.00000  0.09281
      13     H     0.44732  0.44732  0.00000  0.10537
      14     H     0.45180  0.45180  0.00000  0.09640
      15     H     0.45149  0.45149  0.00000  0.09702
      16     H     0.44551  0.44551  0.00000  0.10897

   Total alpha = 28.00000, Total beta = 28.00000, Total charge =  0.00000

*** Psi4 exiting successfully. Buy a developer a beer!
