  ==> Input File <==

--------------------------------------------------------------------------
set {
	reference rhf
	basis cc-pvtz
}

set_num_threads( 4 )
memory 2 gb

molecule MOL {
0 1

H	 -2.816458	 -0.841657	 -0.064679
N	 -1.878861	 -0.711874	 0.250184
C	 -1.341419	 0.551458	 -0.220231
H	 -1.333674	 -1.468530	 -0.105118
C	 -2.310626	 1.676960	 0.060005
H	 -0.380712	 0.806474	 0.225362
H	 -1.195907	 0.488868	 -1.293059
O	 -2.439627	 1.826395	 1.441575
H	 -1.942137	 2.600981	 -0.383363
H	 -3.276240	 1.446918	 -0.384515
C	 -3.360477	 2.789591	 1.833375
H	 -3.372389	 2.818275	 2.913385
H	 -3.088154	 3.774906	 1.460966
H	 -4.360361	 2.551969	 1.477943

	symmetry c1
}
set optking {
	frozen_dihedral = ("
		6 3 2 4
	")
}

ee = optimize('scf')
oeprop('DIPOLE', 'QUADRUPOLE', 'MULLIKEN_CHARGES')
f=open( 'psi4out.xyz', 'w' )
f.write( "14  " )
f.write( str(ee) + "\n" )
f.write( MOL.save_string_xyz() )
f.close()
--------------------------------------------------------------------------

    Molecular point group: c1
  Charge       = 0
  Multiplicity = 1
  Basis Set: CC-PVTZ
  Basis Set:
  @DF-RHF Final Energy:  -248.21890907912498
    Total Energy =                       -248.2189090791248987
    Molecular point group: c1
  Basis Set: CC-PVTZ
  Basis Set:
  Basis Set: CC-PVTZ
  Basis Set:
  @DF-RHF Final Energy:  -248.22077742261823
    Total Energy =                       -248.2207774226185393
  Basis Set: CC-PVTZ
  Basis Set:
  Basis Set: CC-PVTZ
  Basis Set:
  @DF-RHF Final Energy:  -248.22097912863376
    Total Energy =                       -248.2209791286338714
  Basis Set: CC-PVTZ
  Basis Set:
  Basis Set: CC-PVTZ
  Basis Set:
  @DF-RHF Final Energy:  -248.22098800932301
    Total Energy =                       -248.2209880093227525
  Basis Set: CC-PVTZ
  Basis Set:
  Charge       = 0
  Multiplicity = 1
  Basis Set: CC-PVTZ
  Basis Set:

    Orbital Energies (a.u.)
    -----------------------

    Doubly Occupied:

       1A    -20.545767     2A    -15.525970     3A    -11.267427
       4A    -11.260787     5A    -11.241569     6A     -1.382265
       7A     -1.177830     8A     -1.000899     9A     -0.905256
      10A     -0.820024    11A     -0.684329    12A     -0.667675
      13A     -0.652643    14A     -0.615648    15A     -0.591678
      16A     -0.564977    17A     -0.520204    18A     -0.500921
      19A     -0.466308    20A     -0.418099    21A     -0.383851

  @DF-RHF Final Energy:  -248.22098880304847

   => Energetics <=

    Nuclear Repulsion Energy =            193.7008675569300920
    One-Electron Energy =                -721.4554583847816502
    Two-Electron Energy =                 279.5336020248031446
    DFT Exchange-Correlation Energy =       0.0000000000000000
    Empirical Dispersion Energy =           0.0000000000000000
    PCM Polarization Energy =               0.0000000000000000
    EFP Energy =                            0.0000000000000000
    Total Energy =                       -248.2209888030483853
    Molecular point group: c1
  Basis Set: CC-PVTZ
  Basis Set:

  -Total Gradient:
     Atom            X                  Y                   Z
    ------   -----------------  -----------------  -----------------
       1        0.000014388535     0.000003967161     0.000010665709
       2        0.000970810814     0.000387683339     0.001895530728
       3        0.000676569102    -0.000910188179    -0.001608772803
       4       -0.000916344021    -0.000106885606    -0.001358289434
       5       -0.000007917133    -0.000053117488     0.000019295647
       6       -0.000756293413     0.000679764295     0.001102775594
       7       -0.000021240491    -0.000002744398    -0.000011209113
       8        0.000034251479    -0.000003108666    -0.000037426224
       9        0.000010902288     0.000010726994     0.000033544558
      10       -0.000014294958    -0.000010724190    -0.000029885262
      11        0.000020741273     0.000018597388    -0.000016945552
      12       -0.000001554331    -0.000007555007    -0.000002813119
      13       -0.000005514706     0.000000021616     0.000004087436
      14       -0.000004504437    -0.000006437255    -0.000000558162

  **** Optimization is complete! (in 5 steps) ****
    Final optimized geometry and variables:
    Molecular point group: c1

    Geometry (in Angstrom), charge = 0, multiplicity = 1:

    H           -0.488600665045    -2.139014320010    -0.827718940610
    N            0.425845993099    -1.971739676942    -0.462058555591
    C            0.924019852124    -0.678451259096    -0.896025838232
    H            1.009279145624    -2.707832951323    -0.799139686207
    C           -0.051877164124     0.437603336106    -0.586912804564
    H            1.846103868900    -0.468486148933    -0.367263473627
    H            1.136661715046    -0.636280429209    -1.964689569546
    O           -0.160570170982     0.621785379591     0.785170928995
    H            0.298488678983     1.353504169024    -1.062226156808
    H           -1.028648782218     0.206776524133    -1.016643843607
    C           -1.059922118268     1.609235524411     1.161312182716
    H           -1.055085266623     1.667675971452     2.239939650115
    H           -0.780873005707     2.580705034179     0.757120283676
    H           -2.069956434517     1.377651924432     0.828943885137

  Mulliken Charges: (a.u.)
   Center  Symbol    Alpha    Beta     Spin     Total
       1     H     0.43444  0.43444  0.00000  0.13111
       2     N     3.68036  3.68036  0.00000 -0.36073
       3     C     3.01954  3.01954  0.00000 -0.03908
       4     H     0.43128  0.43128  0.00000  0.13745
       5     C     2.96708  2.96708  0.00000  0.06584
       6     H     0.45610  0.45610  0.00000  0.08781
       7     H     0.47052  0.47052  0.00000  0.05895
       8     O     4.16545  4.16545  0.00000 -0.33090
       9     H     0.47074  0.47074  0.00000  0.05852
      10     H     0.47984  0.47984  0.00000  0.04032
      11     C     3.03204  3.03204  0.00000 -0.06407
      12     H     0.44606  0.44606  0.00000  0.10788
      13     H     0.47360  0.47360  0.00000  0.05280
      14     H     0.47295  0.47295  0.00000  0.05410

   Total alpha = 21.00000, Total beta = 21.00000, Total charge = -0.00000
