                              Psi4 1.0.54 Driver

  ==> Input File <==

--------------------------------------------------------------------------
set {
	reference rhf
	basis cc-pvtz
}

set_num_threads( 4 )
memory 2 gb

molecule MOL {
0 1

H	 -1.498998	 -1.833305	 -1.189355
N	 -0.793516	 -1.130700	 -1.254270
C	 -0.561396	 -0.500007	 0.035200
H	 -1.104787	 -0.461834	 -1.927370
C	 0.575129	 0.507849	 -0.048832
H	 -0.295882	 -1.278511	 0.742768
H	 -1.449002	 -0.005559	 0.432808
C	 1.951750	 -0.141983	 0.035101
H	 0.478254	 1.061643	 -0.975981
H	 0.467676	 1.231891	 0.755499
H	 2.101550	 -0.848142	 -0.774949
H	 2.738260	 0.600794	 -0.026526
H	 2.078939	 -0.679792	 0.968824

	symmetry c1
}
set optking {
	frozen_dihedral = ("
		6 3 5 9
	")
}

ee,wfn = optimize('scf', return_wfn=True)
oeprop( wfn, 'DIPOLE', 'QUADRUPOLE', 'MULLIKEN_CHARGES')
f=open( 'psi4out.xyz', 'w' )
f.write( "13  " )
f.write( str(ee) + "\n" )
f.write( MOL.save_string_xyz() )
f.close()
--------------------------------------------------------------------------

    Molecular point group: c1
  Charge       = 0
  Multiplicity = 1
  Basis Set: CC-PVTZ
  Basis Set:
  @DF-RHF Final Energy:  -173.35063317135956
    Total Energy =                       -173.3506331713596751
    Molecular point group: c1
  Basis Set: CC-PVTZ
  Basis Set:
  Basis Set: CC-PVTZ
  Basis Set:
  @DF-RHF Final Energy:  -173.35096640486148
    Total Energy =                       -173.3509664048613672
  Basis Set: CC-PVTZ
  Basis Set:
  Basis Set: CC-PVTZ
  Basis Set:
  @DF-RHF Final Energy:  -173.35103478389678
    Total Energy =                       -173.3510347838967505
  Basis Set: CC-PVTZ
  Basis Set:
  Basis Set: CC-PVTZ
  Basis Set:
  @DF-RHF Final Energy:  -173.35103751227686
    Total Energy =                       -173.3510375122767755
  Basis Set: CC-PVTZ
  Basis Set:
  Charge       = 0
  Multiplicity = 1
  Basis Set: CC-PVTZ
  Basis Set:

    Orbital Energies (a.u.)
    -----------------------

    Doubly Occupied:

       1A    -15.527243     2A    -11.238858     3A    -11.210521
       4A    -11.198821     5A     -1.178600     6A     -1.030581
       7A     -0.900229     8A     -0.795090     9A     -0.663033
      10A     -0.632751    11A     -0.600918    12A     -0.559241
      13A     -0.529768    14A     -0.489221    15A     -0.476046
      16A     -0.468030    17A     -0.383574

  @DF-RHF Final Energy:  -173.35103787296725

   => Energetics <=

    Nuclear Repulsion Energy =            133.5143727384393060
    One-Electron Energy =                -497.9657713458890953
    Two-Electron Energy =                 191.1003607344825923
    DFT Exchange-Correlation Energy =       0.0000000000000000
    Empirical Dispersion Energy =           0.0000000000000000
    PCM Polarization Energy =               0.0000000000000000
    EFP Energy =                            0.0000000000000000
    Total Energy =                       -173.3510378729671970
    Molecular point group: c1
  Basis Set: CC-PVTZ
  Basis Set:

  -Total Gradient:
     Atom            X                  Y                   Z
    ------   -----------------  -----------------  -----------------
       1        0.000001351433     0.000010335726    -0.000006468160
       2       -0.000022091532    -0.000014100558    -0.000015653341
       3       -0.001215894804     0.001693571743     0.002772407160
       4        0.000002888341    -0.000008232940     0.000013480152
       5       -0.001957595868     0.002415139611     0.001402478204
       6        0.001322762667    -0.001774872027    -0.002543650568
       7        0.000013978593    -0.000007180156    -0.000009653499
       8        0.000026320829    -0.000018117786    -0.000014336228
       9        0.001837345285    -0.002306966760    -0.001607160697
      10       -0.000003778040     0.000000763224    -0.000001333862
      11       -0.000005303240    -0.000003080958     0.000004819528
      12        0.000000383700     0.000008422813     0.000007609127
      13       -0.000000367367     0.000004318067    -0.000002537816

  **** Optimization is complete! (in 5 steps) ****
    Final optimized geometry and variables:
    Molecular point group: c1

    Geometry (in Angstrom), charge = 0, multiplicity = 1:

    H           -1.740736944658    -1.534056442231    -0.806046782260
    N           -1.078342567716    -0.792880498522    -0.891149105534
    C           -0.836834099187    -0.151053037399     0.394565724148
    H           -1.447123028408    -0.140762526096    -1.551291322436
    C            0.316572119339     0.844590745969     0.290473691576
    H           -0.568321730603    -0.938549481274     1.090454703941
    H           -1.720856698162     0.348036824280     0.788327082168
    C            1.687021208919     0.172822103487     0.283668248380
    H            0.205904136108     1.406824312779    -0.632916624157
    H            0.258630642198     1.554881791301     1.108712860493
    H            1.749928359436    -0.558510231856    -0.512020933521
    H            2.478499145799     0.899641126902     0.139039970941
    H            1.874543207722    -0.336543867016     1.223442657365

  Mulliken Charges: (a.u.)
   Center  Symbol    Alpha    Beta     Spin     Total
       1     H     0.42862  0.42862  0.00000  0.14275
       2     N     3.69333  3.69333  0.00000 -0.38666
       3     C     3.02982  3.02982  0.00000 -0.05964
       4     H     0.43060  0.43060  0.00000  0.13880
       5     C     3.07830  3.07830  0.00000 -0.15661
       6     H     0.45934  0.45934  0.00000  0.08132
       7     H     0.46011  0.46011  0.00000  0.07977
       8     C     3.14872  3.14872  0.00000 -0.29745
       9     H     0.46081  0.46081  0.00000  0.07837
      10     H     0.45274  0.45274  0.00000  0.09452
      11     H     0.44723  0.44723  0.00000  0.10554
      12     H     0.45191  0.45191  0.00000  0.09617
      13     H     0.45845  0.45845  0.00000  0.08311

   Total alpha = 17.00000, Total beta = 17.00000, Total charge =  0.00000

*** Psi4 exiting successfully. Buy a developer a beer!
