                              Psi4 1.0.54 Driver

  ==> Input File <==

--------------------------------------------------------------------------
set {
	reference rhf
	basis cc-pvtz
}

set_num_threads( 4 )
memory 2 gb

molecule MOL {
0 1

H	 -2.149496	 -2.244167	 0.000000
O	 -2.454378	 -1.354528	 0.000000
C	 -1.430628	 -0.482077	 0.000000
C	 -1.694387	 0.813216	 0.421091
C	 -0.157283	 -0.831264	 -0.397343
H	 -2.690755	 1.064817	 0.726012
C	 -0.684696	 1.748048	 0.441691
H	 0.060698	 -1.829673	 -0.725385
C	 0.850105	 0.123767	 -0.370604
H	 -0.896997	 2.747242	 0.768609
C	 0.599413	 1.415541	 0.046427
C	 2.179451	 -0.250250	 -0.788047
H	 1.387080	 2.141027	 0.061449
N	 3.217796	 -0.546114	 -1.115140

	symmetry c1
}
set optking {
	frozen_dihedral = ("
		5 3 2 1
	")
}

ee,wfn = optimize('scf', return_wfn=True)
oeprop( wfn, 'DIPOLE', 'QUADRUPOLE', 'MULLIKEN_CHARGES')
f=open( 'psi4out.xyz', 'w' )
f.write( "14  " )
f.write( str(ee) + "\n" )
f.write( MOL.save_string_xyz() )
f.close()
--------------------------------------------------------------------------

    Molecular point group: c1
  Charge       = 0
  Multiplicity = 1
  Basis Set: CC-PVTZ
  Basis Set:
  @DF-RHF Final Energy:  -397.43239601755710
    Total Energy =                       -397.4323960175571528
    Molecular point group: c1
  Basis Set: CC-PVTZ
  Basis Set:
  Basis Set: CC-PVTZ
  Basis Set:
  @DF-RHF Final Energy:  -397.43242153778641
    Total Energy =                       -397.4324215377863538
  Basis Set: CC-PVTZ
  Basis Set:
  Basis Set: CC-PVTZ
  Basis Set:
  @DF-RHF Final Energy:  -397.43247123971366
    Total Energy =                       -397.4324712397136636
  Basis Set: CC-PVTZ
  Basis Set:
  Charge       = 0
  Multiplicity = 1
  Basis Set: CC-PVTZ
  Basis Set:

    Orbital Energies (a.u.)
    -----------------------

    Doubly Occupied:

       1A    -20.605627     2A    -15.565735     3A    -11.324177
       4A    -11.292912     5A    -11.269198     6A    -11.261187
       7A    -11.260299     8A    -11.256493     9A    -11.252115
      10A     -1.437625    11A     -1.238706    12A     -1.187062
      13A     -1.067028    14A     -1.042617    15A     -0.899352
      16A     -0.871570    17A     -0.783081    18A     -0.730117
      19A     -0.702650    20A     -0.669831    21A     -0.630147
      22A     -0.624724    23A     -0.591185    24A     -0.566160
      25A     -0.553960    26A     -0.546128    27A     -0.528086
      28A     -0.480251    29A     -0.479488    30A     -0.368069
      31A     -0.343085

  @DF-RHF Final Energy:  -397.43247161238548

   => Energetics <=

    Nuclear Repulsion Energy =            380.4893555235670419
    One-Electron Energy =               -1292.9863209341342554
    Two-Electron Energy =                 515.0644937981817293
    DFT Exchange-Correlation Energy =       0.0000000000000000
    Empirical Dispersion Energy =           0.0000000000000000
    PCM Polarization Energy =               0.0000000000000000
    EFP Energy =                            0.0000000000000000
    Total Energy =                       -397.4324716123854841
    Molecular point group: c1
  Basis Set: CC-PVTZ
  Basis Set:

  -Total Gradient:
     Atom            X                  Y                   Z
    ------   -----------------  -----------------  -----------------
       1        0.000009502287    -0.000026090671     0.001704780139
       2       -0.000163293749     0.000283967687    -0.002802922373
       3        0.000541256205    -0.000720729013     0.002258817691
       4        0.000053423845     0.000147210460     0.000013557883
       5       -0.000424315538     0.000319572695    -0.001150889031
       6       -0.000005811524    -0.000012048339     0.000006873034
       7       -0.000162069227    -0.000031960288    -0.000002016978
       8        0.000010519809     0.000003168308    -0.000000128572
       9        0.000020736256     0.000175947199    -0.000039374467
      10        0.000004740308    -0.000000647370    -0.000004562909
      11        0.000118644566    -0.000129020621     0.000007172198
      12       -0.000000109743    -0.000018806897     0.000019401170
      13       -0.000005662819     0.000005628954    -0.000000710462
      14        0.000002439317     0.000003807896    -0.000009997321

  **** Optimization is complete! (in 4 steps) ****
    Final optimized geometry and variables:
    Molecular point group: c1

    Geometry (in Angstrom), charge = 0, multiplicity = 1:

    H           -2.129442328456    -2.270582249971     0.165011411283
    O           -2.433213764136    -1.380674548078     0.184948303666
    C           -1.406167624968    -0.509557204450     0.203315673034
    C           -1.671537695723     0.787662354299     0.614490013634
    C           -0.135188813480    -0.856998172423    -0.203817247679
    H           -2.667362907083     1.039296951364     0.921261054207
    C           -0.663830301389     1.725852181461     0.623884972547
    H            0.078799785923    -1.853855328063    -0.538700850690
    C            0.871870681035     0.097636045699    -0.179944396913
    H           -0.877065445911     2.726962905089     0.944206199920
    C            0.619758946442     1.391814913733     0.230678083692
    C            2.200680289152    -0.276094025435    -0.599064221841
    H            1.406744500867     2.118228474873     0.240773189047
    N            3.238797481411    -0.572291827127    -0.926857567872

  Mulliken Charges: (a.u.)
   Center  Symbol    Alpha    Beta     Spin     Total
       1     H     0.38422  0.38422  0.00000  0.23155
       2     O     4.17083  4.17083  0.00000 -0.34165
       3     C     2.84510  2.84510  0.00000  0.30980
       4     C     3.10612  3.10612  0.00000 -0.21223
       5     C     3.14318  3.14318  0.00000 -0.28635
       6     H     0.41355  0.41355  0.00000  0.17290
       7     C     3.05089  3.05089  0.00000 -0.10178
       8     H     0.42133  0.42133  0.00000  0.15735
       9     C     2.92905  2.92905  0.00000  0.14190
      10     H     0.41671  0.41671  0.00000  0.16657
      11     C     3.10431  3.10431  0.00000 -0.20863
      12     C     3.02570  3.02570  0.00000 -0.05141
      13     H     0.41432  0.41432  0.00000  0.17137
      14     N     3.57469  3.57469  0.00000 -0.14938

   Total alpha = 31.00000, Total beta = 31.00000, Total charge = -0.00000

*** Psi4 exiting successfully. Buy a developer a beer!
