  ==> Input File <==

--------------------------------------------------------------------------
set {
	reference rhf
	basis 6-31G*
}

set_num_threads( 4 )
memory 2 gb

molecule MOL {
0 1

O	 1.718903	 -0.553873	 -0.093841
C	 0.861134	 0.272526	 -0.014869
C	 -0.623889	 -0.118271	 -0.003699
C	 1.237283	 1.741245	 0.071052
C	 -0.895332	 -1.256461	 -1.002431
C	 -1.473649	 1.103340	 -0.370799
C	 -0.983900	 -0.581483	 1.422328
H	 -0.615301	 -0.972064	 -2.012700
H	 -1.954261	 -1.493213	 -1.010207
H	 -0.360539	 -2.164946	 -0.747760
H	 -1.227476	 1.468527	 -1.361691
H	 -2.526716	 0.838935	 -0.358521
H	 -1.314819	 1.915855	 0.325860
H	 -2.039679	 -0.828001	 1.472951
H	 -0.427637	 -1.464071	 1.720694
H	 -0.789023	 0.202493	 2.147048
H	 1.165502	 2.073135	 1.102632
H	 2.261201	 1.856522	 -0.256698
H	 0.588880	 2.375430	 -0.521067

	symmetry c1
}
set optking {
	frozen_dihedral = ("
		1 2 3 5
	")
}

ee = optimize('scf')
oeprop('DIPOLE', 'QUADRUPOLE', 'MULLIKEN_CHARGES')
f=open( 'psi4out.xyz', 'w' )
f.write( "19  " )
f.write( str(ee) + "\n" )
f.write( MOL.save_string_xyz() )
f.close()
--------------------------------------------------------------------------

    Molecular point group: c1
  Charge       = 0
  Multiplicity = 1
  Basis Set: 6-31G*
  Basis Set:
  @DF-RHF Final Energy:  -309.05844228998063
    Total Energy =                       -309.0584422899802917
    Molecular point group: c1
  Basis Set: 6-31G*
  Basis Set:
  Basis Set: 6-31G*
  Basis Set:
  @DF-RHF Final Energy:  -309.05927893752670
    Total Energy =                       -309.0592789375266989
  Basis Set: 6-31G*
  Basis Set:
  Basis Set: 6-31G*
  Basis Set:
  @DF-RHF Final Energy:  -309.06128736933135
    Total Energy =                       -309.0612873693310689
  Basis Set: 6-31G*
  Basis Set:
  Basis Set: 6-31G*
  Basis Set:
  @DF-RHF Final Energy:  -309.06139733130141
    Total Energy =                       -309.0613973313015208
  Basis Set: 6-31G*
  Basis Set:
  @DF-RHF Final Energy:  -309.06169387549573
    Total Energy =                       -309.0616938754956777
  @DF-RHF Final Energy:  -309.06226809950937
    Total Energy =                       -309.0622680995094242
  @DF-RHF Final Energy:  -309.06232468186852
    Total Energy =                       -309.0623246818684606
  Basis Set: 6-31G*
  Basis Set:
  @DF-RHF Final Energy:  -309.06233317668074
    Total Energy =                       -309.0623331766808519
  Basis Set: 6-31G*
  Basis Set:
  Basis Set: 6-31G*
  Basis Set:
  @DF-RHF Final Energy:  -309.06233836195827
    Total Energy =                       -309.0623383619586093
  Basis Set: 6-31G*
  Basis Set:
  Basis Set: 6-31G*
  Basis Set:
  @DF-RHF Final Energy:  -309.06234523816653
    Total Energy =                       -309.0623452381665857
  Basis Set: 6-31G*
  Basis Set:
  Charge       = 0
  Multiplicity = 1
  Basis Set: 6-31G*
  Basis Set:

    Orbital Energies (a.u.)
    -----------------------

    Doubly Occupied:

       1A    -20.547645     2A    -11.323320     3A    -11.246321
       4A    -11.227462     5A    -11.222506     6A    -11.221613
       7A    -11.211482     8A     -1.394517     9A     -1.108472
      10A     -1.003210    11A     -0.944146    12A     -0.936830
      13A     -0.833862    14A     -0.703861    15A     -0.664663
      16A     -0.631270    17A     -0.621972    18A     -0.589947
      19A     -0.587438    20A     -0.570198    21A     -0.549731
      22A     -0.545867    23A     -0.524353    24A     -0.512809
      25A     -0.500225    26A     -0.471333    27A     -0.462022
      28A     -0.391838

  @DF-RHF Final Energy:  -309.06234527795624

   => Energetics <=

    Nuclear Repulsion Energy =            326.2481452453387760
    One-Electron Energy =               -1065.5231530992232365
    Two-Electron Energy =                 430.2126625759283911
    DFT Exchange-Correlation Energy =       0.0000000000000000
    Empirical Dispersion Energy =           0.0000000000000000
    PCM Polarization Energy =               0.0000000000000000
    EFP Energy =                            0.0000000000000000
    Total Energy =                       -309.0623452779561262
    Molecular point group: c1
  Basis Set: 6-31G*
  Basis Set:

  -Total Gradient:
     Atom            X                  Y                   Z
    ------   -----------------  -----------------  -----------------
       1        0.000031519219    -0.000108370250     0.001312392452
       2       -0.000085659128     0.000304650600    -0.002073366360
       3        0.000224420757    -0.000842276052     0.001394901134
       4       -0.000031829495    -0.000008532197     0.000059062409
       5       -0.000132682963     0.000624330176    -0.000653675587
       6        0.000002232158     0.000029465193     0.000003628656
       7        0.000002800538    -0.000016068841    -0.000015460103
       8        0.000001707233     0.000006179238     0.000007778844
       9        0.000002906674     0.000003158410     0.000006767051
      10        0.000008068837    -0.000010683975    -0.000005905515
      11       -0.000011925326    -0.000005525716    -0.000005293636
      12        0.000006599647     0.000005287057     0.000010464439
      13       -0.000001013228     0.000014691140    -0.000009413905
      14       -0.000000939235     0.000001335265    -0.000002432304
      15        0.000002397321    -0.000006330665     0.000001927364
      16        0.000004418722     0.000001660638    -0.000007461300
      17       -0.000003635684     0.000029981671     0.000006286766
      18       -0.000010118730    -0.000013476468    -0.000014439599
      19       -0.000009267325    -0.000009475222    -0.000015760807

  **** Optimization is complete! (in 11 steps) ****
    Final optimized geometry and variables:
    Molecular point group: c1

    Geometry (in Angstrom), charge = 0, multiplicity = 1:

    O            1.704011266855    -0.684485303950    -0.132332166515
    C            0.886206931085     0.181501376626    -0.046907619858
    C           -0.610783273471    -0.174518720634    -0.005913384986
    C            1.323745359571     1.626112243175     0.092728017408
    C           -0.873785851500    -1.314915361139    -0.999972479204
    C           -1.519474527328     1.015819007681    -0.348456693657
    C           -0.906958049761    -0.654030026828     1.428330163443
    H           -0.672991421805    -0.999019273803    -2.019325015171
    H           -1.913121772921    -1.624483496730    -0.945454690885
    H           -0.246451917877    -2.169320657068    -0.786263420207
    H           -1.325803793986     1.395382113185    -1.347357722299
    H           -2.557586081733     0.701705679490    -0.316654550994
    H           -1.408612064107     1.837223174549     0.351089475263
    H           -1.949803107767    -0.942275851458     1.517059844536
    H           -0.292282569332    -1.509677303776     1.681604010566
    H           -0.718019043042     0.127486284959     2.159411091898
    H            0.911227486037     2.073499809768     0.991496265883
    H            2.403188381764     1.658221906140     0.137152090840
    H            0.980464453340     2.218267442573    -0.749083234158

  Mulliken Charges: (a.u.)
   Center  Symbol    Alpha    Beta     Spin     Total
       1     O     4.26681  4.26681  0.00000 -0.53362
       2     C     2.72669  2.72669  0.00000  0.54663
       3     C     3.06270  3.06270  0.00000 -0.12541
       4     C     3.28998  3.28998  0.00000 -0.57996
       5     C     3.23291  3.23291  0.00000 -0.46582
       6     C     3.24086  3.24086  0.00000 -0.48171
       7     C     3.23924  3.23924  0.00000 -0.47848
       8     H     0.41944  0.41944  0.00000  0.16112
       9     H     0.42109  0.42109  0.00000  0.15782
      10     H     0.40102  0.40102  0.00000  0.19796
      11     H     0.41758  0.41758  0.00000  0.16484
      12     H     0.41406  0.41406  0.00000  0.17187
      13     H     0.41800  0.41800  0.00000  0.16400
      14     H     0.41492  0.41492  0.00000  0.17015
      15     H     0.40456  0.40456  0.00000  0.19087
      16     H     0.41994  0.41994  0.00000  0.16012
      17     H     0.40848  0.40848  0.00000  0.18303
      18     H     0.39553  0.39553  0.00000  0.20894
      19     H     0.40618  0.40618  0.00000  0.18765

   Total alpha = 28.00000, Total beta = 28.00000, Total charge = -0.00000
