                              Psi4 1.0.54 Driver

  ==> Input File <==

--------------------------------------------------------------------------
set {
	reference rhf
	basis cc-pvtz
}

set_num_threads( 4 )
memory 2 gb

molecule MOL {
0 1

H	 -0.366580	 2.045936	 -0.305741
C	 0.351829	 1.335402	 0.083179
N	 -0.000018	 0.000080	 -0.334836
H	 1.327156	 1.599860	 -0.305475
H	 0.380566	 1.445403	 1.171445
C	 0.204652	 -0.966315	 0.717101
C	 -1.337593	 -0.062577	 -0.872616
H	 -0.001706	 -1.963155	 0.348566
H	 1.234979	 -0.939424	 1.048598
H	 -0.434917	 -0.788347	 1.586784
H	 -1.434798	 0.624846	 -1.703389
H	 -1.542420	 -1.060452	 -1.239244
H	 -2.104044	 0.190068	 -0.133810

	symmetry c1
}
set optking {
	frozen_dihedral = ("
		6 3 2 1
	")
}

ee,wfn = optimize('scf', return_wfn=True)
oeprop( wfn, 'DIPOLE', 'QUADRUPOLE', 'MULLIKEN_CHARGES')
f=open( 'psi4out.xyz', 'w' )
f.write( "13  " )
f.write( str(ee) + "\n" )
f.write( MOL.save_string_xyz() )
f.close()
--------------------------------------------------------------------------

    Molecular point group: c1
  Charge       = 0
  Multiplicity = 1
  Basis Set: CC-PVTZ
  Basis Set:
  @DF-RHF Final Energy:  -173.32813655425210
    Total Energy =                       -173.3281365542520405
    Molecular point group: c1
  Basis Set: CC-PVTZ
  Basis Set:
  Basis Set: CC-PVTZ
  Basis Set:
  @DF-RHF Final Energy:  -173.32856025918164
    Total Energy =                       -173.3285602591818133
  Basis Set: CC-PVTZ
  Basis Set:
  Basis Set: CC-PVTZ
  Basis Set:
  @DF-RHF Final Energy:  -173.32866487373377
    Total Energy =                       -173.3286648737338567
  Basis Set: CC-PVTZ
  Basis Set:
  Basis Set: CC-PVTZ
  Basis Set:
  @DF-RHF Final Energy:  -173.32866665402645
    Total Energy =                       -173.3286666540264775
  Basis Set: CC-PVTZ
  Basis Set:
  Charge       = 0
  Multiplicity = 1
  Basis Set: CC-PVTZ
  Basis Set:

    Orbital Energies (a.u.)
    -----------------------

    Doubly Occupied:

       1A    -15.537306     2A    -11.233992     3A    -11.233883
       4A    -11.233824     5A     -1.222731     6A     -0.951827
       7A     -0.950948     8A     -0.807693     9A     -0.640070
      10A     -0.629840    11A     -0.627588    12A     -0.550844
      13A     -0.546694    14A     -0.513813    15A     -0.501254
      16A     -0.498502    17A     -0.345890

  @DF-RHF Final Energy:  -173.32866687040166

   => Energetics <=

    Nuclear Repulsion Energy =            139.1288580752650432
    One-Electron Energy =                -508.8616539068954694
    Two-Electron Energy =                 196.4041289612287642
    DFT Exchange-Correlation Energy =       0.0000000000000000
    Empirical Dispersion Energy =           0.0000000000000000
    PCM Polarization Energy =               0.0000000000000000
    EFP Energy =                            0.0000000000000000
    Total Energy =                       -173.3286668704016620
    Molecular point group: c1
  Basis Set: CC-PVTZ
  Basis Set:

  -Total Gradient:
     Atom            X                  Y                   Z
    ------   -----------------  -----------------  -----------------
       1       -0.002203636977    -0.000384895919     0.003345429297
       2        0.001721440249     0.000645545621    -0.003870924174
       3        0.003296000403    -0.000754925031    -0.000450813336
       4       -0.000004288988    -0.000000218426    -0.000003768876
       5       -0.000000763927     0.000000335191     0.000006628307
       6       -0.002832482213     0.000514754730     0.000965255644
       7        0.000041151997    -0.000003134681    -0.000004505839
       8       -0.000000269311    -0.000009251773     0.000007882474
       9        0.000000924632    -0.000004093171     0.000005753486
      10        0.000000154541    -0.000001592014     0.000002759055
      11       -0.000005954644     0.000000507888     0.000000958446
      12       -0.000012031319    -0.000002613837    -0.000003647574
      13       -0.000000244445    -0.000000418577    -0.000001006908

  **** Optimization is complete! (in 5 steps) ****
    Final optimized geometry and variables:
    Molecular point group: c1

    Geometry (in Angstrom), charge = 0, multiplicity = 1:

    H           -0.125344190953     1.991301631389    -0.222572350331
    C            0.580407911544     1.263472762847     0.156435160099
    N            0.203425764138    -0.081568351637    -0.247286785113
    H            1.571627979717     1.518568902584    -0.199934863284
    H            0.576262954616     1.377024973911     1.239684001958
    C            0.407229207167    -1.046479433059     0.806254748747
    C           -1.136781614487    -0.156172992186    -0.780797732563
    H            0.217353547168    -2.046456235856     0.436682404814
    H            1.433981037880    -1.010886072259     1.149395344401
    H           -0.242194786406    -0.873770624902     1.669569839872
    H           -1.237525652090     0.508581605806    -1.628905947506
    H           -1.338313670998    -1.163050472550    -1.124809554585
    H           -1.906478079149     0.107848200010    -0.048978648156

  Mulliken Charges: (a.u.)
   Center  Symbol    Alpha    Beta     Spin     Total
       1     H     0.45838  0.45838  0.00000  0.08325
       2     C     3.08604  3.08604  0.00000 -0.17207
       3     N     3.59919  3.59919  0.00000 -0.19838
       4     H     0.45016  0.45016  0.00000  0.09968
       5     H     0.46754  0.46754  0.00000  0.06492
       6     C     3.09079  3.09079  0.00000 -0.18158
       7     C     3.09004  3.09004  0.00000 -0.18009
       8     H     0.45343  0.45343  0.00000  0.09313
       9     H     0.45195  0.45195  0.00000  0.09610
      10     H     0.47342  0.47342  0.00000  0.05316
      11     H     0.45203  0.45203  0.00000  0.09594
      12     H     0.45328  0.45328  0.00000  0.09344
      13     H     0.47375  0.47375  0.00000  0.05251

   Total alpha = 17.00000, Total beta = 17.00000, Total charge = -0.00000

*** Psi4 exiting successfully. Buy a developer a beer!
