  ==> Input File <==

--------------------------------------------------------------------------
set {
	reference rhf
	basis 6-31G*
}

set_num_threads( 4 )
memory 2 gb

molecule MOL {
0 1

H	 2.652209	 0.763231	 0.000000
O	 2.263154	 -0.100023	 0.000000
C	 0.912879	 -0.015685	 0.000000
C	 0.287924	 0.237824	 -1.213979
C	 0.158440	 -0.171963	 1.151296
H	 0.891354	 0.355742	 -2.094761
C	 -1.089181	 0.332796	 -1.264682
H	 0.643963	 -0.368596	 2.092638
C	 -1.223823	 -0.074066	 1.085859
H	 -1.568425	 0.529252	 -2.207240
C	 -1.856472	 0.178032	 -0.117412
H	 -1.802171	 -0.196668	 1.984287
H	 -2.927393	 0.253270	 -0.164666

	symmetry c1
}
set optking {
	frozen_dihedral = ("
		4 3 2 1
	")
}

ee = optimize('scf')
oeprop('DIPOLE', 'QUADRUPOLE', 'MULLIKEN_CHARGES')
f=open( 'psi4out.xyz', 'w' )
f.write( "13  " )
f.write( str(ee) + "\n" )
f.write( MOL.save_string_xyz() )
f.close()
--------------------------------------------------------------------------

    Molecular point group: c1
  Charge       = 0
  Multiplicity = 1
  Basis Set: 6-31G*
  Basis Set:
  @DF-RHF Final Energy:  -305.55245895225983
    Total Energy =                       -305.5524589522597125
    Molecular point group: c1
  Basis Set: 6-31G*
  Basis Set:
  Basis Set: 6-31G*
  Basis Set:
  @DF-RHF Final Energy:  -305.55348039892880
    Total Energy =                       -305.5534803989286274
  Basis Set: 6-31G*
  Basis Set:
  Basis Set: 6-31G*
  Basis Set:
  @DF-RHF Final Energy:  -305.55354917316936
    Total Energy =                       -305.5535491731691309
  Basis Set: 6-31G*
  Basis Set:
  Basis Set: 6-31G*
  Basis Set:
  @DF-RHF Final Energy:  -305.55355649809843
    Total Energy =                       -305.5535564980985441
  Basis Set: 6-31G*
  Basis Set:
  Charge       = 0
  Multiplicity = 1
  Basis Set: 6-31G*
  Basis Set:

    Orbital Energies (a.u.)
    -----------------------

    Doubly Occupied:

       1A    -20.576622     2A    -11.288641     3A    -11.234734
       4A    -11.234290     5A    -11.227725     6A    -11.227231
       7A    -11.226095     8A     -1.391404     9A     -1.147523
      10A     -1.017906    11A     -1.003461    12A     -0.835268
      13A     -0.823184    14A     -0.731785    15A     -0.679724
      16A     -0.645120    17A     -0.627867    18A     -0.591103
      19A     -0.588529    20A     -0.521521    21A     -0.513640
      22A     -0.492004    23A     -0.466191    24A     -0.336503
      25A     -0.323910

  @DF-RHF Final Energy:  -305.55355769438131

   => Energetics <=

    Nuclear Repulsion Energy =            272.6308427589926850
    One-Electron Energy =                -954.8648347916754346
    Two-Electron Energy =                 376.6804343383015521
    DFT Exchange-Correlation Energy =       0.0000000000000000
    Empirical Dispersion Energy =           0.0000000000000000
    PCM Polarization Energy =               0.0000000000000000
    EFP Energy =                            0.0000000000000000
    Total Energy =                       -305.5535576943811975
    Molecular point group: c1
  Basis Set: 6-31G*
  Basis Set:

  -Total Gradient:
     Atom            X                  Y                   Z
    ------   -----------------  -----------------  -----------------
       1       -0.000021931959     0.000032325227     0.000807099887
       2        0.000169147176    -0.000321552481    -0.001063534864
       3       -0.000180093319     0.000823128481     0.000542839471
       4       -0.000025168475    -0.000563011431    -0.000194020684
       5        0.000157253916    -0.000006556620    -0.000036000503
       6       -0.000036097545    -0.000010829305     0.000023966663
       7        0.000048463186     0.000045700239    -0.000015914347
       8        0.000038325783    -0.000006518700    -0.000011551586
       9       -0.000120508420     0.000069657875    -0.000072465104
      10       -0.000046172477    -0.000006052605     0.000003088710
      11        0.000002981422    -0.000061971298     0.000082792407
      12        0.000016177751    -0.000001192989    -0.000014965674
      13       -0.000002377038     0.000006873606    -0.000051334378

  **** Optimization is complete! (in 5 steps) ****
    Final optimized geometry and variables:
    Molecular point group: c1

    Geometry (in Angstrom), charge = 0, multiplicity = 1:

    H            2.676144201413     0.676504568229     0.086155885632
    O            2.268953950303    -0.179418004827     0.092522060699
    C            0.904939110485    -0.054434586584     0.036142206304
    C            0.276227705181     0.185499993199    -1.174863013253
    C            0.159257186523    -0.220821666752     1.190411479702
    H            0.870870553341     0.291793671769    -2.064162802464
    C           -1.105285007575     0.274007053636    -1.224812164823
    H            0.667333865696    -0.420304355427     2.116019237568
    C           -1.222785400450    -0.136524828732     1.132156648513
    H           -1.592305062628     0.461357986566    -2.165201986682
    C           -1.859404512402     0.114014738314    -0.072855692316
    H           -1.800993999332    -0.267059765533     2.029453876045
    H           -2.931647751890     0.179382988666    -0.115414833675

  Mulliken Charges: (a.u.)
   Center  Symbol    Alpha    Beta     Spin     Total
       1     H     0.27140  0.27140  0.00000  0.45719
       2     O     4.38789  4.38789  0.00000 -0.77578
       3     C     2.81977  2.81977  0.00000  0.36046
       4     C     3.12004  3.12004  0.00000 -0.24008
       5     C     3.11698  3.11698  0.00000 -0.23397
       6     H     0.39558  0.39558  0.00000  0.20885
       7     C     3.09684  3.09684  0.00000 -0.19369
       8     H     0.39345  0.39345  0.00000  0.21309
       9     C     3.09700  3.09700  0.00000 -0.19401
      10     H     0.39811  0.39811  0.00000  0.20378
      11     C     3.10537  3.10537  0.00000 -0.21074
      12     H     0.39803  0.39803  0.00000  0.20394
      13     H     0.39953  0.39953  0.00000  0.20095

   Total alpha = 25.00000, Total beta = 25.00000, Total charge =  0.00000
