  ==> Input File <==

--------------------------------------------------------------------------
set {
	reference rhf
	basis 6-31G*
}

set_num_threads( 1 )
memory 2 gb

molecule MOL {
0 1

H	 -0.303079	 2.436506	 -0.532033
C	 0.340236	 2.050930	 0.268142
C	 0.692068	 0.589600	 0.160137
O	 0.708720	 2.772455	 1.137480
C	 -0.558097	 -0.297372	 0.091132
H	 1.316849	 0.327084	 1.005841
H	 1.279704	 0.455781	 -0.747391
C	 -1.850991	 0.512573	 -0.019058
H	 -0.476753	 -0.965681	 -0.762987
H	 -0.604799	 -0.930658	 0.975228
C	 -3.096943	 -0.368295	 -0.099594
H	 -1.800724	 1.150330	 -0.898172
H	 -1.931651	 1.177355	 0.838044
H	 -3.060452	 -1.020287	 -0.967456
H	 -3.996858	 0.233488	 -0.175704
H	 -3.191959	 -0.995686	 0.782074

	symmetry c1
}
set optking {
	frozen_dihedral = ("
		9 5 8 12,
		4 2 3 6
	")
}

ee = energy('scf')
oeprop('DIPOLE', 'QUADRUPOLE', 'MULLIKEN_CHARGES')
f=open( 'psi4out.xyz', 'w' )
f.write( "16  " )
f.write( str(ee) + "\n" )
f.write( MOL.save_string_xyz() )
f.close()
--------------------------------------------------------------------------

    Molecular point group: c1

    Geometry (in Angstrom), charge = 0, multiplicity = 1:

       Center              X                  Y                   Z               Mass
    ------------   -----------------  -----------------  -----------------  -----------------
           H          0.338450257502     1.552638606025    -0.793632204362     1.007825032070
           C          0.981765257502     1.167062606025     0.006542795638    12.000000000000
           C          1.333597257502    -0.294267393975    -0.101462204362    12.000000000000
           O          1.350249257502     1.888587606025     0.875880795638    15.994914619560
           C          0.083432257502    -1.181239393975    -0.170467204362    12.000000000000
           H          1.958378257502    -0.556783393975     0.744241795638     1.007825032070
           H          1.921233257502    -0.428086393975    -1.008990204362     1.007825032070
           C         -1.209461742498    -0.371294393975    -0.280657204362    12.000000000000
           H          0.164776257502    -1.849548393975    -1.024586204362     1.007825032070
           H          0.036730257502    -1.814525393975     0.713628795638     1.007825032070
           C         -2.455413742498    -1.252162393975    -0.361193204362    12.000000000000
           H         -1.159194742498     0.266462606025    -1.159771204362     1.007825032070
           H         -1.290121742498     0.293487606025     0.576444795638     1.007825032070
           H         -2.418922742498    -1.904154393975    -1.229055204362     1.007825032070
           H         -3.355328742498    -0.650379393975    -0.437303204362     1.007825032070
           H         -2.550429742498    -1.879553393975     0.520474795638     1.007825032070

  Charge       = 0
  Multiplicity = 1
  Basis Set: 6-31G*
  Basis Set:

    Orbital Energies (a.u.)
    -----------------------

    Doubly Occupied:

       1A    -20.559485     2A    -11.323896     3A    -11.234622
       4A    -11.233193     5A    -11.230858     6A    -11.219065
       7A     -1.400128     8A     -1.100455     9A     -1.015242
      10A     -0.902587    11A     -0.843404    12A     -0.766498
      13A     -0.678589    14A     -0.645635    15A     -0.628088
      16A     -0.604120    17A     -0.581465    18A     -0.563220
      19A     -0.524058    20A     -0.510639    21A     -0.498177
      22A     -0.474852    23A     -0.469661    24A     -0.404888

  @DF-RHF Final Energy:  -270.00739853733734

   => Energetics <=

    Nuclear Repulsion Energy =            236.4066043377411575
    One-Electron Energy =                -834.0023754423782520
    Two-Electron Energy =                 327.5883725672999844
    DFT Exchange-Correlation Energy =       0.0000000000000000
    Empirical Dispersion Energy =           0.0000000000000000
    PCM Polarization Energy =               0.0000000000000000
    EFP Energy =                            0.0000000000000000
    Total Energy =                       -270.0073985373371670

  Mulliken Charges: (a.u.)
   Center  Symbol    Alpha    Beta     Spin     Total
       1     H     0.42825  0.42825  0.00000  0.14351
       2     C     2.83614  2.83614  0.00000  0.32772
       3     C     3.21071  3.21071  0.00000 -0.42143
       4     O     4.23919  4.23919  0.00000 -0.47837
       5     C     3.15692  3.15692  0.00000 -0.31385
       6     H     0.39672  0.39672  0.00000  0.20656
       7     H     0.40726  0.40726  0.00000  0.18547
       8     C     3.17353  3.17353  0.00000 -0.34705
       9     H     0.41569  0.41569  0.00000  0.16863
      10     H     0.41144  0.41144  0.00000  0.17713
      11     C     3.23750  3.23750  0.00000 -0.47500
      12     H     0.41985  0.41985  0.00000  0.16030
      13     H     0.41172  0.41172  0.00000  0.17656
      14     H     0.42016  0.42016  0.00000  0.15969
      15     H     0.41596  0.41596  0.00000  0.16809
      16     H     0.41898  0.41898  0.00000  0.16205

   Total alpha = 24.00000, Total beta = 24.00000, Total charge =  0.00000
