  ==> Input File <==

--------------------------------------------------------------------------
set {
	reference rhf
	basis 6-31G*
}

set_num_threads( 1 )
memory 2 gb

molecule MOL {
0 1

O	 2.034175	 0.955199	 -0.773116
C	 1.705091	 0.115954	 0.001797
C	 0.381791	 -0.609817	 0.001258
O	 2.483254	 -0.304108	 0.991315
C	 -0.823008	 0.326187	 0.001381
H	 0.371250	 -1.265087	 -0.865474
H	 0.370908	 -1.265746	 0.867490
C	 -2.149452	 -0.435131	 -0.000098
H	 -0.770201	 0.977095	 -0.865636
H	 -0.771220	 0.975655	 0.869608
C	 -3.368779	 0.488503	 -0.000883
H	 -2.193746	 -1.087250	 -0.871175
H	 -2.195311	 -1.087803	 0.870418
C	 -4.693822	 -0.272754	 -0.001129
H	 -3.325798	 1.139422	 -0.871284
H	 -3.326423	 1.139959	 0.869145
H	 -4.781274	 -0.907928	 -0.878124
H	 -5.538651	 0.408946	 -0.001420
H	 -4.781694	 -0.907783	 0.875984
C	 3.760220	 0.297192	 1.104237
H	 4.341897	 0.124705	 0.210129
H	 4.232649	 -0.170690	 1.953810
H	 3.666245	 1.361240	 1.266949

	symmetry c1
}
set optking {
	frozen_dihedral = ("
		15 11 8 12,
		9 5 8 12,
		9 5 3 6,
		1 2 4 20
	")
}

ee = energy('scf')
oeprop('DIPOLE', 'QUADRUPOLE', 'MULLIKEN_CHARGES')
f=open( 'psi4out.xyz', 'w' )
f.write( "23  " )
f.write( str(ee) + "\n" )
f.write( MOL.save_string_xyz() )
f.close()
--------------------------------------------------------------------------

    Molecular point group: c1

    Geometry (in Angstrom), charge = 0, multiplicity = 1:

       Center              X                  Y                   Z               Mass
    ------------   -----------------  -----------------  -----------------  -----------------
           O          2.071193043749     0.887819241858    -0.928582487005    15.994914619560
           C          1.742109043749     0.048574241858    -0.153669487005    12.000000000000
           C          0.418809043749    -0.677196758142    -0.154208487005    12.000000000000
           O          2.520272043749    -0.371487758142     0.835848512995    15.994914619560
           C         -0.785989956251     0.258807241858    -0.154085487005    12.000000000000
           H          0.408268043749    -1.332466758142    -1.020940487005     1.007825032070
           H          0.407926043749    -1.333125758142     0.712023512995     1.007825032070
           C         -2.112433956251    -0.502510758142    -0.155564487005    12.000000000000
           H         -0.733182956251     0.909715241858    -1.021102487005     1.007825032070
           H         -0.734201956251     0.908275241858     0.714141512995     1.007825032070
           C         -3.331760956251     0.421123241858    -0.156349487005    12.000000000000
           H         -2.156727956251    -1.154629758142    -1.026641487005     1.007825032070
           H         -2.158292956251    -1.155182758142     0.714951512995     1.007825032070
           C         -4.656803956251    -0.340133758142    -0.156595487005    12.000000000000
           H         -3.288779956251     1.072042241858    -1.026750487005     1.007825032070
           H         -3.289404956251     1.072579241858     0.713678512995     1.007825032070
           H         -4.744255956251    -0.975307758142    -1.033590487005     1.007825032070
           H         -5.501632956251     0.341566241858    -0.156886487005     1.007825032070
           H         -4.744675956251    -0.975162758142     0.720517512995     1.007825032070
           C          3.797238043749     0.229812241858     0.948770512995    12.000000000000
           H          4.378915043749     0.057325241858     0.054662512995     1.007825032070
           H          4.269667043749    -0.238069758142     1.798343512995     1.007825032070
           H          3.703263043749     1.293860241858     1.111482512995     1.007825032070

  Charge       = 0
  Multiplicity = 1
  Basis Set: 6-31G*
  Basis Set:

    Orbital Energies (a.u.)
    -----------------------

    Doubly Occupied:

       1A    -20.605042     2A    -20.543425     3A    -11.371607
       4A    -11.280315     5A    -11.233624     6A    -11.225457
       7A    -11.220489     8A    -11.218526     9A    -11.211090
      10A     -1.469180    11A     -1.361864    12A     -1.095655
      13A     -1.044697    14A     -0.987058    15A     -0.933047
      16A     -0.845886    17A     -0.797419    18A     -0.770574
      19A     -0.694606    20A     -0.681419    21A     -0.671827
      22A     -0.652676    23A     -0.606438    24A     -0.599048
      25A     -0.575968    26A     -0.569805    27A     -0.545901
      28A     -0.528618    29A     -0.523763    30A     -0.508467
      31A     -0.485564    32A     -0.474234    33A     -0.467820
      34A     -0.464737    35A     -0.454352    36A     -0.431116

  @DF-RHF Final Energy:  -422.97442486649675

   => Energetics <=

    Nuclear Repulsion Energy =            452.4593745920577703
    One-Electron Energy =               -1472.5652550478444027
    Two-Electron Energy =                 597.1314555892928411
    DFT Exchange-Correlation Energy =       0.0000000000000000
    Empirical Dispersion Energy =           0.0000000000000000
    PCM Polarization Energy =               0.0000000000000000
    EFP Energy =                            0.0000000000000000
    Total Energy =                       -422.9744248664937913

  Mulliken Charges: (a.u.)
   Center  Symbol    Alpha    Beta     Spin     Total
       1     O     4.28614  4.28614  0.00000 -0.57228
       2     C     2.60720  2.60720  0.00000  0.78560
       3     C     3.20733  3.20733  0.00000 -0.41466
       4     O     4.30404  4.30404  0.00000 -0.60808
       5     C     3.15988  3.15988  0.00000 -0.31977
       6     H     0.40105  0.40105  0.00000  0.19791
       7     H     0.40022  0.40022  0.00000  0.19956
       8     C     3.15288  3.15288  0.00000 -0.30575
       9     H     0.40521  0.40521  0.00000  0.18958
      10     H     0.41637  0.41637  0.00000  0.16725
      11     C     3.15224  3.15224  0.00000 -0.30448
      12     H     0.42193  0.42193  0.00000  0.15615
      13     H     0.42255  0.42255  0.00000  0.15491
      14     C     3.23979  3.23979  0.00000 -0.47959
      15     H     0.42063  0.42063  0.00000  0.15875
      16     H     0.42193  0.42193  0.00000  0.15614
      17     H     0.42123  0.42123  0.00000  0.15754
      18     H     0.41818  0.41818  0.00000  0.16363
      19     H     0.42158  0.42158  0.00000  0.15684
      20     C     3.09343  3.09343  0.00000 -0.18686
      21     H     0.40881  0.40881  0.00000  0.18237
      22     H     0.40852  0.40852  0.00000  0.18297
      23     H     0.40886  0.40886  0.00000  0.18228

   Total alpha = 36.00000, Total beta = 36.00000, Total charge =  0.00000
