                              Psi4 1.0.54 Driver

  ==> Input File <==

--------------------------------------------------------------------------
set {
	reference rhf
	basis cc-pvtz
}

set_num_threads( 4 )
memory 2 gb

molecule MOL {
0 1

O	 -2.142741	 0.380287	 1.935344
C	 -2.306626	 -0.360237	 1.025845
C	 -3.483748	 -1.290115	 0.907542
O	 -1.481217	 -0.452708	 0.001092
H	 -4.390932	 -0.701384	 0.929753
H	 -3.445911	 -1.875104	 0.002558
H	 -3.494068	 -1.943116	 1.769840
C	 -0.332055	 0.384012	 -0.000250
C	 0.892252	 -0.506059	 -0.000295
H	 -0.360822	 1.020205	 -0.874146
H	 -0.359817	 1.021310	 0.872861
C	 2.188199	 0.299473	 -0.001416
H	 0.857046	 -1.152781	 -0.871031
H	 0.857910	 -1.151798	 0.871202
C	 3.437151	 -0.577593	 -0.000991
H	 2.209565	 0.950707	 -0.871712
H	 2.210062	 0.952234	 0.867721
C	 4.732399	 0.226982	 -0.000914
H	 3.417321	 -1.229122	 -0.869998
H	 3.416993	 -1.228707	 0.868337
H	 4.797903	 0.863451	 -0.876963
H	 5.598517	 -0.424436	 -0.000420
H	 4.797415	 0.864118	 0.874691

	symmetry c1
}
set optking {
	frozen_dihedral = ("
		2 4 8 10
	")
}

ee,wfn = optimize('scf', return_wfn=True)
oeprop( wfn, 'DIPOLE', 'QUADRUPOLE', 'MULLIKEN_CHARGES')
f=open( 'psi4out.xyz', 'w' )
f.write( "23  " )
f.write( str(ee) + "\n" )
f.write( MOL.save_string_xyz() )
f.close()
--------------------------------------------------------------------------

    Molecular point group: c1
  Charge       = 0
  Multiplicity = 1
  Basis Set: CC-PVTZ
  Basis Set:
  @DF-RHF Final Energy:  -423.13193676817349
    Total Energy =                       -423.1319367681735457
    Molecular point group: c1
  Basis Set: CC-PVTZ
  Basis Set:
  Basis Set: CC-PVTZ
  Basis Set:
  @DF-RHF Final Energy:  -423.13032306313039
    Total Energy =                       -423.1303230631300494
  Basis Set: CC-PVTZ
  Basis Set:
  Basis Set: CC-PVTZ
  Basis Set:
  @DF-RHF Final Energy:  -423.13269081886074
    Total Energy =                       -423.1326908188607376
  Basis Set: CC-PVTZ
  Basis Set:
  Basis Set: CC-PVTZ
  Basis Set:
  @DF-RHF Final Energy:  -423.13134469753436
    Total Energy =                       -423.1313446975339048
  Basis Set: CC-PVTZ
  Basis Set:
  Basis Set: CC-PVTZ
  Basis Set:
  @DF-RHF Final Energy:  -423.13287778302947
    Total Energy =                       -423.1328777830295849
  Basis Set: CC-PVTZ
  Basis Set:
  Basis Set: CC-PVTZ
  Basis Set:
  @DF-RHF Final Energy:  -423.13288293987688
    Total Energy =                       -423.1328829398770495
  Basis Set: CC-PVTZ
  Basis Set:
  Charge       = 0
  Multiplicity = 1
  Basis Set: CC-PVTZ
  Basis Set:

    Orbital Energies (a.u.)
    -----------------------

    Doubly Occupied:

       1A    -20.594804     2A    -20.528864     3A    -11.367907
       4A    -11.277842     5A    -11.230085     6A    -11.221758
       7A    -11.220852     8A    -11.218962     9A    -11.210466
      10A     -1.468497    11A     -1.364498    12A     -1.094396
      13A     -1.042722    14A     -1.003572    15A     -0.932364
      16A     -0.847407    17A     -0.800780    18A     -0.773183
      19A     -0.700063    20A     -0.682817    21A     -0.662274
      22A     -0.650208    23A     -0.606661    24A     -0.588638
      25A     -0.586550    26A     -0.573201    27A     -0.551902
      28A     -0.540435    29A     -0.523481    30A     -0.509041
      31A     -0.489331    32A     -0.479547    33A     -0.474388
      34A     -0.470633    35A     -0.443895    36A     -0.437940

  @DF-RHF Final Energy:  -423.13288327434964

   => Energetics <=

    Nuclear Repulsion Energy =            452.4749200493776016
    One-Electron Energy =               -1472.8756777197904739
    Two-Electron Energy =                 597.2678743960631209
    DFT Exchange-Correlation Energy =       0.0000000000000000
    Empirical Dispersion Energy =           0.0000000000000000
    PCM Polarization Energy =               0.0000000000000000
    EFP Energy =                            0.0000000000000000
    Total Energy =                       -423.1328832743497514
    Molecular point group: c1
  Basis Set: CC-PVTZ
  Basis Set:

  -Total Gradient:
     Atom            X                  Y                   Z
    ------   -----------------  -----------------  -----------------
       1        0.000011657629     0.000007443849    -0.000024200255
       2       -0.000102897590     0.000164066191    -0.000233913770
       3       -0.000011093625     0.000006229383    -0.000013392247
       4        0.000127996329    -0.000217274822     0.000360605776
       5        0.000001538561    -0.000004463409     0.000004537262
       6       -0.000006095666     0.000005453407     0.000011059089
       7        0.000000455218    -0.000008170856    -0.000000485508
       8        0.000141066565    -0.000226290267    -0.000253419581
       9        0.000011214830     0.000008476365    -0.000003071393
      10       -0.000173154500     0.000266317354     0.000143297149
      11        0.000004379691    -0.000001667722    -0.000002347583
      12       -0.000004798729    -0.000005195537     0.000009322349
      13        0.000000479093     0.000001177107     0.000004794940
      14       -0.000001135560     0.000006898808    -0.000002974494
      15        0.000003186352    -0.000002493629    -0.000000779505
      16        0.000001384051    -0.000000419147     0.000008866173
      17       -0.000000692702    -0.000003063191     0.000004753489
      18       -0.000001396131     0.000000362822    -0.000010537352
      19        0.000000472242    -0.000001821083     0.000002790507
      20       -0.000001830230     0.000009890244    -0.000004145008
      21        0.000002363488    -0.000000722318     0.000002772216
      22       -0.000000355193     0.000000444265    -0.000002324835
      23       -0.000002744133    -0.000005177812    -0.000001207417

  **** Optimization is complete! (in 7 steps) ****
    Final optimized geometry and variables:
    Molecular point group: c1

    Geometry (in Angstrom), charge = 0, multiplicity = 1:

    O           -2.389517193366     0.790680662479     1.415509240202
    C           -2.503403591428    -0.047712433222     0.587185929546
    C           -3.679938269990    -0.983836929043     0.514019220501
    O           -1.625251942642    -0.274419446114    -0.372326225474
    H           -4.581252436588    -0.394282201133     0.412396956923
    H           -3.595796036835    -1.674597352387    -0.309500226365
    H           -3.745415170711    -1.526394969795     1.447598042872
    C           -0.448621030992     0.521051584535    -0.463822752203
    C            0.776362953761    -0.362403916213    -0.332431408398
    H           -0.478929971697     1.000478523019    -1.433372692006
    H           -0.469377861362     1.281226816760     0.298898863654
    C            2.072716618198     0.425175417626    -0.498227211247
    H            0.723883131339    -1.152328103642    -1.074781439191
    H            0.757864880641    -0.842720264951     0.641004921769
    C            3.321365560168    -0.442533125059    -0.367953489140
    H            2.077774453973     0.913828595885    -1.469740036280
    H            2.110650209437     1.219642764978     0.242878520094
    C            4.616261277700     0.344809050790    -0.536316578461
    H            3.283834767793    -1.237556141535    -1.107410087399
    H            3.318997315595    -0.929177377615     0.603215632498
    H            4.664026486412     0.816048530492    -1.512393659137
    H            5.482169924870    -0.299491274599    -0.437938672563
    H            4.699050655173     1.126466189140     0.211368052477

  Mulliken Charges: (a.u.)
   Center  Symbol    Alpha    Beta     Spin     Total
       1     O     4.20355  4.20355  0.00000 -0.40710
       2     C     2.80700  2.80700  0.00000  0.38601
       3     C     3.14276  3.14276  0.00000 -0.28551
       4     O     4.15373  4.15373  0.00000 -0.30746
       5     H     0.44218  0.44218  0.00000  0.11564
       6     H     0.44206  0.44206  0.00000  0.11587
       7     H     0.44258  0.44258  0.00000  0.11484
       8     C     2.98662  2.98662  0.00000  0.02676
       9     C     3.08649  3.08649  0.00000 -0.17297
      10     H     0.44894  0.44894  0.00000  0.10212
      11     H     0.44117  0.44117  0.00000  0.11767
      12     C     3.09857  3.09857  0.00000 -0.19714
      13     H     0.45032  0.45032  0.00000  0.09936
      14     H     0.45095  0.45095  0.00000  0.09810
      15     C     3.08457  3.08457  0.00000 -0.16913
      16     H     0.45428  0.45428  0.00000  0.09145
      17     H     0.45088  0.45088  0.00000  0.09823
      18     C     3.14987  3.14987  0.00000 -0.29974
      19     H     0.45375  0.45375  0.00000  0.09249
      20     H     0.45285  0.45285  0.00000  0.09431
      21     H     0.45505  0.45505  0.00000  0.08991
      22     H     0.44767  0.44767  0.00000  0.10467
      23     H     0.45419  0.45419  0.00000  0.09163

   Total alpha = 36.00000, Total beta = 36.00000, Total charge =  0.00000

*** Psi4 exiting successfully. Buy a developer a beer!
