  ==> Input File <==

--------------------------------------------------------------------------
set {
	reference rhf
	basis 6-31G*
}

set_num_threads( 4 )
memory 2 gb

molecule MOL {
0 1

H	 2.297206	 4.181371	 2.509281
C	 2.268807	 3.432355	 3.310400
C	 0.992270	 2.634603	 3.391994
O	 3.200398	 3.297831	 4.035515
C	 0.607927	 1.999901	 2.048235
H	 1.105289	 1.886691	 4.168243
H	 0.205320	 3.321151	 3.701861
C	 1.582381	 0.913913	 1.585236
H	 -0.387547	 1.575853	 2.140423
H	 0.536548	 2.777101	 1.288879
C	 1.180775	 0.282413	 0.250794
H	 1.643311	 0.141335	 2.348949
H	 2.584279	 1.329959	 1.497805
C	 2.148627	 -0.814315	 -0.201312
H	 0.175782	 -0.122042	 0.341001
H	 1.132278	 1.056278	 -0.514168
C	 3.580890	 -0.659131	 0.322722
H	 2.166869	 -0.852443	 -1.289387
H	 1.762857	 -1.776509	 0.128956
C	 4.324889	 0.564933	 -0.213704
H	 4.142010	 -1.551473	 0.056605
H	 3.564836	 -0.624694	 1.410140
H	 4.342616	 0.565491	 -1.300421
H	 3.866655	 1.493402	 0.110242
H	 5.353900	 0.572371	 0.132816

	symmetry c1
}
set optking {
	frozen_dihedral = ("
		8 11 14 18
	")
}

ee = optimize('scf')
oeprop('DIPOLE', 'QUADRUPOLE', 'MULLIKEN_CHARGES')
f=open( 'psi4out.xyz', 'w' )
f.write( "25  " )
f.write( str(ee) + "\n" )
f.write( MOL.save_string_xyz() )
f.close()
--------------------------------------------------------------------------

    Molecular point group: c1
  Charge       = 0
  Multiplicity = 1
  Basis Set: 6-31G*
  Basis Set:
  @DF-RHF Final Energy:  -387.11106926831354
    Total Energy =                       -387.1110692683141679
    Molecular point group: c1
  Basis Set: 6-31G*
  Basis Set:
  Basis Set: 6-31G*
  Basis Set:
  @DF-RHF Final Energy:  -387.11461609230219
    Total Energy =                       -387.1146160923013895
  Basis Set: 6-31G*
  Basis Set:
  Basis Set: 6-31G*
  Basis Set:
  @DF-RHF Final Energy:  -387.11488485387025
    Total Energy =                       -387.1148848538699667
  Basis Set: 6-31G*
  Basis Set:
  Basis Set: 6-31G*
  Basis Set:
  @DF-RHF Final Energy:  -387.11539866348227
    Total Energy =                       -387.1153986634822104
  Basis Set: 6-31G*
  Basis Set:
  @DF-RHF Final Energy:  -387.11549371403800
    Total Energy =                       -387.1154937140377115
  @DF-RHF Final Energy:  -387.11548608173331
    Total Energy =                       -387.1154860817326835
  Basis Set: 6-31G*
  Basis Set:
  @DF-RHF Final Energy:  -387.11549934969622
    Total Energy =                       -387.1154993496959378
  Basis Set: 6-31G*
  Basis Set:
  Basis Set: 6-31G*
  Basis Set:
  @DF-RHF Final Energy:  -387.11548983832921
    Total Energy =                       -387.1154898383288128
  Basis Set: 6-31G*
  Basis Set:
  Basis Set: 6-31G*
  Basis Set:
  @DF-RHF Final Energy:  -387.11550028095928
    Total Energy =                       -387.1155002809588268
  Basis Set: 6-31G*
  Basis Set:
  Charge       = 0
  Multiplicity = 1
  Basis Set: 6-31G*
  Basis Set:

    Orbital Energies (a.u.)
    -----------------------

    Doubly Occupied:

       1A    -20.562313     2A    -11.326396     3A    -11.235435
       4A    -11.234753     5A    -11.223577     6A    -11.220678
       7A    -11.217525     8A    -11.215847     9A    -11.209516
      10A     -1.402229    11A     -1.103387    12A     -1.067221
      13A     -1.009390    14A     -0.944828    15A     -0.874213
      16A     -0.831180    17A     -0.788996    18A     -0.766091
      19A     -0.665821    20A     -0.661789    21A     -0.631177
      22A     -0.626618    23A     -0.609703    24A     -0.590517
      25A     -0.561789    26A     -0.558464    27A     -0.538061
      28A     -0.519900    29A     -0.513455    30A     -0.499907
      31A     -0.488177    32A     -0.482153    33A     -0.454089
      34A     -0.450272    35A     -0.445969    36A     -0.409755

  @DF-RHF Final Energy:  -387.11550032159971

   => Energetics <=

    Nuclear Repulsion Energy =            452.2760469220132791
    One-Electron Energy =               -1420.9007127388745175
    Two-Electron Energy =                 581.5091654952618683
    DFT Exchange-Correlation Energy =       0.0000000000000000
    Empirical Dispersion Energy =           0.0000000000000000
    PCM Polarization Energy =               0.0000000000000000
    EFP Energy =                            0.0000000000000000
    Total Energy =                       -387.1155003215993702
    Molecular point group: c1
  Basis Set: 6-31G*
  Basis Set:

  -Total Gradient:
     Atom            X                  Y                   Z
    ------   -----------------  -----------------  -----------------
       1       -0.000005908619     0.000003045947     0.000000594146
       2        0.000005869561    -0.000001995666    -0.000012252283
       3       -0.000005563118     0.000006090298     0.000003313114
       4       -0.000009280292     0.000001403595     0.000010045222
       5        0.000016540973     0.000017672267    -0.000002705945
       6        0.000004634661    -0.000000441499     0.000002175344
       7        0.000003247647     0.000000030456     0.000012380673
       8        0.003307721775     0.003825355671    -0.002631781941
       9        0.000005583593    -0.000003543639    -0.000008229518
      10        0.000002564970     0.000001922997     0.000002124399
      11       -0.003531310289    -0.004532195007     0.003810527180
      12        0.000009645810    -0.000007289194     0.000002056312
      13       -0.000029741048    -0.000003368147    -0.000003294916
      14       -0.005678969039    -0.003999173950    -0.001343029792
      15       -0.000005459214     0.000017209060     0.000016884475
      16        0.000007224815     0.000013714610     0.000012889158
      17        0.000011635235    -0.000042461097    -0.000018619528
      18        0.005896278429     0.004701949898     0.000126550792
      19        0.000032568544    -0.000000250152     0.000000464676
      20       -0.000045138394     0.000021641421     0.000019172061
      21        0.000001175093    -0.000019508829     0.000011257244
      22        0.000003232166     0.000013732370    -0.000007173465
      23        0.000002271955    -0.000009800739    -0.000000508130
      24        0.000015418554     0.000007283493    -0.000012285301
      25       -0.000014243769    -0.000011024163     0.000009446020

  **** Optimization is complete! (in 10 steps) ****
    Final optimized geometry and variables:
    Molecular point group: c1

    Geometry (in Angstrom), charge = 0, multiplicity = 1:

    H           -0.061498687183     2.953524171361     0.986190412226
    C           -0.084265840972     2.192007313642     1.775776711581
    C           -1.332633184474     1.347706943490     1.810773466705
    O            0.829783368799     2.083964483119     2.527290379453
    C           -1.644844730190     0.702840806843     0.452899315438
    H           -1.219379843511     0.601894477939     2.589055497576
    H           -2.155127981538     2.003508205493     2.093377839012
    C           -0.618430497969    -0.351348054659     0.027548073526
    H           -2.629704151523     0.248321387384     0.506140527938
    H           -1.710917063187     1.478629306772    -0.308334217444
    C           -0.965700562866    -0.975579797227    -1.327615387140
    H           -0.570500351919    -1.122617477255     0.794069403789
    H            0.368537067192     0.097718465002    -0.010131086152
    C           -0.045292139505    -2.114444885387    -1.824920646222
    H           -1.987158503918    -1.346108912161    -1.297865831727
    H           -0.966454074778    -0.175806204081    -2.065631032396
    C            1.430171191192    -2.050337372362    -1.398036390436
    H           -0.039088178716    -2.092175224624    -2.911931476444
    H           -0.454239778569    -3.071538775832    -1.515488336843
    C            2.217421089066    -0.916993339469    -2.059482704842
    H            1.896121457471    -2.994127150774    -1.670612985539
    H            1.515357432544    -1.978480432273    -0.318134614236
    H            2.209686966471    -1.022533608730    -3.140995222308
    H            1.807394240685     0.060020768911    -1.824601556910
    H            3.253372111109    -0.922299914798    -1.735288935660

  Mulliken Charges: (a.u.)
   Center  Symbol    Alpha    Beta     Spin     Total
       1     H     0.43260  0.43260  0.00000  0.13479
       2     C     2.83107  2.83107  0.00000  0.33786
       3     C     3.20780  3.20780  0.00000 -0.41559
       4     O     4.23777  4.23777  0.00000 -0.47555
       5     C     3.16647  3.16647  0.00000 -0.33295
       6     H     0.39978  0.39978  0.00000  0.20044
       7     H     0.40671  0.40671  0.00000  0.18657
       8     C     3.15925  3.15925  0.00000 -0.31849
       9     H     0.41275  0.41275  0.00000  0.17450
      10     H     0.41980  0.41980  0.00000  0.16040
      11     C     3.15578  3.15578  0.00000 -0.31156
      12     H     0.41836  0.41836  0.00000  0.16327
      13     H     0.41482  0.41482  0.00000  0.17037
      14     C     3.15422  3.15422  0.00000 -0.30844
      15     H     0.41997  0.41997  0.00000  0.16007
      16     H     0.42277  0.42277  0.00000  0.15445
      17     C     3.15819  3.15819  0.00000 -0.31638
      18     H     0.42147  0.42147  0.00000  0.15706
      19     H     0.41984  0.41984  0.00000  0.16032
      20     C     3.24077  3.24077  0.00000 -0.48154
      21     H     0.41988  0.41988  0.00000  0.16023
      22     H     0.41846  0.41846  0.00000  0.16309
      23     H     0.42223  0.42223  0.00000  0.15555
      24     H     0.42204  0.42204  0.00000  0.15593
      25     H     0.41720  0.41720  0.00000  0.16560

   Total alpha = 36.00000, Total beta = 36.00000, Total charge = -0.00000
