  ==> Input File <==

--------------------------------------------------------------------------
set {
	reference rhf
	basis cc-pvtz
}

set_num_threads( 4 )
memory 2 gb

molecule MOL {
0 1

H	 -2.335435	 -1.183953	 -0.872350
C	 -2.776330	 -0.242578	 -1.227749
C	 -2.653809	 0.914422	 -0.273689
O	 -3.305092	 -0.198829	 -2.284066
C	 -1.216901	 1.136108	 0.207794
H	 -3.055569	 1.798662	 -0.751226
H	 -3.284811	 0.680037	 0.580832
C	 -0.247837	 0.040196	 -0.230469
H	 -0.872882	 2.093195	 -0.169002
H	 -1.209325	 1.218376	 1.291938
C	 1.181757	 0.280428	 0.247371
H	 -0.259600	 -0.030819	 -1.314870
H	 -0.591284	 -0.923375	 0.136958
C	 2.151032	 -0.811012	 -0.202643
H	 1.515939	 1.247397	 -0.115449
H	 1.191514	 0.341223	 1.333422
C	 3.580021	 -0.656538	 0.320835
H	 2.170545	 -0.847575	 -1.289412
H	 1.766632	 -1.772905	 0.124928
C	 4.327657	 0.562694	 -0.213579
H	 4.138806	 -1.549270	 0.057813
H	 3.561991	 -0.620783	 1.406976
H	 4.355973	 0.557257	 -1.298551
H	 3.867136	 1.491650	 0.100501
H	 5.351524	 0.571613	 0.142204

	symmetry c1
}
set optking {
	frozen_dihedral = ("
		6 3 5 8
	")
}

ee = optimize('scf')
oeprop('DIPOLE', 'QUADRUPOLE', 'MULLIKEN_CHARGES')
f=open( 'psi4out.xyz', 'w' )
f.write( "25  " )
f.write( str(ee) + "\n" )
f.write( MOL.save_string_xyz() )
f.close()
--------------------------------------------------------------------------

    Molecular point group: c1
  Charge       = 0
  Multiplicity = 1
  Basis Set: CC-PVTZ
  Basis Set:
  @DF-RHF Final Energy:  -387.24918523536979
    Total Energy =                       -387.2491852353697368
    Molecular point group: c1
  Basis Set: CC-PVTZ
  Basis Set:
  Basis Set: CC-PVTZ
  Basis Set:
  @DF-RHF Final Energy:  -387.24972964988564
    Total Energy =                       -387.2497296498856940
  Basis Set: CC-PVTZ
  Basis Set:
  Basis Set: CC-PVTZ
  Basis Set:
  @DF-RHF Final Energy:  -387.25186170135339
    Total Energy =                       -387.2518617013538460
  Basis Set: CC-PVTZ
  Basis Set:
  Basis Set: CC-PVTZ
  Basis Set:
  @DF-RHF Final Energy:  -387.25183745779628
    Total Energy =                       -387.2518374577965687
  Basis Set: CC-PVTZ
  Basis Set:
  @DF-RHF Final Energy:  -387.25107819262439
    Total Energy =                       -387.2510781926248455
  @DF-RHF Final Energy:  -387.25236926516266
    Total Energy =                       -387.2523692651626561
  Basis Set: CC-PVTZ
  Basis Set:
  @DF-RHF Final Energy:  -387.25237689498249
    Total Energy =                       -387.2523768949822625
  Basis Set: CC-PVTZ
  Basis Set:
  Basis Set: CC-PVTZ
  Basis Set:
  @DF-RHF Final Energy:  -387.25239070675553
    Total Energy =                       -387.2523907067554774
  Basis Set: CC-PVTZ
  Basis Set:
  Basis Set: CC-PVTZ
  Basis Set:
  @DF-RHF Final Energy:  -387.25239316864537
    Total Energy =                       -387.2523931686448577
  Basis Set: CC-PVTZ
  Basis Set:
  Charge       = 0
  Multiplicity = 1
  Basis Set: CC-PVTZ
  Basis Set:

    Orbital Energies (a.u.)
    -----------------------

    Doubly Occupied:

       1A    -20.549814     2A    -11.319454     3A    -11.233359
       4A    -11.232787     5A    -11.224846     6A    -11.218906
       7A    -11.217124     8A    -11.216276     9A    -11.209061
      10A     -1.404654    11A     -1.104072    12A     -1.068406
      13A     -1.013810    14A     -0.944167    15A     -0.878205
      16A     -0.832118    17A     -0.783691    18A     -0.772407
      19A     -0.680295    20A     -0.655462    21A     -0.631237
      22A     -0.624408    23A     -0.612438    24A     -0.588632
      25A     -0.574972    26A     -0.558043    27A     -0.536547
      28A     -0.525140    29A     -0.509679    30A     -0.499268
      31A     -0.492075    32A     -0.473289    33A     -0.466302
      34A     -0.460767    35A     -0.444657    36A     -0.409192

  @DF-RHF Final Energy:  -387.25239366830073

   => Energetics <=

    Nuclear Repulsion Energy =            441.0005651143481487
    One-Electron Energy =               -1398.5748020190792431
    Two-Electron Energy =                 570.3218432364303681
    DFT Exchange-Correlation Energy =       0.0000000000000000
    Empirical Dispersion Energy =           0.0000000000000000
    PCM Polarization Energy =               0.0000000000000000
    EFP Energy =                            0.0000000000000000
    Total Energy =                       -387.2523936683007832
    Molecular point group: c1
  Basis Set: CC-PVTZ
  Basis Set:

  -Total Gradient:
     Atom            X                  Y                   Z
    ------   -----------------  -----------------  -----------------
       1        0.000000355114    -0.000002133178     0.000001295121
       2        0.000020264176     0.000009428307    -0.000000337939
       3       -0.000875500914     0.001414761745     0.002073084325
       4        0.000010206937     0.000001434312     0.000035713900
       5       -0.000350134446    -0.001571214374     0.001606322993
       6        0.000780747732    -0.000787960372    -0.002189784920
       7        0.000006552387    -0.000013423266    -0.000027269439
       8        0.000386863267     0.000968394948    -0.001505285209
       9        0.000031106939     0.000003308677    -0.000007330905
      10       -0.000019524009    -0.000008710178     0.000013232311
      11       -0.000017316491    -0.000013991213     0.000014665409
      12       -0.000007921813    -0.000003857053    -0.000005265728
      13        0.000005302293     0.000014238685     0.000000749957
      14        0.000028247421     0.000013519810    -0.000016926911
      15       -0.000012705526    -0.000022421702     0.000002140633
      16       -0.000010442872     0.000009022943     0.000010047787
      17       -0.000003047877     0.000004033601     0.000002760623
      18        0.000000842764    -0.000000401147    -0.000003029455
      19        0.000011558118    -0.000001877132    -0.000001617717
      20        0.000008680049    -0.000006238864    -0.000004444813
      21        0.000005035259    -0.000002830956     0.000007027940
      22       -0.000009260797     0.000006850337    -0.000001035390
      23       -0.000004435678     0.000004928585    -0.000004743775
      24        0.000012174948    -0.000009357341     0.000005392277
      25        0.000002353011    -0.000005505173    -0.000005361080

  **** Optimization is complete! (in 10 steps) ****
    Final optimized geometry and variables:
    Molecular point group: c1

    Geometry (in Angstrom), charge = 0, multiplicity = 1:

    H           -2.865851279667    -1.339879717615    -0.494290932791
    C           -3.033863189716    -0.316141762238    -0.845130136763
    C           -2.801217432676     0.775904682030     0.166902821141
    O           -3.397741890647    -0.127641764550    -1.955018784009
    C           -1.330737372450     0.932147151442     0.641548125121
    H           -3.150700538547     1.691827078276    -0.287869245378
    H           -3.441191571530     0.551547087787     1.015081914218
    C           -0.350495847243    -0.161302930903     0.212814344785
    H           -0.959553579395     1.877372452474     0.263012746197
    H           -1.315967638221     1.015908528819     1.721796355993
    C            1.074697571894     0.123913532347     0.679847140474
    H           -0.356636954101    -0.255818494020    -0.869602312832
    H           -0.664251912514    -1.123613645310     0.608277938766
    C            2.066980117043    -0.957861405834     0.257302048412
    H            1.385575711056     1.087185653928     0.288546985810
    H            1.085097712422     0.215470108056     1.763613817880
    C            3.494064456387    -0.754694509384     0.769279386303
    H            2.083096782149    -1.026005551492    -0.827929194048
    H            1.706968655462    -1.918553778027     0.615295819481
    C            4.211693703592     0.463494305910     0.193033218923
    H            4.071846811237    -1.642534863338     0.531959390575
    H            3.479248336762    -0.684983256278     1.853826221583
    H            4.233696304770     0.425451509470    -0.891365414405
    H            3.733006812762     1.391474334695     0.481654612194
    H            5.237146772653     0.505236982638     0.541780840202

  Mulliken Charges: (a.u.)
   Center  Symbol    Alpha    Beta     Spin     Total
       1     H     0.46094  0.46094  0.00000  0.07811
       2     C     2.90786  2.90786  0.00000  0.18429
       3     C     3.08265  3.08265  0.00000 -0.16529
       4     O     4.16755  4.16755  0.00000 -0.33511
       5     C     3.10266  3.10266  0.00000 -0.20532
       6     H     0.44138  0.44138  0.00000  0.11724
       7     H     0.44869  0.44869  0.00000  0.10262
       8     C     3.10637  3.10637  0.00000 -0.21275
       9     H     0.44594  0.44594  0.00000  0.10812
      10     H     0.44704  0.44704  0.00000  0.10592
      11     C     3.09286  3.09286  0.00000 -0.18572
      12     H     0.44413  0.44413  0.00000  0.11175
      13     H     0.45038  0.45038  0.00000  0.09924
      14     C     3.09518  3.09518  0.00000 -0.19036
      15     H     0.45063  0.45063  0.00000  0.09875
      16     H     0.45375  0.45375  0.00000  0.09249
      17     C     3.09102  3.09102  0.00000 -0.18203
      18     H     0.45212  0.45212  0.00000  0.09575
      19     H     0.44963  0.44963  0.00000  0.10075
      20     C     3.15262  3.15262  0.00000 -0.30524
      21     H     0.44777  0.44777  0.00000  0.10445
      22     H     0.45481  0.45481  0.00000  0.09039
      23     H     0.45399  0.45399  0.00000  0.09202
      24     H     0.45409  0.45409  0.00000  0.09181
      25     H     0.44594  0.44594  0.00000  0.10812

   Total alpha = 36.00000, Total beta = 36.00000, Total charge = -0.00000
