                              Psi4 1.0.54 Driver

  ==> Input File <==

--------------------------------------------------------------------------
set {
	reference rhf
	basis cc-pvtz
}

set_num_threads( 4 )
memory 2 gb

molecule MOL {
0 1

O	 0.401830	 0.254575	 -0.930443
C	 1.121787	 0.124983	 0.000110
C	 0.983269	 0.838945	 1.320161
O	 2.167739	 -0.685178	 -0.000678
C	 -0.204762	 1.787953	 1.382522
H	 0.919394	 0.078035	 2.091145
H	 1.915644	 1.364040	 1.500201
C	 -0.315477	 2.492769	 2.731331
H	 -1.115552	 1.235296	 1.181095
H	 -0.118114	 2.522873	 0.590103
C	 -1.504245	 3.444721	 2.805564
H	 -0.398673	 1.751244	 3.521559
H	 0.600007	 3.044643	 2.927700
H	 -2.438236	 2.916269	 2.647499
H	 -1.557912	 3.930264	 3.773058
H	 -1.432272	 4.219115	 2.049446
C	 3.449556	 -0.089977	 -0.000570
H	 3.585694	 0.522473	 -0.879546
H	 4.155805	 -0.904274	 -0.001389
H	 3.586173	 0.521118	 0.879272

	symmetry c1
}
set optking {
	frozen_dihedral = ("
		1 2 4 17
	")
}

ee,wfn = optimize('scf', return_wfn=True)
oeprop( wfn, 'DIPOLE', 'QUADRUPOLE', 'MULLIKEN_CHARGES')
f=open( 'psi4out.xyz', 'w' )
f.write( "20  " )
f.write( str(ee) + "\n" )
f.write( MOL.save_string_xyz() )
f.close()
--------------------------------------------------------------------------

    Molecular point group: c1
  Charge       = 0
  Multiplicity = 1
  Basis Set: CC-PVTZ
  Basis Set:
  @DF-RHF Final Energy:  -384.05995413549658
    Total Energy =                       -384.0599541354965822
    Molecular point group: c1
  Basis Set: CC-PVTZ
  Basis Set:
  Basis Set: CC-PVTZ
  Basis Set:
  @DF-RHF Final Energy:  -384.05870361654132
    Total Energy =                       -384.0587036165411519
  Basis Set: CC-PVTZ
  Basis Set:
  Basis Set: CC-PVTZ
  Basis Set:
  @DF-RHF Final Energy:  -384.06104006572838
    Total Energy =                       -384.0610400657283208
  Basis Set: CC-PVTZ
  Basis Set:
  Basis Set: CC-PVTZ
  Basis Set:
  @DF-RHF Final Energy:  -384.06288273237044
    Total Energy =                       -384.0628827323705536
  Basis Set: CC-PVTZ
  Basis Set:
  Basis Set: CC-PVTZ
  Basis Set:
  @DF-RHF Final Energy:  -384.06298095212247
    Total Energy =                       -384.0629809521221887
  Basis Set: CC-PVTZ
  Basis Set:
  Basis Set: CC-PVTZ
  Basis Set:
  @DF-RHF Final Energy:  -384.06302194221018
    Total Energy =                       -384.0630219422101845
  Basis Set: CC-PVTZ
  Basis Set:
  Basis Set: CC-PVTZ
  Basis Set:
  @DF-RHF Final Energy:  -384.06302435349318
    Total Energy =                       -384.0630243534933470
  Basis Set: CC-PVTZ
  Basis Set:
  Charge       = 0
  Multiplicity = 1
  Basis Set: CC-PVTZ
  Basis Set:

    Orbital Energies (a.u.)
    -----------------------

    Doubly Occupied:

       1A    -20.579608     2A    -20.543707     3A    -11.367637
       4A    -11.290840     5A    -11.239644     6A    -11.221710
       7A    -11.220857     8A    -11.211150     9A     -1.461437
      10A     -1.370124    11A     -1.091969    12A     -1.019009
      13A     -0.974559    14A     -0.899227    15A     -0.809260
      16A     -0.767055    17A     -0.698659    18A     -0.680729
      19A     -0.678657    20A     -0.647115    21A     -0.618143
      22A     -0.591400    23A     -0.590396    24A     -0.552018
      25A     -0.539125    26A     -0.516463    27A     -0.495607
      28A     -0.490449    29A     -0.480690    30A     -0.473935
      31A     -0.454953    32A     -0.436467

  @DF-RHF Final Energy:  -384.06302458255266

   => Energetics <=

    Nuclear Repulsion Energy =            382.3529858951188771
    One-Electron Energy =               -1280.8068254927441103
    Two-Electron Energy =                 514.3908150150723486
    DFT Exchange-Correlation Energy =       0.0000000000000000
    Empirical Dispersion Energy =           0.0000000000000000
    PCM Polarization Energy =               0.0000000000000000
    EFP Energy =                            0.0000000000000000
    Total Energy =                       -384.0630245825528846
    Molecular point group: c1
  Basis Set: CC-PVTZ
  Basis Set:

  -Total Gradient:
     Atom            X                  Y                   Z
    ------   -----------------  -----------------  -----------------
       1        0.000426183213     0.000586053726    -0.000239072132
       2       -0.000622374655    -0.000830831515     0.000046160411
       3       -0.000005376196     0.000016747698    -0.000019562440
       4        0.000257957301     0.000205119120     0.000846738671
       5        0.000010988026    -0.000007137876     0.000004144738
       6        0.000001064199    -0.000009683224    -0.000000287226
       7       -0.000005236605    -0.000008799745     0.000007903904
       8        0.000000060332     0.000005157763    -0.000006666332
       9        0.000001947944     0.000001745906    -0.000001383961
      10       -0.000002558874     0.000005149704    -0.000002269850
      11       -0.000002341319    -0.000001481175     0.000007410689
      12        0.000000186370     0.000002438977    -0.000000471008
      13       -0.000002295314     0.000001010888     0.000000906736
      14        0.000001301020     0.000000904865    -0.000000510356
      15       -0.000003934511     0.000001048981     0.000000530160
      16        0.000002385578    -0.000002259562     0.000001669633
      17       -0.000054518891     0.000044557611    -0.000646222059
      18        0.000006983524    -0.000001577559     0.000007336256
      19        0.000000060831     0.000002309787     0.000003553509
      20       -0.000010481976    -0.000010474369    -0.000009909347

  **** Optimization is complete! (in 8 steps) ****
    Final optimized geometry and variables:
    Molecular point group: c1

    Geometry (in Angstrom), charge = 0, multiplicity = 1:

    O           -0.315338941760    -0.608423990160    -1.843622358378
    C            0.417061935384    -0.752391002707    -0.935204958492
    C            0.214744186469    -0.142437612138     0.430813117836
    O            1.494621957433    -1.556899234949    -1.041828153753
    C           -1.052869622953     0.691449985647     0.553151233510
    H            0.217128078858    -0.961988042039     1.142911328448
    H            1.087905359424     0.456837521020     0.668773526852
    C           -1.228625972243     1.283406979378     1.948580549573
    H           -1.909474745508     0.075765062363     0.304159035921
    H           -1.030434270090     1.486610635865    -0.183577618582
    C           -2.498694418565     2.116574729724     2.081738914210
    H           -1.245921265457     0.481839354930     2.682296636144
    H           -0.367228056162     1.900081682185     2.192244742801
    H           -3.380630122083     1.518919231840     1.878396522760
    H           -2.597425675150     2.523591226258     3.081307155082
    H           -2.495944593033     2.947175058156     1.384157673937
    C            2.775880371063    -0.974161878987    -1.065512244662
    H            2.842522388089    -0.224236922959    -1.844559145868
    H            3.470296334260    -1.769384232418    -1.282590888562
    H            3.035293613986    -0.532186295290    -0.111346797281

  Mulliken Charges: (a.u.)
   Center  Symbol    Alpha    Beta     Spin     Total
       1     O     4.16696  4.16696  0.00000 -0.33392
       2     C     2.78853  2.78853  0.00000  0.42294
       3     C     3.12692  3.12692  0.00000 -0.25384
       4     O     4.16103  4.16103  0.00000 -0.32205
       5     C     3.08206  3.08206  0.00000 -0.16411
       6     H     0.43699  0.43699  0.00000  0.12603
       7     H     0.44560  0.44560  0.00000  0.10879
       8     C     3.08520  3.08520  0.00000 -0.17040
       9     H     0.44419  0.44419  0.00000  0.11161
      10     H     0.44633  0.44633  0.00000  0.10735
      11     C     3.14962  3.14962  0.00000 -0.29923
      12     H     0.45474  0.45474  0.00000  0.09051
      13     H     0.45603  0.45603  0.00000  0.08795
      14     H     0.45311  0.45311  0.00000  0.09377
      15     H     0.44810  0.44810  0.00000  0.10380
      16     H     0.45378  0.45378  0.00000  0.09245
      17     C     3.04092  3.04092  0.00000 -0.08185
      18     H     0.45796  0.45796  0.00000  0.08409
      19     H     0.43879  0.43879  0.00000  0.12241
      20     H     0.46314  0.46314  0.00000  0.07371

   Total alpha = 32.00000, Total beta = 32.00000, Total charge =  0.00000

*** Psi4 exiting successfully. Buy a developer a beer!
