                              Psi4 1.0.54 Driver

  ==> Input File <==

--------------------------------------------------------------------------
set {
	reference rhf
	basis cc-pvtz
}

set_num_threads( 4 )
memory 2 gb

molecule MOL {
0 1

O	 2.697138	 1.620318	 1.039078
C	 2.577629	 0.577016	 1.593468
C	 1.282888	 -0.209697	 1.569784
C	 3.721262	 -0.040040	 2.366495
C	 0.158954	 0.449153	 0.782690
H	 1.506562	 -1.196213	 1.170006
H	 0.983358	 -0.378345	 2.601698
C	 -1.123442	 -0.378226	 0.786848
H	 0.488038	 0.613611	 -0.237002
H	 -0.035518	 1.432290	 1.195917
C	 -2.258482	 0.271340	 0.000669
H	 -0.920298	 -1.363632	 0.373348
H	 -1.446461	 -0.540867	 1.812747
C	 -3.544441	 -0.550271	 -0.000253
H	 -1.936630	 0.434096	 -1.025019
H	 -2.462816	 1.256092	 0.413753
C	 -4.804551	 0.308747	 0.000556
H	 -3.553737	 -1.201524	 -0.870151
H	 -3.553831	 -1.203282	 0.868313
H	 -4.842050	 0.949078	 -0.874436
H	 -5.698404	 -0.304480	 -0.000254
H	 -4.842277	 0.947103	 0.876982
H	 3.964813	 -1.015252	 1.959442
H	 4.586975	 0.602004	 2.314419
H	 3.436520	 -0.185578	 3.402730

	symmetry c1
}
set optking {
	frozen_dihedral = ("
		15 11 14 18
	")
}

ee,wfn = optimize('scf', return_wfn=True)
oeprop( wfn, 'DIPOLE', 'QUADRUPOLE', 'MULLIKEN_CHARGES')
f=open( 'psi4out.xyz', 'w' )
f.write( "25  " )
f.write( str(ee) + "\n" )
f.write( MOL.save_string_xyz() )
f.close()
--------------------------------------------------------------------------

    Molecular point group: c1
  Charge       = 0
  Multiplicity = 1
  Basis Set: CC-PVTZ
  Basis Set:
  @DF-RHF Final Energy:  -387.27115215188576
    Total Energy =                       -387.2711521518856443
    Molecular point group: c1
  Basis Set: CC-PVTZ
  Basis Set:
  Basis Set: CC-PVTZ
  Basis Set:
  @DF-RHF Final Energy:  -387.27140573590077
    Total Energy =                       -387.2714057359007711
  Basis Set: CC-PVTZ
  Basis Set:
  Basis Set: CC-PVTZ
  Basis Set:
  @DF-RHF Final Energy:  -387.27150538589422
    Total Energy =                       -387.2715053858947840
  Basis Set: CC-PVTZ
  Basis Set:
  Basis Set: CC-PVTZ
  Basis Set:
  @DF-RHF Final Energy:  -387.27146154746004
    Total Energy =                       -387.2714615474598077
  Basis Set: CC-PVTZ
  Basis Set:
  Basis Set: CC-PVTZ
  Basis Set:
  @DF-RHF Final Energy:  -387.27150677256765
    Total Energy =                       -387.2715067725675908
  Basis Set: CC-PVTZ
  Basis Set:
  Charge       = 0
  Multiplicity = 1
  Basis Set: CC-PVTZ
  Basis Set:

    Orbital Energies (a.u.)
    -----------------------

    Doubly Occupied:

       1A    -20.538865     2A    -11.320494     3A    -11.230161
       4A    -11.226578     5A    -11.215213     6A    -11.214515
       7A    -11.213519     8A    -11.211515     9A    -11.206520
      10A     -1.398905    11A     -1.094577    12A     -1.056757
      13A     -1.015385    14A     -0.970098    15A     -0.890979
      16A     -0.815223    17A     -0.790993    18A     -0.730951
      19A     -0.661803    20A     -0.654473    21A     -0.631732
      22A     -0.626511    23A     -0.599167    24A     -0.586250
      25A     -0.569283    26A     -0.559851    27A     -0.537450
      28A     -0.527826    29A     -0.515068    30A     -0.493036
      31A     -0.487577    32A     -0.475911    33A     -0.463541
      34A     -0.460216    35A     -0.451266    36A     -0.401246

  @DF-RHF Final Energy:  -387.27150713982172

   => Energetics <=

    Nuclear Repulsion Energy =            439.2182353165288191
    One-Electron Energy =               -1395.2925782286911272
    Two-Electron Energy =                 568.8028357723403587
    DFT Exchange-Correlation Energy =       0.0000000000000000
    Empirical Dispersion Energy =           0.0000000000000000
    PCM Polarization Energy =               0.0000000000000000
    EFP Energy =                            0.0000000000000000
    Total Energy =                       -387.2715071398220061
    Molecular point group: c1
  Basis Set: CC-PVTZ
  Basis Set:

  -Total Gradient:
     Atom            X                  Y                   Z
    ------   -----------------  -----------------  -----------------
       1       -0.000003132453     0.000014935563     0.000005820036
       2        0.000008427038    -0.000023833317    -0.000026936487
       3       -0.000002724089     0.000013517139     0.000015880991
       4       -0.000002979881     0.000007698429     0.000012310124
       5        0.000013026834    -0.000006563670    -0.000003769549
       6       -0.000000974796     0.000001925062    -0.000001775480
       7       -0.000000451554    -0.000002888922     0.000004913045
       8        0.000002983273     0.000003981673    -0.000005228722
       9        0.000001260165     0.000000372211    -0.000002018946
      10        0.000001318400     0.000003270272     0.000000076647
      11       -0.003410113579     0.005118828536    -0.000803722003
      12        0.000000276706    -0.000001829480    -0.000006061699
      13       -0.000002268869    -0.000006325954     0.000003635229
      14        0.003001569132    -0.004578642049     0.002923565107
      15        0.002399958792    -0.003579631083     0.000207859556
      16       -0.000007628394    -0.000017735221    -0.000001398746
      17       -0.000016079888    -0.000017635206     0.000011160702
      18       -0.001970735013     0.003043199321    -0.002327527860
      19        0.000006159211     0.000017733566    -0.000003203800
      20        0.000005072679     0.000007185711    -0.000003898863
      21       -0.000019684086     0.000000134964    -0.000005188737
      22       -0.000004465570     0.000006501394     0.000004394273
      23        0.000000376407    -0.000001778518    -0.000002536826
      24       -0.000001350838     0.000000485546    -0.000000704913
      25        0.000002160372    -0.000002905960     0.000004356923

  **** Optimization is complete! (in 6 steps) ****
    Final optimized geometry and variables:
    Molecular point group: c1

    Geometry (in Angstrom), charge = 0, multiplicity = 1:

    O            2.857390481302     1.381168037211     0.118926616568
    C            2.734502880647     0.345113007499     0.685911225721
    C            1.434285040451    -0.433019741583     0.679921260992
    C            3.878949051701    -0.270966565689     1.458665219552
    C            0.309445292749     0.224363610992    -0.107145761426
    H            1.648729627543    -1.425432427738     0.289780825196
    H            1.140785700064    -0.588011114343     1.715699344541
    C           -0.977899007329    -0.594466945000    -0.086633658776
    H            0.633487891810     0.376576169341    -1.130378200514
    H            0.123381169638     1.213086120870     0.296975056216
    C           -2.119961890651     0.060740054589    -0.862219843917
    H           -0.786447931553    -1.582520403950    -0.500368364653
    H           -1.291283705690    -0.753243187769     0.942824734525
    C           -3.392573663601    -0.796673742160    -0.900518545117
    H           -1.773970168442     0.235261089215    -1.876706592068
    H           -2.335903413163     1.030733005767    -0.425096898161
    C           -4.670103508750     0.036279193985    -0.981271758206
    H           -3.362436222327    -1.444103576021    -1.771211497048
    H           -3.438115634134    -1.436401106020    -0.025159255199
    H           -4.657853996507     0.685346563691    -1.850888678580
    H           -5.548599802132    -0.595104521627    -1.052960925005
    H           -4.783310674060     0.664827286135    -0.104252591206
    H            4.112749515353    -1.252622546127     1.061524517481
    H            4.748954677900     0.364083174942     1.393308758600
    H            3.600049777233    -0.402147480102     2.498404840318

  Mulliken Charges: (a.u.)
   Center  Symbol    Alpha    Beta     Spin     Total
       1     O     4.17077  4.17077  0.00000 -0.34155
       2     C     2.86220  2.86220  0.00000  0.27561
       3     C     3.11361  3.11361  0.00000 -0.22723
       4     C     3.15127  3.15127  0.00000 -0.30255
       5     C     3.08368  3.08368  0.00000 -0.16736
       6     H     0.44556  0.44556  0.00000  0.10888
       7     H     0.44562  0.44562  0.00000  0.10876
       8     C     3.09126  3.09126  0.00000 -0.18252
       9     H     0.44607  0.44607  0.00000  0.10787
      10     H     0.44591  0.44591  0.00000  0.10819
      11     C     3.08877  3.08877  0.00000 -0.17755
      12     H     0.45508  0.45508  0.00000  0.08984
      13     H     0.45615  0.45615  0.00000  0.08770
      14     C     3.08563  3.08563  0.00000 -0.17125
      15     H     0.45250  0.45250  0.00000  0.09501
      16     H     0.45311  0.45311  0.00000  0.09378
      17     C     3.14884  3.14884  0.00000 -0.29768
      18     H     0.45311  0.45311  0.00000  0.09379
      19     H     0.45520  0.45520  0.00000  0.08959
      20     H     0.45400  0.45400  0.00000  0.09199
      21     H     0.44961  0.44961  0.00000  0.10079
      22     H     0.45591  0.45591  0.00000  0.08818
      23     H     0.45040  0.45040  0.00000  0.09921
      24     H     0.43537  0.43537  0.00000  0.12925
      25     H     0.45038  0.45038  0.00000  0.09924

   Total alpha = 36.00000, Total beta = 36.00000, Total charge = -0.00000

*** Psi4 exiting successfully. Buy a developer a beer!
