  ==> Input File <==

--------------------------------------------------------------------------
set {
	reference rhf
	basis 6-31G*
}

set_num_threads( 1 )
memory 2 gb

molecule MOL {
0 1

O	 1.214711	 1.306902	 -0.000018
C	 1.122059	 0.121804	 -0.000188
C	 -0.170150	 -0.657997	 -0.000612
O	 2.172624	 -0.688929	 0.000216
C	 -1.412532	 0.227344	 -0.000452
H	 -0.153702	 -1.313099	 -0.867402
H	 -0.153924	 -1.313811	 0.865644
C	 -2.672397	 -0.538718	 -0.406966
H	 -1.256675	 1.063717	 -0.674762
H	 -1.545975	 0.657394	 0.987350
C	 -3.922165	 0.340533	 -0.408231
H	 -2.533039	 -0.968197	 -1.397018
H	 -2.822391	 -1.377098	 0.270303
H	 -3.816889	 1.169501	 -1.102049
H	 -4.800646	 -0.226389	 -0.700031
H	 -4.108651	 0.757167	 0.577304
C	 3.452279	 -0.082609	 0.000533
H	 3.583069	 0.529321	 -0.880332
H	 4.163299	 -0.894027	 0.001117
H	 3.582335	 0.529955	 0.881077

	symmetry c1
}
set optking {
	frozen_dihedral = ("
		9 5 8 12,
		1 2 3 6,
		1 2 4 17
	")
}

ee = energy('scf')
oeprop('DIPOLE', 'QUADRUPOLE', 'MULLIKEN_CHARGES')
f=open( 'psi4out.xyz', 'w' )
f.write( "20  " )
f.write( str(ee) + "\n" )
f.write( MOL.save_string_xyz() )
f.close()
--------------------------------------------------------------------------

    Molecular point group: c1

    Geometry (in Angstrom), charge = 0, multiplicity = 1:

       Center              X                  Y                   Z               Mass
    ------------   -----------------  -----------------  -----------------  -----------------
           O          1.206054374770     1.294735770690     0.101999549857    15.994914619560
           C          1.113402374770     0.109637770690     0.101829549857    12.000000000000
           C         -0.178806625230    -0.670163229310     0.101405549857    12.000000000000
           O          2.163967374770    -0.701095229310     0.102233549857    15.994914619560
           C         -1.421188625230     0.215177770690     0.101565549857    12.000000000000
           H         -0.162358625230    -1.325265229310    -0.765384450143     1.007825032070
           H         -0.162580625230    -1.325977229310     0.967661549857     1.007825032070
           C         -2.681053625230    -0.550884229310    -0.304948450143    12.000000000000
           H         -1.265331625230     1.051550770690    -0.572744450143     1.007825032070
           H         -1.554631625230     0.645227770690     1.089367549857     1.007825032070
           C         -3.930821625230     0.328366770690    -0.306213450143    12.000000000000
           H         -2.541695625230    -0.980363229310    -1.295000450143     1.007825032070
           H         -2.831047625230    -1.389264229310     0.372320549857     1.007825032070
           H         -3.825545625230     1.157334770690    -1.000031450143     1.007825032070
           H         -4.809302625230    -0.238555229310    -0.598013450143     1.007825032070
           H         -4.117307625230     0.745000770690     0.679321549857     1.007825032070
           C          3.443622374770    -0.094775229310     0.102550549857    12.000000000000
           H          3.574412374770     0.517154770690    -0.778314450143     1.007825032070
           H          4.154642374770    -0.906193229310     0.103134549857     1.007825032070
           H          3.573678374770     0.517788770690     0.983094549857     1.007825032070

  Charge       = 0
  Multiplicity = 1
  Basis Set: 6-31G*
  Basis Set:

    Orbital Energies (a.u.)
    -----------------------

    Doubly Occupied:

       1A    -20.603883     2A    -20.545711     3A    -11.372555
       4A    -11.281009     5A    -11.235443     6A    -11.220101
       7A    -11.218597     8A    -11.210407     9A     -1.469595
      10A     -1.363105    11A     -1.088566    12A     -1.024290
      13A     -0.969118    14A     -0.885685    15A     -0.804114
      16A     -0.767550    17A     -0.697790    18A     -0.683338
      19A     -0.672229    20A     -0.644973    21A     -0.597967
      22A     -0.592208    23A     -0.578894    24A     -0.541544
      25A     -0.534664    26A     -0.522598    27A     -0.501201
      28A     -0.478396    29A     -0.472267    30A     -0.469689
      31A     -0.456042    32A     -0.437487

  @DF-RHF Final Energy:  -383.94069873176579

   => Energetics <=

    Nuclear Repulsion Energy =            381.2972183873664562
    One-Electron Energy =               -1278.5939457985434728
    Two-Electron Energy =                 513.3560286794117928
    DFT Exchange-Correlation Energy =       0.0000000000000000
    Empirical Dispersion Energy =           0.0000000000000000
    PCM Polarization Energy =               0.0000000000000000
    EFP Energy =                            0.0000000000000000
    Total Energy =                       -383.9406987317652238

  Mulliken Charges: (a.u.)
   Center  Symbol    Alpha    Beta     Spin     Total
       1     O     4.28564  4.28564  0.00000 -0.57127
       2     C     2.60657  2.60657  0.00000  0.78685
       3     C     3.20853  3.20853  0.00000 -0.41706
       4     O     4.30687  4.30687  0.00000 -0.61374
       5     C     3.15270  3.15270  0.00000 -0.30539
       6     H     0.40062  0.40062  0.00000  0.19877
       7     H     0.39974  0.39974  0.00000  0.20052
       8     C     3.15476  3.15476  0.00000 -0.30952
       9     H     0.40620  0.40620  0.00000  0.18760
      10     H     0.41545  0.41545  0.00000  0.16910
      11     C     3.23948  3.23948  0.00000 -0.47895
      12     H     0.42250  0.42250  0.00000  0.15500
      13     H     0.42329  0.42329  0.00000  0.15342
      14     H     0.41955  0.41955  0.00000  0.16090
      15     H     0.41880  0.41880  0.00000  0.16240
      16     H     0.42042  0.42042  0.00000  0.15916
      17     C     3.09241  3.09241  0.00000 -0.18482
      18     H     0.40907  0.40907  0.00000  0.18186
      19     H     0.40840  0.40840  0.00000  0.18320
      20     H     0.40901  0.40901  0.00000  0.18197

   Total alpha = 32.00000, Total beta = 32.00000, Total charge =  0.00000
