                              Psi4 1.0.54 Driver

  ==> Input File <==

--------------------------------------------------------------------------
set {
	reference rhf
	basis cc-pvtz
}

set_num_threads( 4 )
memory 2 gb

molecule MOL {
0 1

H	 -3.941973	 0.934228	 -0.390224
C	 -3.240162	 0.342701	 0.161016
C	 -2.105997	 -0.000418	 -0.398703
H	 -3.485368	 0.047206	 1.162193
O	 -1.189946	 -0.765863	 0.237511
H	 -1.846458	 0.297311	 -1.398265
C	 0.026572	 -0.995256	 -0.379403
C	 1.057223	 0.049888	 -0.004615
H	 -0.054361	 -1.010670	 -1.459674
H	 0.397526	 -1.952058	 -0.044198
F	 1.060875	 1.007238	 -0.910455
F	 0.794508	 0.603070	 1.160064
F	 2.267183	 -0.450817	 0.056627

	symmetry c1
}
set optking {
	frozen_dihedral = ("
		11 8 7 9
	")
}

ee,wfn = optimize('scf', return_wfn=True)
oeprop( wfn, 'DIPOLE', 'QUADRUPOLE', 'MULLIKEN_CHARGES')
f=open( 'psi4out.xyz', 'w' )
f.write( "13  " )
f.write( str(ee) + "\n" )
f.write( MOL.save_string_xyz() )
f.close()
--------------------------------------------------------------------------

    Molecular point group: c1
  Charge       = 0
  Multiplicity = 1
  Basis Set: CC-PVTZ
  Basis Set:
  @DF-RHF Final Energy:  -527.73743268232124
    Total Energy =                       -527.7374326823214687
    Molecular point group: c1
  Basis Set: CC-PVTZ
  Basis Set:
  Basis Set: CC-PVTZ
  Basis Set:
  @DF-RHF Final Energy:  -527.73831098081155
    Total Energy =                       -527.7383109808116615
  Basis Set: CC-PVTZ
  Basis Set:
  Basis Set: CC-PVTZ
  Basis Set:
  @DF-RHF Final Energy:  -527.73858011967104
    Total Energy =                       -527.7385801196709281
  Basis Set: CC-PVTZ
  Basis Set:
  Basis Set: CC-PVTZ
  Basis Set:
  @DF-RHF Final Energy:  -527.73861873008013
    Total Energy =                       -527.7386187300799065
  Basis Set: CC-PVTZ
  Basis Set:
  @DF-RHF Final Energy:  -527.73862926540664
    Total Energy =                       -527.7386292654068711
  Basis Set: CC-PVTZ
  Basis Set:
  @DF-RHF Final Energy:  -527.73864093027282
    Total Energy =                       -527.7386409302730499
  Basis Set: CC-PVTZ
  Basis Set:
  Basis Set: CC-PVTZ
  Basis Set:
  @DF-RHF Final Energy:  -527.73864778156030
    Total Energy =                       -527.7386477815608714
  Basis Set: CC-PVTZ
  Basis Set:
  Basis Set: CC-PVTZ
  Basis Set:
  @DF-RHF Final Energy:  -527.73865016513332
    Total Energy =                       -527.7386501651335493
  Basis Set: CC-PVTZ
  Basis Set:
  Charge       = 0
  Multiplicity = 1
  Basis Set: CC-PVTZ
  Basis Set:

    Orbital Energies (a.u.)
    -----------------------

    Doubly Occupied:

       1A    -26.339949     2A    -26.339256     3A    -26.338672
       4A    -20.602533     5A    -11.498375     6A    -11.319831
       7A    -11.297930     8A    -11.215295     9A     -1.750064
      10A     -1.647137    11A     -1.643442    12A     -1.443243
      13A     -1.085075    14A     -1.020210    15A     -0.932012
      16A     -0.843122    17A     -0.837617    18A     -0.827226
      19A     -0.798950    20A     -0.726362    21A     -0.720282
      22A     -0.700714    23A     -0.681012    24A     -0.668598
      25A     -0.661616    26A     -0.649960    27A     -0.640308
      28A     -0.587468    29A     -0.566660    30A     -0.527042
      31A     -0.515869    32A     -0.358322

  @DF-RHF Final Energy:  -527.73865035288077

   => Energetics <=

    Nuclear Repulsion Energy =            414.2529642394321172
    One-Electron Energy =               -1552.4149236620846750
    Two-Electron Energy =                 610.4233090697719035
    DFT Exchange-Correlation Energy =       0.0000000000000000
    Empirical Dispersion Energy =           0.0000000000000000
    PCM Polarization Energy =               0.0000000000000000
    EFP Energy =                            0.0000000000000000
    Total Energy =                       -527.7386503528807680
    Molecular point group: c1
  Basis Set: CC-PVTZ
  Basis Set:

  -Total Gradient:
     Atom            X                  Y                   Z
    ------   -----------------  -----------------  -----------------
       1       -0.000011172334    -0.000012606500    -0.000004137879
       2        0.000040957566    -0.000024380692    -0.000003527208
       3       -0.000002040182     0.000079013320     0.000023616282
       4        0.000017713631     0.000005071659    -0.000051172697
       5        0.000003670264    -0.000034814013    -0.000023150414
       6       -0.000032095334    -0.000022064921     0.000042850758
       7        0.005319270359    -0.004829908931    -0.000884590365
       8       -0.004666757400     0.003444865924     0.002862481767
       9       -0.003636388519     0.003438884582     0.000155201468
      10       -0.000002461716     0.000011678081     0.000003152303
      11        0.002976335602    -0.002130994883    -0.002088385783
      12       -0.000025466209     0.000056020622     0.000015848956
      13        0.000018434274     0.000019235750    -0.000048187185

  **** Optimization is complete! (in 9 steps) ****
    Final optimized geometry and variables:
    Molecular point group: c1

    Geometry (in Angstrom), charge = 0, multiplicity = 1:

    H           -3.754469325064     1.237731105422    -0.398378208178
    C           -3.119903496659     0.569412218867     0.146773087690
    C           -2.057086958012     0.069556853502    -0.434331972506
    H           -3.375661206606     0.321805252787     1.158177871259
    O           -1.241024707443    -0.813907878250     0.184892002715
    H           -1.786588224330     0.317370397742    -1.445462811273
    C            0.005844082325    -1.049893127753    -0.370540961321
    C            1.032395559375     0.012573984943     0.016553592732
    H           -0.054764309553    -1.064687338688    -1.451955115601
    H            0.352177221834    -2.001298402477    -0.002372748783
    F            1.078021297885     0.990903357418    -0.867501639755
    F            0.801970984526     0.537143413994     1.190319227090
    F            2.236240290311    -0.528122135194     0.040263439693

  Mulliken Charges: (a.u.)
   Center  Symbol    Alpha    Beta     Spin     Total
       1     H     0.42502  0.42502  0.00000  0.14997
       2     C     3.19324  3.19324  0.00000 -0.38648
       3     C     2.96397  2.96397  0.00000  0.07206
       4     H     0.42416  0.42416  0.00000  0.15168
       5     O     4.14204  4.14204  0.00000 -0.28409
       6     H     0.43396  0.43396  0.00000  0.13208
       7     C     3.02422  3.02422  0.00000 -0.04845
       8     C     2.67577  2.67577  0.00000  0.64846
       9     H     0.45525  0.45525  0.00000  0.08950
      10     H     0.43370  0.43370  0.00000  0.13259
      11     F     4.61355  4.61355  0.00000 -0.22711
      12     F     4.60269  4.60269  0.00000 -0.20537
      13     F     4.61242  4.61242  0.00000 -0.22484

   Total alpha = 32.00000, Total beta = 32.00000, Total charge = -0.00000

*** Psi4 exiting successfully. Buy a developer a beer!
