                              Psi4 1.0.54 Driver

  ==> Input File <==

--------------------------------------------------------------------------
set {
	reference rhf
	basis cc-pvtz
}

set_num_threads( 4 )
memory 2 gb

molecule MOL {
0 1

H	 -0.939693	 0.000281	 1.681345
O	 -0.046262	 -0.000157	 1.387678
C	 -0.000837	 0.000006	 -0.025491
C	 1.261825	 0.719058	 -0.496444
C	 -0.027694	 -1.438611	 -0.538137
C	 -1.247179	 0.753471	 -0.469461
H	 1.306472	 0.766896	 -1.578347
H	 2.151344	 0.200928	 -0.150946
H	 1.286675	 1.728472	 -0.105385
H	 -0.030314	 -1.469749	 -1.621562
H	 0.844105	 -1.986437	 -0.193279
H	 -0.911308	 -1.949345	 -0.176415
H	 -1.301910	 0.807025	 -1.550398
H	 -1.236557	 1.761199	 -0.073757
H	 -2.136165	 0.256014	 -0.102778

	symmetry c1
}
set optking {
	frozen_dihedral = ("
		4 3 2 1
	")
}

ee,wfn = optimize('scf', return_wfn=True)
oeprop( wfn, 'DIPOLE', 'QUADRUPOLE', 'MULLIKEN_CHARGES')
f=open( 'psi4out.xyz', 'w' )
f.write( "15  " )
f.write( str(ee) + "\n" )
f.write( MOL.save_string_xyz() )
f.close()
--------------------------------------------------------------------------

    Molecular point group: c1
  Charge       = 0
  Multiplicity = 1
  Basis Set: CC-PVTZ
  Basis Set:
  @DF-RHF Final Energy:  -232.24378601844865
    Total Energy =                       -232.2437860184487590
    Molecular point group: c1
  Basis Set: CC-PVTZ
  Basis Set:
  Basis Set: CC-PVTZ
  Basis Set:
  @DF-RHF Final Energy:  -232.20369808755021
    Total Energy =                       -232.2036980875502650
  Basis Set: CC-PVTZ
  Basis Set:
  Basis Set: CC-PVTZ
  Basis Set:
  @DF-RHF Final Energy:  -232.24406819881074
    Total Energy =                       -232.2440681988109645
  Basis Set: CC-PVTZ
  Basis Set:
  Basis Set: CC-PVTZ
  Basis Set:
  @DF-RHF Final Energy:  -232.24572411937973
    Total Energy =                       -232.2457241193798154
  Basis Set: CC-PVTZ
  Basis Set:
  Basis Set: CC-PVTZ
  Basis Set:
  @DF-RHF Final Energy:  -232.24576460912729
    Total Energy =                       -232.2457646091272636
  Basis Set: CC-PVTZ
  Basis Set:
  Basis Set: CC-PVTZ
  Basis Set:
  @DF-RHF Final Energy:  -232.24576848020956
    Total Energy =                       -232.2457684802096196
  Basis Set: CC-PVTZ
  Basis Set:
  Basis Set: CC-PVTZ
  Basis Set:
  @DF-RHF Final Energy:  -232.24576999623034
    Total Energy =                       -232.2457699962303650
  Basis Set: CC-PVTZ
  Basis Set:
  Charge       = 0
  Multiplicity = 1
  Basis Set: CC-PVTZ
  Basis Set:

    Orbital Energies (a.u.)
    -----------------------

    Doubly Occupied:

       1A    -20.541231     2A    -11.280961     3A    -11.214091
       4A    -11.205192     5A    -11.203533     6A     -1.363876
       7A     -1.065508     8A     -0.944674     9A     -0.938145
      10A     -0.778558    11A     -0.672224    12A     -0.624463
      13A     -0.622933    14A     -0.576207    15A     -0.557594
      16A     -0.533669    17A     -0.517068    18A     -0.511331
      19A     -0.504090    20A     -0.458090    21A     -0.427960

  @DF-RHF Final Energy:  -232.24577004729377

   => Energetics <=

    Nuclear Repulsion Energy =            200.6289215742355623
    One-Electron Energy =                -712.6665922344479895
    Two-Electron Energy =                 279.7919006129187096
    DFT Exchange-Correlation Energy =       0.0000000000000000
    Empirical Dispersion Energy =           0.0000000000000000
    PCM Polarization Energy =               0.0000000000000000
    EFP Energy =                            0.0000000000000000
    Total Energy =                       -232.2457700472936608
    Molecular point group: c1
  Basis Set: CC-PVTZ
  Basis Set:

  -Total Gradient:
     Atom            X                  Y                   Z
    ------   -----------------  -----------------  -----------------
       1        0.000083241443     0.001823681867     0.000514030654
       2       -0.000250365297    -0.001949019300    -0.000586148231
       3        0.000690605133    -0.000888690742    -0.000019708066
       4       -0.000536922668     0.001001499897     0.000111041172
       5       -0.000002045055     0.000006065767    -0.000023433691
       6        0.000014284913     0.000008822651    -0.000036209924
       7       -0.000011088504    -0.000003915329     0.000024733357
       8       -0.000013285000    -0.000000569522    -0.000008663992
       9        0.000001773835    -0.000006434558     0.000000752579
      10       -0.000013419960    -0.000007656039     0.000013294587
      11        0.000003688969     0.000016086047    -0.000002241113
      12        0.000016189686    -0.000001812053     0.000003011015
      13       -0.000013763069     0.000001116784     0.000010802615
      14        0.000004288142    -0.000004236768    -0.000004666113
      15        0.000026817433     0.000005061300     0.000003405153

  **** Optimization is complete! (in 8 steps) ****
    Final optimized geometry and variables:
    Molecular point group: c1

    Geometry (in Angstrom), charge = 0, multiplicity = 1:

    H           -1.274569698060    -0.351528417773     1.406924084605
    O           -0.341348058569    -0.354936707438     1.300650277464
    C            0.007419377383     0.001711458126    -0.024495530650
    C            1.364153922479     0.688050487458     0.070444748896
    C            0.095885420279    -1.265823070330    -0.871291545603
    C           -1.035949998635     0.960137188716    -0.593815483999
    H            1.731442694075     0.961248095546    -0.911992065449
    H            2.084972273526     0.026194957145     0.534208995858
    H            1.290977437661     1.582984933429     0.675300294407
    H            0.397401208358    -1.040942801779    -1.888268183459
    H            0.816197270561    -1.950478912313    -0.441658468497
    H           -0.864673152136    -1.768179408285    -0.906759206621
    H           -0.773209860495     1.271558067682    -1.597409274148
    H           -1.117604914226     1.844491205355     0.027060683620
    H           -2.011392282084     0.484627504055    -0.642001687371

  Mulliken Charges: (a.u.)
   Center  Symbol    Alpha    Beta     Spin     Total
       1     H     0.39377  0.39377  0.00000  0.21246
       2     O     4.21338  4.21338  0.00000 -0.42676
       3     C     2.87900  2.87900  0.00000  0.24200
       4     C     3.14115  3.14115  0.00000 -0.28231
       5     C     3.14408  3.14408  0.00000 -0.28815
       6     C     3.15758  3.15758  0.00000 -0.31516
       7     H     0.45920  0.45920  0.00000  0.08159
       8     H     0.44724  0.44724  0.00000  0.10551
       9     H     0.45100  0.45100  0.00000  0.09799
      10     H     0.45798  0.45798  0.00000  0.08403
      11     H     0.44804  0.44804  0.00000  0.10391
      12     H     0.45490  0.45490  0.00000  0.09021
      13     H     0.45232  0.45232  0.00000  0.09535
      14     H     0.44562  0.44562  0.00000  0.10876
      15     H     0.45472  0.45472  0.00000  0.09056

   Total alpha = 21.00000, Total beta = 21.00000, Total charge = -0.00000

*** Psi4 exiting successfully. Buy a developer a beer!
