  ==> Input File <==

--------------------------------------------------------------------------
set {
	reference rhf
	basis 6-31G*
}

set_num_threads( 4 )
memory 2 gb

molecule MOL {
0 1

H	 3.041906	 -0.078346	 0.305805
O	 2.346107	 0.485021	 -0.001068
C	 1.135793	 0.118896	 0.612333
C	 0.031547	 1.023609	 0.088541
H	 1.207718	 0.229882	 1.692794
H	 0.905438	 -0.924555	 0.409237
C	 -1.134819	 0.293262	 -0.585751
H	 0.474374	 1.714721	 -0.623187
H	 -0.338529	 1.620940	 0.920081
C	 -1.917817	 -0.639439	 0.339494
H	 -0.758119	 -0.268455	 -1.433105
H	 -1.813832	 1.041889	 -0.986690
H	 -2.777680	 -1.057197	 -0.174994
H	 -1.310268	 -1.471279	 0.680599
H	 -2.283753	 -0.111424	 1.216626

	symmetry c1
}
set optking {
	frozen_dihedral = ("
		2 3 4 8
	")
}

ee = optimize('scf')
oeprop('DIPOLE', 'QUADRUPOLE', 'MULLIKEN_CHARGES')
f=open( 'psi4out.xyz', 'w' )
f.write( "15  " )
f.write( str(ee) + "\n" )
f.write( MOL.save_string_xyz() )
f.close()
--------------------------------------------------------------------------

    Molecular point group: c1
  Charge       = 0
  Multiplicity = 1
  Basis Set: 6-31G*
  Basis Set:
  @DF-RHF Final Energy:  -232.13736224657242
    Total Energy =                       -232.1373622465724793
    Molecular point group: c1
  Basis Set: 6-31G*
  Basis Set:
  Basis Set: 6-31G*
  Basis Set:
  @DF-RHF Final Energy:  -232.13780098304500
    Total Energy =                       -232.1378009830450537
  Basis Set: 6-31G*
  Basis Set:
  Basis Set: 6-31G*
  Basis Set:
  @DF-RHF Final Energy:  -232.13803304295001
    Total Energy =                       -232.1380330429498713
  Basis Set: 6-31G*
  Basis Set:
  Basis Set: 6-31G*
  Basis Set:
  @DF-RHF Final Energy:  -232.13806791969441
    Total Energy =                       -232.1380679196944357
  Basis Set: 6-31G*
  Basis Set:
  Basis Set: 6-31G*
  Basis Set:
  @DF-RHF Final Energy:  -232.13810480544495
    Total Energy =                       -232.1381048054450957
  Basis Set: 6-31G*
  Basis Set:
  Basis Set: 6-31G*
  Basis Set:
  @DF-RHF Final Energy:  -232.13811094704346
    Total Energy =                       -232.1381109470433444
  Basis Set: 6-31G*
  Basis Set:
  Charge       = 0
  Multiplicity = 1
  Basis Set: 6-31G*
  Basis Set:

    Orbital Energies (a.u.)
    -----------------------

    Doubly Occupied:

       1A    -20.551423     2A    -11.267669     3A    -11.216417
       4A    -11.211012     5A    -11.210754     6A     -1.357482
       7A     -1.067527     8A     -0.968482     9A     -0.869370
      10A     -0.783732    11A     -0.700896    12A     -0.646194
      13A     -0.604271    14A     -0.589803    15A     -0.555776
      16A     -0.536098    17A     -0.509124    18A     -0.475014
      19A     -0.471495    20A     -0.455292    21A     -0.429213

  @DF-RHF Final Energy:  -232.13811118784199

   => Energetics <=

    Nuclear Repulsion Energy =            188.1756584131502734
    One-Electron Energy =                -687.6734536406938787
    Two-Electron Energy =                 267.3596840397015058
    DFT Exchange-Correlation Energy =       0.0000000000000000
    Empirical Dispersion Energy =           0.0000000000000000
    PCM Polarization Energy =               0.0000000000000000
    EFP Energy =                            0.0000000000000000
    Total Energy =                       -232.1381111878421279
    Molecular point group: c1
  Basis Set: 6-31G*
  Basis Set:

  -Total Gradient:
     Atom            X                  Y                   Z
    ------   -----------------  -----------------  -----------------
       1       -0.000026170203    -0.000003551431     0.000009944804
       2       -0.000124489585    -0.000411471991    -0.000585175157
       3        0.000251368821     0.000641015309     0.000904992537
       4       -0.000246649942    -0.000780605759    -0.001011410072
       5        0.000008600682    -0.000017191894     0.000001444288
       6       -0.000008577837    -0.000011071048    -0.000005728804
       7       -0.000023894310     0.000043787570     0.000030020171
       8        0.000154954883     0.000555992593     0.000722358312
       9       -0.000017418480     0.000014549242    -0.000033521122
      10        0.000012683143    -0.000003178953    -0.000015039211
      11        0.000003332492    -0.000021201871    -0.000007412310
      12        0.000000569964    -0.000002912785    -0.000006858035
      13       -0.000004910190     0.000001724428    -0.000004996064
      14        0.000006035808    -0.000009100619     0.000011899566
      15        0.000014564755     0.000003217207    -0.000010518901

  **** Optimization is complete! (in 7 steps) ****
    Final optimized geometry and variables:
    Molecular point group: c1

    Geometry (in Angstrom), charge = 0, multiplicity = 1:

    H            2.921230385429    -0.268570667349     0.175253168985
    O            2.205187995555     0.278327235903    -0.115708795926
    C            1.010300080483    -0.152257334140     0.490933896228
    C           -0.130203157825     0.760787721142     0.017637231399
    H            1.107559886059    -0.122674067674     1.573600924236
    H            0.810220883526    -1.185644668667     0.214608852348
    C           -1.279456618743     0.030840413167    -0.684061314298
    H            0.308517507354     1.487170156796    -0.656757688500
    H           -0.527857481715     1.324736242841     0.857693591537
    C           -2.106449995346    -0.857691018628     0.246954057418
    H           -0.878728738556    -0.565938489219    -1.500478367930
    H           -1.935834957539     0.768353586172    -1.138407239247
    H           -2.910649488352    -1.347614479300    -0.293138035333
    H           -1.503108640469    -1.635189280364     0.707004429978
    H           -2.553036400883    -0.272382104747     1.046094857003

  Mulliken Charges: (a.u.)
   Center  Symbol    Alpha    Beta     Spin     Total
       1     H     0.28220  0.28220  0.00000  0.43560
       2     O     4.37207  4.37207  0.00000 -0.74413
       3     C     2.99467  2.99467  0.00000  0.01066
       4     C     3.16751  3.16751  0.00000 -0.33502
       5     H     0.42972  0.42972  0.00000  0.14056
       6     H     0.42984  0.42984  0.00000  0.14033
       7     C     3.15888  3.15888  0.00000 -0.31775
       8     H     0.40095  0.40095  0.00000  0.19810
       9     H     0.42107  0.42107  0.00000  0.15787
      10     C     3.24157  3.24157  0.00000 -0.48315
      11     H     0.41946  0.41946  0.00000  0.16108
      12     H     0.41971  0.41971  0.00000  0.16058
      13     H     0.41805  0.41805  0.00000  0.16389
      14     H     0.42284  0.42284  0.00000  0.15431
      15     H     0.42146  0.42146  0.00000  0.15708

   Total alpha = 21.00000, Total beta = 21.00000, Total charge =  0.00000
