  ==> Input File <==

--------------------------------------------------------------------------
set {
	reference rhf
	basis 6-31G*
}

set_num_threads( 1 )
memory 2 gb

molecule MOL {
0 1

O	 2.862325	 1.357334	 0.000267
C	 2.843464	 0.164689	 -0.000222
C	 1.546494	 -0.624492	 -0.000609
C	 4.124123	 -0.644674	 -0.000428
C	 0.291004	 0.242674	 0.000989
H	 1.557904	 -1.283758	 -0.867573
H	 1.558622	 -1.285963	 0.864672
C	 0.279571	 1.259855	 -1.141366
H	 0.214959	 0.756755	 0.953914
H	 -0.583326	 -0.397073	 -0.065486
C	 -0.974238	 2.136004	 -1.148940
H	 1.160809	 1.895832	 -1.070643
H	 0.357744	 0.737703	 -2.093896
C	 -0.993029	 3.156165	 -2.288647
H	 -1.053022	 2.659000	 -0.197474
H	 -1.855769	 1.501353	 -1.220483
C	 -2.248432	 4.027741	 -2.289401
H	 -0.112927	 3.791917	 -2.217491
H	 -0.915853	 2.634463	 -3.240345
H	 -2.336482	 4.588993	 -1.363445
H	 -2.232311	 4.740797	 -3.107932
H	 -3.145038	 3.423464	 -2.394714
H	 4.165367	 -1.288615	 -0.874074
H	 4.976217	 0.020734	 -0.001915
H	 4.166763	 -1.286207	 0.874930

	symmetry c1
}
set optking {
	frozen_dihedral = ("
		9 5 8 12,
		15 11 8 12,
		15 11 14 18,
		1 2 3 6
	")
}

ee = energy('scf')
oeprop('DIPOLE', 'QUADRUPOLE', 'MULLIKEN_CHARGES')
f=open( 'psi4out.xyz', 'w' )
f.write( "25  " )
f.write( str(ee) + "\n" )
f.write( MOL.save_string_xyz() )
f.close()
--------------------------------------------------------------------------

    Molecular point group: c1

    Geometry (in Angstrom), charge = 0, multiplicity = 1:

       Center              X                  Y                   Z               Mass
    ------------   -----------------  -----------------  -----------------  -----------------
           O          2.002349673875     0.110836957198     0.769596192121    15.994914619560
           C          1.983488673875    -1.081808042802     0.769107192121    12.000000000000
           C          0.686518673875    -1.870989042802     0.768720192121    12.000000000000
           C          3.264147673875    -1.891171042802     0.768901192121    12.000000000000
           C         -0.568971326125    -1.003823042802     0.770318192121    12.000000000000
           H          0.697928673875    -2.530255042802    -0.098243807879     1.007825032070
           H          0.698646673875    -2.532460042802     1.634001192121     1.007825032070
           C         -0.580404326125     0.013357957198    -0.372036807879    12.000000000000
           H         -0.645016326125    -0.489742042802     1.723243192121     1.007825032070
           H         -1.443301326125    -1.643570042802     0.703843192121     1.007825032070
           C         -1.834213326125     0.889506957198    -0.379610807879    12.000000000000
           H          0.300833673875     0.649334957198    -0.301313807879     1.007825032070
           H         -0.502231326125    -0.508794042802    -1.324566807879     1.007825032070
           C         -1.853004326125     1.909667957198    -1.519317807879    12.000000000000
           H         -1.912997326125     1.412502957198     0.571855192121     1.007825032070
           H         -2.715744326125     0.254855957198    -0.451153807879     1.007825032070
           C         -3.108407326125     2.781243957198    -1.520071807879    12.000000000000
           H         -0.972902326125     2.545419957198    -1.448161807879     1.007825032070
           H         -1.775828326125     1.387965957198    -2.471015807879     1.007825032070
           H         -3.196457326125     3.342495957198    -0.594115807879     1.007825032070
           H         -3.092286326125     3.494299957198    -2.338602807879     1.007825032070
           H         -4.005013326125     2.176966957198    -1.625384807879     1.007825032070
           H          3.305391673875    -2.535112042802    -0.104744807879     1.007825032070
           H          4.116241673875    -1.225763042802     0.767414192121     1.007825032070
           H          3.306787673875    -2.532704042802     1.644259192121     1.007825032070

  Charge       = 0
  Multiplicity = 1
  Basis Set: 6-31G*
  Basis Set:

    Orbital Energies (a.u.)
    -----------------------

    Doubly Occupied:

       1A    -20.552295     2A    -11.329304     3A    -11.232964
       4A    -11.229995     5A    -11.216912     6A    -11.207413
       7A    -11.204220     8A    -11.202445     9A    -11.198434
      10A     -1.400435    11A     -1.087292    12A     -1.052876
      13A     -1.013703    14A     -0.964021    15A     -0.885989
      16A     -0.812735    17A     -0.782872    18A     -0.730201
      19A     -0.670513    20A     -0.638292    21A     -0.629419
      22A     -0.622040    23A     -0.590018    24A     -0.583036
      25A     -0.569374    26A     -0.552745    27A     -0.531827
      28A     -0.523473    29A     -0.512634    30A     -0.504690
      31A     -0.479605    32A     -0.471825    33A     -0.455241
      34A     -0.453422    35A     -0.435491    36A     -0.394907

  @DF-RHF Final Energy:  -387.13010717430404

   => Energetics <=

    Nuclear Repulsion Energy =            452.9231048440692575
    One-Electron Energy =               -1422.6611860782325039
    Two-Electron Energy =                 582.6079740598548824
    DFT Exchange-Correlation Energy =       0.0000000000000000
    Empirical Dispersion Energy =           0.0000000000000000
    PCM Polarization Energy =               0.0000000000000000
    EFP Energy =                            0.0000000000000000
    Total Energy =                       -387.1301071743083639

  Mulliken Charges: (a.u.)
   Center  Symbol    Alpha    Beta     Spin     Total
       1     O     4.26206  4.26206  0.00000 -0.52412
       2     C     2.73541  2.73541  0.00000  0.52918
       3     C     3.21219  3.21219  0.00000 -0.42439
       4     C     3.28666  3.28666  0.00000 -0.57332
       5     C     3.14945  3.14945  0.00000 -0.29891
       6     H     0.40909  0.40909  0.00000  0.18182
       7     H     0.40707  0.40707  0.00000  0.18587
       8     C     3.16597  3.16597  0.00000 -0.33195
       9     H     0.41561  0.41561  0.00000  0.16877
      10     H     0.41986  0.41986  0.00000  0.16028
      11     C     3.14982  3.14982  0.00000 -0.29963
      12     H     0.38786  0.38786  0.00000  0.22427
      13     H     0.43188  0.43188  0.00000  0.13623
      14     C     3.15120  3.15120  0.00000 -0.30240
      15     H     0.42392  0.42392  0.00000  0.15215
      16     H     0.42883  0.42883  0.00000  0.14234
      17     C     3.23897  3.23897  0.00000 -0.47794
      18     H     0.42085  0.42085  0.00000  0.15831
      19     H     0.42493  0.42493  0.00000  0.15014
      20     H     0.42200  0.42200  0.00000  0.15600
      21     H     0.42051  0.42051  0.00000  0.15898
      22     H     0.42319  0.42319  0.00000  0.15362
      23     H     0.40814  0.40814  0.00000  0.18371
      24     H     0.39636  0.39636  0.00000  0.20727
      25     H     0.40815  0.40815  0.00000  0.18371

   Total alpha = 36.00000, Total beta = 36.00000, Total charge =  0.00000
