  ==> Input File <==

--------------------------------------------------------------------------
set {
	reference rhf
	basis cc-pvtz
}

set_num_threads( 4 )
memory 2 gb

molecule MOL {
0 1

H	 -2.412117	 -0.631061	 0.880171
N	 -1.641110	 0.002194	 0.869705
C	 -0.561396	 -0.500007	 0.035200
H	 -1.338680	 0.113938	 1.814896
C	 0.575129	 0.507849	 -0.048832
H	 -0.961424	 -0.669886	 -0.958951
H	 -0.166223	 -1.456435	 0.380886
C	 1.951750	 -0.141983	 0.035101
H	 0.478254	 1.061643	 -0.975981
H	 0.467676	 1.231891	 0.755499
H	 2.101550	 -0.848142	 -0.774949
H	 2.738260	 0.600794	 -0.026526
H	 2.078939	 -0.679792	 0.968824

	symmetry c1
}
set optking {
	frozen_dihedral = ("
		6 3 5 9
	")
}

ee = optimize('scf')
oeprop('DIPOLE', 'QUADRUPOLE', 'MULLIKEN_CHARGES')
f=open( 'psi4out.xyz', 'w' )
f.write( "13  " )
f.write( str(ee) + "\n" )
f.write( MOL.save_string_xyz() )
f.close()
--------------------------------------------------------------------------

    Molecular point group: c1
  Charge       = 0
  Multiplicity = 1
  Basis Set: CC-PVTZ
  Basis Set:
  @DF-RHF Final Energy:  -173.34724837981403
    Total Energy =                       -173.3472483798139194
    Molecular point group: c1
  Basis Set: CC-PVTZ
  Basis Set:
  Basis Set: CC-PVTZ
  Basis Set:
  @DF-RHF Final Energy:  -173.34762729689862
    Total Energy =                       -173.3476272968986507
  Basis Set: CC-PVTZ
  Basis Set:
  Basis Set: CC-PVTZ
  Basis Set:
  @DF-RHF Final Energy:  -173.34772801332164
    Total Energy =                       -173.3477280133214435
  Basis Set: CC-PVTZ
  Basis Set:
  Basis Set: CC-PVTZ
  Basis Set:
  @DF-RHF Final Energy:  -173.34773002433326
    Total Energy =                       -173.3477300243333161
  Basis Set: CC-PVTZ
  Basis Set:
  Charge       = 0
  Multiplicity = 1
  Basis Set: CC-PVTZ
  Basis Set:

    Orbital Energies (a.u.)
    -----------------------

    Doubly Occupied:

       1A    -15.526540     2A    -11.238668     3A    -11.210577
       4A    -11.207025     5A     -1.177170     6A     -1.034359
       7A     -0.898930     8A     -0.799789     9A     -0.668342
      10A     -0.620267    11A     -0.606265    12A     -0.565778
      13A     -0.536738    14A     -0.489786    15A     -0.478303
      16A     -0.465860    17A     -0.383428

  @DF-RHF Final Energy:  -173.34773037037155

   => Energetics <=

    Nuclear Repulsion Energy =            131.8912350137450176
    One-Electron Energy =                -494.6622845384557081
    Two-Electron Energy =                 189.4233191543391683
    DFT Exchange-Correlation Energy =       0.0000000000000000
    Empirical Dispersion Energy =           0.0000000000000000
    PCM Polarization Energy =               0.0000000000000000
    EFP Energy =                            0.0000000000000000
    Total Energy =                       -173.3477303703715222
    Molecular point group: c1
  Basis Set: CC-PVTZ
  Basis Set:

  -Total Gradient:
     Atom            X                  Y                   Z
    ------   -----------------  -----------------  -----------------
       1       -0.000010961613     0.000009243622     0.000010208438
       2        0.000016293629    -0.000035133835    -0.000019085905
       3        0.004055480951    -0.004627133654    -0.001174210041
       4        0.000005165943    -0.000006643317    -0.000021531447
       5       -0.003700437586     0.004355988203     0.002595891399
       6       -0.002833789307     0.003215559200     0.000584063858
       7        0.000003114179     0.000025677900     0.000001597110
       8       -0.000005568967     0.000009689548     0.000020271487
       9        0.002459313464    -0.002933111265    -0.001996488447
      10        0.000002651259    -0.000015839458     0.000006414937
      11       -0.000011614304    -0.000003903872     0.000000257931
      12        0.000008983233     0.000001696855    -0.000003032845
      13        0.000011369119     0.000003910074    -0.000004356477

  **** Optimization is complete! (in 5 steps) ****
    Final optimized geometry and variables:
    Molecular point group: c1

    Geometry (in Angstrom), charge = 0, multiplicity = 1:

    H           -2.500884468434    -0.575358024936     0.591886710281
    N           -1.725279516527     0.052696174995     0.604806087077
    C           -0.619658049015    -0.463839884368    -0.191838102493
    H           -1.454278182565     0.166835142664     1.559271269356
    C            0.522659687936     0.559136977394    -0.270618674334
    H           -1.018429832649    -0.639639504658    -1.183755779767
    H           -0.239225044992    -1.412810269429     0.183437921266
    C            1.905676641091    -0.086765412511    -0.229842013315
    H            0.440226361264     1.121171480889    -1.193868838558
    H            0.425788499149     1.267082087317     0.544162087749
    H            2.030699081591    -0.798075004199    -1.040050246827
    H            2.688247253594     0.657468114751    -0.323075945039
    H            2.063871822422    -0.620438393869     0.701688295411

  Mulliken Charges: (a.u.)
   Center  Symbol    Alpha    Beta     Spin     Total
       1     H     0.42946  0.42946  0.00000  0.14107
       2     N     3.69049  3.69049  0.00000 -0.38099
       3     C     3.02852  3.02852  0.00000 -0.05705
       4     H     0.43085  0.43085  0.00000  0.13829
       5     C     3.08057  3.08057  0.00000 -0.16113
       6     H     0.45615  0.45615  0.00000  0.08769
       7     H     0.46602  0.46602  0.00000  0.06796
       8     C     3.15113  3.15113  0.00000 -0.30227
       9     H     0.45248  0.45248  0.00000  0.09504
      10     H     0.45239  0.45239  0.00000  0.09521
      11     H     0.45550  0.45550  0.00000  0.08900
      12     H     0.44926  0.44926  0.00000  0.10149
      13     H     0.45716  0.45716  0.00000  0.08567

   Total alpha = 17.00000, Total beta = 17.00000, Total charge = -0.00000
