  ==> Input File <==

--------------------------------------------------------------------------
set {
	reference rhf
	basis 6-31G*
}

set_num_threads( 1 )
memory 2 gb

molecule MOL {
0 1

O	 -0.675634	 0.839377	 -2.664669
C	 -1.250910	 0.681865	 -1.630898
C	 -0.889235	 -0.467034	 -0.705952
C	 -2.338963	 1.628539	 -1.175568
C	 0.379448	 -0.143569	 0.099626
H	 -0.713415	 -1.342256	 -1.321888
H	 -1.711363	 -0.687841	 -0.031135
C	 1.631333	 -0.777471	 -0.511575
H	 0.482768	 0.934507	 0.149241
H	 0.263088	 -0.495696	 1.123449
C	 2.915987	 -0.544314	 0.291766
H	 1.766672	 -0.399098	 -1.523130
H	 1.471257	 -1.849544	 -0.605828
C	 3.373361	 0.914346	 0.347591
H	 3.708709	 -1.142521	 -0.150311
H	 2.780642	 -0.921148	 1.303579
H	 3.506512	 1.320010	 -0.651625
H	 4.322697	 0.999599	 0.867103
H	 2.660624	 1.545032	 0.868198
H	 -3.291682	 1.105990	 -1.152473
H	 -2.406509	 2.468301	 -1.853080
H	 -2.143541	 1.982432	 -0.167414

	symmetry c1
}
set optking {
	frozen_dihedral = ("
		6 3 2 1,
		3 5 8 12,
		12 8 11 15
	")
}

ee = energy('scf')
oeprop('DIPOLE', 'QUADRUPOLE', 'MULLIKEN_CHARGES')
f=open( 'psi4out.xyz', 'w' )
f.write( "22  " )
f.write( str(ee) + "\n" )
f.write( MOL.save_string_xyz() )
f.close()
--------------------------------------------------------------------------

    Molecular point group: c1

    Geometry (in Angstrom), charge = 0, multiplicity = 1:

       Center              X                  Y                   Z               Mass
    ------------   -----------------  -----------------  -----------------  -----------------
           O         -1.077245829678     0.554730811363    -1.917886660885    15.994914619560
           C         -1.652521829678     0.397218811363    -0.884115660885    12.000000000000
           C         -1.290846829678    -0.751680188637     0.040830339115    12.000000000000
           C         -2.740574829678     1.343892811363    -0.428785660885    12.000000000000
           C         -0.022163829678    -0.428215188637     0.846408339115    12.000000000000
           H         -1.115026829678    -1.626902188637    -0.575105660885     1.007825032070
           H         -2.112974829678    -0.972487188637     0.715647339115     1.007825032070
           C          1.229721170322    -1.062117188637     0.235207339115    12.000000000000
           H          0.081156170322     0.649860811363     0.896023339115     1.007825032070
           H         -0.138523829678    -0.780342188637     1.870231339115     1.007825032070
           C          2.514375170322    -0.828960188637     1.038548339115    12.000000000000
           H          1.365060170322    -0.683744188637    -0.776347660885     1.007825032070
           H          1.069645170322    -2.134190188637     0.140954339115     1.007825032070
           C          2.971749170322     0.629699811363     1.094373339115    12.000000000000
           H          3.307097170322    -1.427167188637     0.596471339115     1.007825032070
           H          2.379030170322    -1.205794188637     2.050361339115     1.007825032070
           H          3.104900170322     1.035363811363     0.095157339115     1.007825032070
           H          3.921085170322     0.714952811363     1.613885339115     1.007825032070
           H          2.259012170322     1.260385811363     1.614980339115     1.007825032070
           H         -3.693293829678     0.821343811363    -0.405690660885     1.007825032070
           H         -2.808120829678     2.183654811363    -1.106297660885     1.007825032070
           H         -2.545152829678     1.697785811363     0.579368339115     1.007825032070

  Charge       = 0
  Multiplicity = 1
  Basis Set: 6-31G*
  Basis Set:

    Orbital Energies (a.u.)
    -----------------------

    Doubly Occupied:

       1A    -20.547644     2A    -11.324912     3A    -11.228999
       4A    -11.228895     5A    -11.227788     6A    -11.216370
       7A    -11.215589     8A    -11.208328     9A     -1.393655
      10A     -1.093395    11A     -1.042416    12A     -0.999074
      13A     -0.934222    14A     -0.856574    15A     -0.783799
      16A     -0.735129    17A     -0.660722    18A     -0.641150
      19A     -0.626165    20A     -0.608642    21A     -0.598697
      22A     -0.586745    23A     -0.554787    24A     -0.549631
      25A     -0.531035    26A     -0.518457    27A     -0.502878
      28A     -0.482012    29A     -0.466448    30A     -0.461091
      31A     -0.452425    32A     -0.396292

  @DF-RHF Final Energy:  -348.09405880208379

   => Energetics <=

    Nuclear Repulsion Energy =            378.9949648601026979
    One-Electron Energy =               -1222.8300988359105759
    Two-Electron Energy =                 495.7410751737239707
    DFT Exchange-Correlation Energy =       0.0000000000000000
    Empirical Dispersion Energy =           0.0000000000000000
    PCM Polarization Energy =               0.0000000000000000
    EFP Energy =                            0.0000000000000000
    Total Energy =                       -348.0940588020838504

  Mulliken Charges: (a.u.)
   Center  Symbol    Alpha    Beta     Spin     Total
       1     O     4.26173  4.26173  0.00000 -0.52345
       2     C     2.74031  2.74031  0.00000  0.51939
       3     C     3.20314  3.20314  0.00000 -0.40627
       4     C     3.28925  3.28925  0.00000 -0.57851
       5     C     3.16126  3.16126  0.00000 -0.32253
       6     H     0.39982  0.39982  0.00000  0.20036
       7     H     0.41391  0.41391  0.00000  0.17217
       8     C     3.15643  3.15643  0.00000 -0.31286
       9     H     0.41513  0.41513  0.00000  0.16973
      10     H     0.41701  0.41701  0.00000  0.16597
      11     C     3.15418  3.15418  0.00000 -0.30836
      12     H     0.40793  0.40793  0.00000  0.18414
      13     H     0.42162  0.42162  0.00000  0.15675
      14     C     3.24153  3.24153  0.00000 -0.48307
      15     H     0.41934  0.41934  0.00000  0.16132
      16     H     0.42466  0.42466  0.00000  0.15067
      17     H     0.41844  0.41844  0.00000  0.16313
      18     H     0.41908  0.41908  0.00000  0.16185
      19     H     0.42194  0.42194  0.00000  0.15611
      20     H     0.40659  0.40659  0.00000  0.18682
      21     H     0.39706  0.39706  0.00000  0.20587
      22     H     0.40962  0.40962  0.00000  0.18075

   Total alpha = 32.00000, Total beta = 32.00000, Total charge =  0.00000
