                              Psi4 1.0.54 Driver

  ==> Input File <==

--------------------------------------------------------------------------
set {
	reference rhf
	basis cc-pvtz
}

set_num_threads( 4 )
memory 2 gb

molecule MOL {
0 1

H	 -2.123894	 -0.667238	 -0.609809
O	 -2.041679	 -0.058866	 0.103463
C	 -0.959304	 0.780994	 -0.094939
C	 0.354905	 0.037902	 -0.006215
H	 -0.985899	 1.279578	 -1.057596
H	 -0.969809	 1.529522	 0.682889
F	 1.159063	 0.602604	 0.877093
F	 0.152424	 -1.205202	 0.377569
F	 0.992058	 0.006142	 -1.152077

	symmetry c1
}
set optking {
	frozen_dihedral = ("
		7 4 3 5
	")
}

ee,wfn = optimize('scf', return_wfn=True)
oeprop( wfn, 'DIPOLE', 'QUADRUPOLE', 'MULLIKEN_CHARGES')
f=open( 'psi4out.xyz', 'w' )
f.write( "9  " )
f.write( str(ee) + "\n" )
f.write( MOL.save_string_xyz() )
f.close()
--------------------------------------------------------------------------

    Molecular point group: c1
  Charge       = 0
  Multiplicity = 1
  Basis Set: CC-PVTZ
  Basis Set:
  @DF-RHF Final Energy:  -450.83876631914967
    Total Energy =                       -450.8387663191498405
    Molecular point group: c1
  Basis Set: CC-PVTZ
  Basis Set:
  Basis Set: CC-PVTZ
  Basis Set:
  @DF-RHF Final Energy:  -450.83928141655247
    Total Energy =                       -450.8392814165523532
  Basis Set: CC-PVTZ
  Basis Set:
  Basis Set: CC-PVTZ
  Basis Set:
  @DF-RHF Final Energy:  -450.83989993959278
    Total Energy =                       -450.8398999395928968
  Basis Set: CC-PVTZ
  Basis Set:
  Basis Set: CC-PVTZ
  Basis Set:
  @DF-RHF Final Energy:  -450.83993741538950
    Total Energy =                       -450.8399374153894996
  Basis Set: CC-PVTZ
  Basis Set:
  Basis Set: CC-PVTZ
  Basis Set:
  @DF-RHF Final Energy:  -450.83994054999459
    Total Energy =                       -450.8399405499943100
  Basis Set: CC-PVTZ
  Basis Set:
  Charge       = 0
  Multiplicity = 1
  Basis Set: CC-PVTZ
  Basis Set:

    Orbital Energies (a.u.)
    -----------------------

    Doubly Occupied:

       1A    -26.337691     2A    -26.336366     3A    -26.336313
       4A    -20.582635     5A    -11.495042     6A    -11.310075
       7A     -1.747349     8A     -1.643513     9A     -1.641310
      10A     -1.405629    11A     -1.044474    12A     -0.929780
      13A     -0.836069    14A     -0.834318    15A     -0.812185
      16A     -0.730597    17A     -0.719139    18A     -0.704311
      19A     -0.670063    20A     -0.664995    21A     -0.647393
      22A     -0.630848    23A     -0.614724    24A     -0.529640
      25A     -0.483955

  @DF-RHF Final Energy:  -450.83994084197695

   => Energetics <=

    Nuclear Repulsion Energy =            276.4731433322976955
    One-Electron Energy =               -1175.2493419668735442
    Two-Electron Energy =                 447.9362577925988944
    DFT Exchange-Correlation Energy =       0.0000000000000000
    Empirical Dispersion Energy =           0.0000000000000000
    PCM Polarization Energy =               0.0000000000000000
    EFP Energy =                            0.0000000000000000
    Total Energy =                       -450.8399408419769543
    Molecular point group: c1
  Basis Set: CC-PVTZ
  Basis Set:

  -Total Gradient:
     Atom            X                  Y                   Z
    ------   -----------------  -----------------  -----------------
       1       -0.000014150883     0.000008144876     0.000001190948
       2        0.000013161357    -0.000026027645     0.000001929005
       3        0.000381412028     0.000818285957     0.000683504122
       4        0.000365734765     0.000430121804    -0.000903025572
       5       -0.000391154851    -0.000821410216    -0.000402407632
       6        0.000010693769     0.000003544623     0.000000161756
       7       -0.000317253988    -0.000492831944     0.000661953596
       8       -0.000027062667     0.000088336920    -0.000007618853
       9       -0.000021379533    -0.000008164370    -0.000035687371

  **** Optimization is complete! (in 6 steps) ****
    Final optimized geometry and variables:
    Molecular point group: c1

    Geometry (in Angstrom), charge = 0, multiplicity = 1:

    H           -2.146850877870    -0.728010746522    -0.578100749108
    O           -2.079587019193    -0.088657300631     0.108554366928
    C           -0.999627650847     0.752558666493    -0.095000615691
    C            0.359100044568     0.039796713939    -0.010987115052
    H           -1.045096953197     1.246534061362    -1.057835697404
    H           -1.027410423921     1.499801709109     0.681437118682
    F            1.153420712508     0.623822746016     0.861949803359
    F            0.242342335706    -1.218953606426     0.339243902758
    F            0.983464428273     0.062227280366    -1.175007123586

  Mulliken Charges: (a.u.)
   Center  Symbol    Alpha    Beta     Spin     Total
       1     H     0.38911  0.38911  0.00000  0.22178
       2     O     4.18394  4.18394  0.00000 -0.36788
       3     C     3.00765  3.00765  0.00000 -0.01530
       4     C     2.67958  2.67958  0.00000  0.64084
       5     H     0.46055  0.46055  0.00000  0.07890
       6     H     0.44742  0.44742  0.00000  0.10515
       7     F     4.61077  4.61077  0.00000 -0.22154
       8     F     4.60732  4.60732  0.00000 -0.21464
       9     F     4.61366  4.61366  0.00000 -0.22732

   Total alpha = 25.00000, Total beta = 25.00000, Total charge = -0.00000

*** Psi4 exiting successfully. Buy a developer a beer!
