  ==> Input File <==

--------------------------------------------------------------------------
set {
	reference rhf
	basis 6-31G*
}

set_num_threads( 4 )
memory 2 gb

molecule MOL {
0 1

H	 -4.031818	 -0.453427	 -0.000094
C	 -2.967712	 -0.297022	 -0.000064
C	 -2.458620	 0.992929	 0.000032
C	 -2.109895	 -1.385637	 -0.000122
H	 -3.124998	 1.836319	 0.000077
C	 -1.090278	 1.193236	 0.000070
H	 -2.506361	 -2.384847	 -0.000198
C	 -0.739812	 -1.187531	 -0.000085
H	 -0.678594	 2.184290	 0.000146
C	 -0.226438	 0.104061	 0.000012
H	 -0.072310	 -2.027032	 -0.000131
C	 1.239129	 0.373821	 0.000060
O	 1.749701	 0.467880	 -1.218575
O	 1.893667	 0.494230	 0.987957
C	 3.139820	 0.723884	 -1.311871
H	 3.383674	 1.664777	 -0.840649
H	 3.360874	 0.764292	 -2.367028
H	 3.702896	 -0.068099	 -0.840038

	symmetry c1
}
set optking {
	frozen_dihedral = ("
		13 12 10 6
	")
}

ee = optimize('scf')
oeprop('DIPOLE', 'QUADRUPOLE', 'MULLIKEN_CHARGES')
f=open( 'psi4out.xyz', 'w' )
f.write( "18  " )
f.write( str(ee) + "\n" )
f.write( MOL.save_string_xyz() )
f.close()
--------------------------------------------------------------------------

    Molecular point group: c1
  Charge       = 0
  Multiplicity = 1
  Basis Set: 6-31G*
  Basis Set:
  @DF-RHF Final Energy:  -457.33761282483727
    Total Energy =                       -457.3376128248372652
    Molecular point group: c1
  Basis Set: 6-31G*
  Basis Set:
  Basis Set: 6-31G*
  Basis Set:
  @DF-RHF Final Energy:  -457.33770033418404
    Total Energy =                       -457.3377003341840918
  Basis Set: 6-31G*
  Basis Set:
  Basis Set: 6-31G*
  Basis Set:
  @DF-RHF Final Energy:  -457.33802313583260
    Total Energy =                       -457.3380231358323726
  Basis Set: 6-31G*
  Basis Set:
  Basis Set: 6-31G*
  Basis Set:
  @DF-RHF Final Energy:  -457.33808238448614
    Total Energy =                       -457.3380823844863698
  Basis Set: 6-31G*
  Basis Set:
  Basis Set: 6-31G*
  Basis Set:
  @DF-RHF Final Energy:  -457.33808476459745
    Total Energy =                       -457.3380847645976246
  Basis Set: 6-31G*
  Basis Set:
  Charge       = 0
  Multiplicity = 1
  Basis Set: 6-31G*
  Basis Set:

    Orbital Energies (a.u.)
    -----------------------

    Doubly Occupied:

       1A    -20.610056     2A    -20.551561     3A    -11.381081
       4A    -11.283782     5A    -11.251956     6A    -11.243765
       7A    -11.243665     8A    -11.240405     9A    -11.239721
      10A    -11.238637    11A     -1.475892    12A     -1.368658
      13A     -1.166559    14A     -1.048696    15A     -1.025699
      16A     -0.980202    17A     -0.859537    18A     -0.838404
      19A     -0.780658    20A     -0.737588    21A     -0.685420
      22A     -0.680454    23A     -0.677088    24A     -0.631439
      25A     -0.629565    26A     -0.597210    27A     -0.591570
      28A     -0.547816    29A     -0.537176    30A     -0.518014
      31A     -0.507305    32A     -0.501986    33A     -0.459992
      34A     -0.444865    35A     -0.342667    36A     -0.341886

  @DF-RHF Final Energy:  -457.33808531390741

   => Energetics <=

    Nuclear Repulsion Energy =            491.4172492795723883
    One-Electron Energy =               -1596.9887196878762552
    Two-Electron Energy =                 648.2333850943959987
    DFT Exchange-Correlation Energy =       0.0000000000000000
    Empirical Dispersion Energy =           0.0000000000000000
    PCM Polarization Energy =               0.0000000000000000
    EFP Energy =                            0.0000000000000000
    Total Energy =                       -457.3380853139078681
    Molecular point group: c1
  Basis Set: 6-31G*
  Basis Set:

  -Total Gradient:
     Atom            X                  Y                   Z
    ------   -----------------  -----------------  -----------------
       1       -0.000005329516     0.000010195556    -0.000006495465
       2        0.000023644032    -0.000085880286     0.000009337864
       3        0.000068073036     0.000047924032     0.000002394328
       4       -0.000099790803     0.000043856555     0.000007724974
       5       -0.000004917700    -0.000007464191     0.000003215889
       6       -0.000096863849     0.000034430275     0.000146262866
       7        0.000010818179     0.000003402499    -0.000001032778
       8        0.000088512395     0.000059351639    -0.000017780576
       9        0.000011828879    -0.000013524188    -0.000002128769
      10        0.000074458225    -0.000162167838    -0.000216047258
      11       -0.000008079576     0.000007467784    -0.000000793855
      12       -0.000083422874     0.000217312030     0.000094946733
      13        0.000017084529    -0.000132786782    -0.000044449127
      14       -0.000006719447     0.000003597304     0.000020780178
      15        0.000014807389    -0.000048892554     0.000009194331
      16       -0.000011694050     0.000003371550     0.000001435556
      17       -0.000004026778     0.000007752773     0.000000698651
      18        0.000011617924     0.000012053836    -0.000007263541

  **** Optimization is complete! (in 6 steps) ****
    Final optimized geometry and variables:
    Molecular point group: c1

    Geometry (in Angstrom), charge = 0, multiplicity = 1:

    H           -3.999850749682    -0.650256850063     0.178977579322
    C           -2.938520218745    -0.478318102646     0.173521511183
    C           -2.445795790099     0.816698687197     0.173843622642
    C           -2.062067396607    -1.551151610895     0.167832979132
    H           -3.122953728921     1.651666500520     0.180361535438
    C           -1.079133182063     1.039882555782     0.167111495265
    H           -2.440570068647    -2.557371208265     0.169496641440
    C           -0.694612919780    -1.331156810693     0.161746009383
    H           -0.698136748607     2.045456806469     0.170040512877
    C           -0.203031343757    -0.034893006646     0.161026444167
    H           -0.015595325998    -2.164973888444     0.161303421660
    C            1.277896064516     0.204817382752     0.182410170970
    O            1.780299852071     0.302663945780    -1.037633838901
    O            1.929942579329     0.295692084846     1.170783658555
    C            3.176128334477     0.529678431879    -1.140044846663
    H            3.445211702249     1.458393331878    -0.658001591909
    H            3.388036142905     0.579696057849    -2.196395339330
    H            3.726275374361    -0.280596457155    -0.683914919386

  Mulliken Charges: (a.u.)
   Center  Symbol    Alpha    Beta     Spin     Total
       1     H     0.39655  0.39655  0.00000  0.20691
       2     C     3.09775  3.09775  0.00000 -0.19551
       3     C     3.09973  3.09973  0.00000 -0.19945
       4     C     3.09974  3.09974  0.00000 -0.19947
       5     H     0.39589  0.39589  0.00000  0.20822
       6     C     3.09834  3.09834  0.00000 -0.19668
       7     H     0.39589  0.39589  0.00000  0.20823
       8     C     3.09846  3.09846  0.00000 -0.19691
       9     H     0.39133  0.39133  0.00000  0.21734
      10     C     3.00732  3.00732  0.00000 -0.01463
      11     H     0.39124  0.39124  0.00000  0.21753
      12     C     2.64304  2.64304  0.00000  0.71392
      13     O     4.29460  4.29460  0.00000 -0.58919
      14     O     4.27326  4.27326  0.00000 -0.54652
      15     C     3.09424  3.09424  0.00000 -0.18849
      16     H     0.40818  0.40818  0.00000  0.18364
      17     H     0.40629  0.40629  0.00000  0.18742
      18     H     0.40817  0.40817  0.00000  0.18365

   Total alpha = 36.00000, Total beta = 36.00000, Total charge =  0.00000
