  ==> Input File <==

--------------------------------------------------------------------------
set {
	reference rhf
	basis 6-31G*
}

set_num_threads( 4 )
memory 2 gb

molecule MOL {
0 1

H	 -2.063000	 -0.744720	 -1.959298
C	 -1.450168	 -0.459726	 -1.127060
C	 -1.953768	 0.369099	 -0.070197
C	 -0.178425	 -0.870462	 -1.041127
H	 -2.971418	 0.715245	 -0.110381
C	 -1.168214	 0.712400	 0.960586
H	 0.273962	 -1.492544	 -1.789969
N	 0.640212	 -0.532897	 -0.000111
H	 -1.510072	 1.330008	 1.768081
C	 0.215607	 0.265280	 1.053882
C	 2.010177	 -1.032049	 0.000042
O	 0.953813	 0.551651	 1.963415
H	 2.187698	 -1.635381	 -0.882279
H	 2.677579	 -0.189247	 -0.001871
H	 2.188882	 -1.632203	 0.884288

	symmetry c1
}
set optking {
	frozen_dihedral = ("
		10 8 11 13
	")
}

ee = optimize('scf')
oeprop('DIPOLE', 'QUADRUPOLE', 'MULLIKEN_CHARGES')
f=open( 'psi4out.xyz', 'w' )
f.write( "15  " )
f.write( str(ee) + "\n" )
f.write( MOL.save_string_xyz() )
f.close()
--------------------------------------------------------------------------

    Molecular point group: c1
  Charge       = 0
  Multiplicity = 1
  Basis Set: 6-31G*
  Basis Set:
  @DF-RHF Final Energy:  -360.59587059178807
    Total Energy =                       -360.5958705917884117
    Molecular point group: c1
  Basis Set: 6-31G*
  Basis Set:
  Basis Set: 6-31G*
  Basis Set:
  @DF-RHF Final Energy:  -360.59670540122136
    Total Energy =                       -360.5967054012210724
  Basis Set: 6-31G*
  Basis Set:
  Basis Set: 6-31G*
  Basis Set:
  @DF-RHF Final Energy:  -360.59680591535243
    Total Energy =                       -360.5968059153524337
  Basis Set: 6-31G*
  Basis Set:
  Basis Set: 6-31G*
  Basis Set:
  @DF-RHF Final Energy:  -360.59678196486533
    Total Energy =                       -360.5967819648651016
  Basis Set: 6-31G*
  Basis Set:
  Charge       = 0
  Multiplicity = 1
  Basis Set: 6-31G*
  Basis Set:

    Orbital Energies (a.u.)
    -----------------------

    Doubly Occupied:

       1A    -20.508927     2A    -15.622578     3A    -11.341338
       4A    -11.298269     5A    -11.267040     6A    -11.260414
       7A    -11.232702     8A    -11.228759     9A     -1.385335
      10A     -1.281091    11A     -1.114912    12A     -1.026434
      13A     -0.970319    14A     -0.873044    15A     -0.835813
      16A     -0.716133    17A     -0.697351    18A     -0.661466
      19A     -0.648757    20A     -0.623041    21A     -0.606520
      22A     -0.573541    23A     -0.548201    24A     -0.547053
      25A     -0.528189    26A     -0.478159    27A     -0.413812
      28A     -0.405981    29A     -0.304372

  @DF-RHF Final Energy:  -360.59681182646227

   => Energetics <=

    Nuclear Repulsion Energy =            358.0480653693972499
    One-Electron Energy =               -1199.2906577692353949
    Two-Electron Energy =                 480.6457805733761006
    DFT Exchange-Correlation Energy =       0.0000000000000000
    Empirical Dispersion Energy =           0.0000000000000000
    PCM Polarization Energy =               0.0000000000000000
    EFP Energy =                            0.0000000000000000
    Total Energy =                       -360.5968118264620443
    Molecular point group: c1
  Basis Set: 6-31G*
  Basis Set:

  -Total Gradient:
     Atom            X                  Y                   Z
    ------   -----------------  -----------------  -----------------
       1       -0.000009029902     0.000009179345    -0.000011445587
       2        0.000220702955    -0.000067093562    -0.000017348142
       3       -0.000039704889     0.000103315458     0.000171629378
       4       -0.000289695541    -0.000056119601    -0.000146004694
       5        0.000004287171    -0.000012599336    -0.000018074083
       6       -0.000189620448     0.000055492346    -0.000076823684
       7        0.000039427644     0.000015788727     0.000017245961
       8        0.000111510792     0.000173613205     0.000248768467
       9        0.000020854564     0.000003157444     0.000010716190
      10        0.000154568662    -0.000280425789    -0.000194771667
      11       -0.000035779758    -0.000026735784    -0.000019110263
      12       -0.000013350994     0.000075418251     0.000047073950
      13        0.000024413590    -0.000013678540    -0.000020138154
      14       -0.000002328876     0.000002234613     0.000009368187
      15        0.000003745030     0.000018453222    -0.000001085857

  **** Optimization is complete! (in 5 steps) ****
    Final optimized geometry and variables:
    Molecular point group: c1

    Geometry (in Angstrom), charge = 0, multiplicity = 1:

    H           -2.038056675245    -0.599426887232    -2.191739487355
    C           -1.416505519941    -0.319644693497    -1.364298347004
    C           -1.907907370465     0.507855498493    -0.302000700706
    C           -0.144847240586    -0.738089684211    -1.293429381902
    H           -2.924720100220     0.857182094249    -0.334545508415
    C           -1.113751920778     0.847133298815     0.724864491586
    H            0.294783222463    -1.359237895405    -2.049286756828
    N            0.679727608199    -0.404527298645    -0.258190675716
    H           -1.446648139401     1.464197357152     1.536675904165
    C            0.266241958409     0.391507842375     0.799116828210
    C            2.057539734624    -0.876664781409    -0.212919142360
    O            1.030940479193     0.660253782975     1.692363636857
    H            2.251778705490    -1.481282232658    -1.087131625573
    H            2.737411765873    -0.037183347116    -0.193885751159
    H            2.219573044297    -1.464988670566     0.678652495879

  Mulliken Charges: (a.u.)
   Center  Symbol    Alpha    Beta     Spin     Total
       1     H     0.39312  0.39312  0.00000  0.21377
       2     C     3.16251  3.16251  0.00000 -0.32502
       3     C     3.05819  3.05819  0.00000 -0.11639
       4     C     2.92167  2.92167  0.00000  0.15666
       5     H     0.39091  0.39091  0.00000  0.21817
       6     C     3.16973  3.16973  0.00000 -0.33947
       7     H     0.38729  0.38729  0.00000  0.22541
       8     N     3.86277  3.86277  0.00000 -0.72554
       9     H     0.38648  0.38648  0.00000  0.22704
      10     C     2.59739  2.59739  0.00000  0.80522
      11     C     3.13863  3.13863  0.00000 -0.27726
      12     O     4.32155  4.32155  0.00000 -0.64311
      13     H     0.41605  0.41605  0.00000  0.16791
      14     H     0.39685  0.39685  0.00000  0.20631
      15     H     0.39685  0.39685  0.00000  0.20630

   Total alpha = 29.00000, Total beta = 29.00000, Total charge =  0.00000
