  ==> Input File <==

--------------------------------------------------------------------------
set {
	reference rhf
	basis 6-31G*
}

set_num_threads( 1 )
memory 2 gb

molecule MOL {
0 1

H	 1.280795	 -1.495611	 -0.454659
O	 1.654024	 -0.625927	 -0.460906
C	 1.135793	 0.118896	 0.612333
C	 0.031547	 1.023609	 0.088541
H	 1.915668	 0.729681	 1.063582
H	 0.754543	 -0.542641	 1.387006
C	 -1.134819	 0.293262	 -0.585751
H	 0.474374	 1.714721	 -0.623187
H	 -0.338529	 1.620940	 0.920081
C	 -1.917817	 -0.639439	 0.339494
H	 -0.758119	 -0.268455	 -1.433105
H	 -1.813832	 1.041889	 -0.986690
H	 -2.777680	 -1.057197	 -0.174994
H	 -1.310268	 -1.471279	 0.680599
H	 -2.283753	 -0.111424	 1.216626

	symmetry c1
}
set optking {
	frozen_dihedral = ("
		8 4 7 11,
		2 3 4 8
	")
}

ee = energy('scf')
oeprop('DIPOLE', 'QUADRUPOLE', 'MULLIKEN_CHARGES')
f=open( 'psi4out.xyz', 'w' )
f.write( "15  " )
f.write( str(ee) + "\n" )
f.write( MOL.save_string_xyz() )
f.close()
--------------------------------------------------------------------------

    Molecular point group: c1

    Geometry (in Angstrom), charge = 0, multiplicity = 1:

       Center              X                  Y                   Z               Mass
    ------------   -----------------  -----------------  -----------------  -----------------
           H          1.295137373054    -1.491644218840    -0.450487365575     1.007825032070
           O          1.668366373054    -0.621960218840    -0.456734365575    15.994914619560
           C          1.150135373054     0.122862781160     0.616504634425    12.000000000000
           C          0.045889373054     1.027575781160     0.092712634425    12.000000000000
           H          1.930010373054     0.733647781160     1.067753634425     1.007825032070
           H          0.768885373054    -0.538674218840     1.391177634425     1.007825032070
           C         -1.120476626946     0.297228781160    -0.581579365575    12.000000000000
           H          0.488716373054     1.718687781160    -0.619015365575     1.007825032070
           H         -0.324186626946     1.624906781160     0.924252634425     1.007825032070
           C         -1.903474626946    -0.635472218840     0.343665634425    12.000000000000
           H         -0.743776626946    -0.264488218840    -1.428933365575     1.007825032070
           H         -1.799489626946     1.045855781160    -0.982518365575     1.007825032070
           H         -2.763337626946    -1.053230218840    -0.170822365575     1.007825032070
           H         -1.295925626946    -1.467312218840     0.684770634425     1.007825032070
           H         -2.269410626946    -0.107457218840     1.220797634425     1.007825032070

  Charge       = 0
  Multiplicity = 1
  Basis Set: 6-31G*
  Basis Set:

    Orbital Energies (a.u.)
    -----------------------

    Doubly Occupied:

       1A    -20.552950     2A    -11.268150     3A    -11.215805
       4A    -11.213875     5A    -11.210998     6A     -1.360691
       7A     -1.067590     8A     -0.974530     9A     -0.875304
      10A     -0.779411    11A     -0.702790    12A     -0.646956
      13A     -0.614078    14A     -0.581555    15A     -0.565604
      16A     -0.543293    17A     -0.503175    18A     -0.488665
      19A     -0.472133    20A     -0.457483    21A     -0.425008

  @DF-RHF Final Energy:  -232.14126194169751

   => Energetics <=

    Nuclear Repulsion Energy =            192.6102919317698365
    One-Electron Energy =                -696.4630769052567985
    Two-Electron Energy =                 271.7115230317888859
    DFT Exchange-Correlation Energy =       0.0000000000000000
    Empirical Dispersion Energy =           0.0000000000000000
    PCM Polarization Energy =               0.0000000000000000
    EFP Energy =                            0.0000000000000000
    Total Energy =                       -232.1412619416980760

  Mulliken Charges: (a.u.)
   Center  Symbol    Alpha    Beta     Spin     Total
       1     H     0.27903  0.27903  0.00000  0.44194
       2     O     4.36964  4.36964  0.00000 -0.73928
       3     C     3.00502  3.00502  0.00000 -0.01004
       4     C     3.15563  3.15563  0.00000 -0.31126
       5     H     0.41661  0.41661  0.00000  0.16679
       6     H     0.42926  0.42926  0.00000  0.14148
       7     C     3.15982  3.15982  0.00000 -0.31964
       8     H     0.41426  0.41426  0.00000  0.17149
       9     H     0.42823  0.42823  0.00000  0.14354
      10     C     3.24195  3.24195  0.00000 -0.48389
      11     H     0.41560  0.41560  0.00000  0.16880
      12     H     0.41901  0.41901  0.00000  0.16197
      13     H     0.41710  0.41710  0.00000  0.16580
      14     H     0.42822  0.42822  0.00000  0.14357
      15     H     0.42063  0.42063  0.00000  0.15874

   Total alpha = 21.00000, Total beta = 21.00000, Total charge =  0.00000
