  ==> Input File <==

--------------------------------------------------------------------------
set {
	reference rhf
	basis 6-31G*
}

set_num_threads( 1 )
memory 2 gb

molecule MOL {
0 1

H	 -3.070817	 -1.274530	 0.083896
O	 -2.310168	 -0.871793	 -0.309793
C	 -2.026376	 0.340750	 0.341611
C	 -0.673256	 0.843270	 -0.132153
H	 -2.792215	 1.080697	 0.115987
H	 -2.013526	 0.200402	 1.421792
C	 0.486613	 -0.083066	 0.235839
H	 -0.715586	 0.970948	 -1.210718
H	 -0.508072	 1.829858	 0.297090
C	 1.840406	 0.433480	 -0.254303
H	 0.300215	 -1.068318	 -0.178947
H	 0.519509	 -0.203625	 1.318070
C	 3.000220	 -0.489290	 0.118523
H	 1.809207	 0.553576	 -1.335192
H	 2.021860	 1.424500	 0.157276
H	 2.864959	 -1.479103	 -0.307933
H	 3.946603	 -0.099227	 -0.243630
H	 3.080049	 -0.602997	 1.196117

	symmetry c1
}
set optking {
	frozen_dihedral = ("
		14 10 7 11,
		10 7 4 8,
		2 3 4 8
	")
}

ee = energy('scf')
oeprop('DIPOLE', 'QUADRUPOLE', 'MULLIKEN_CHARGES')
f=open( 'psi4out.xyz', 'w' )
f.write( "18  " )
f.write( str(ee) + "\n" )
f.write( MOL.save_string_xyz() )
f.close()
--------------------------------------------------------------------------

    Molecular point group: c1

    Geometry (in Angstrom), charge = 0, multiplicity = 1:

       Center              X                  Y                   Z               Mass
    ------------   -----------------  -----------------  -----------------  -----------------
           H         -3.071556201261    -1.273849763333     0.082951725690     1.007825032070
           O         -2.310907201261    -0.871112763333    -0.310737274310    15.994914619560
           C         -2.027115201261     0.341430236667     0.340666725690    12.000000000000
           C         -0.673995201261     0.843950236667    -0.133097274310    12.000000000000
           H         -2.792954201261     1.081377236667     0.115042725690     1.007825032070
           H         -2.014265201261     0.201082236667     1.420847725690     1.007825032070
           C          0.485873798739    -0.082385763333     0.234894725690    12.000000000000
           H         -0.716325201261     0.971628236667    -1.211662274310     1.007825032070
           H         -0.508811201261     1.830538236667     0.296145725690     1.007825032070
           C          1.839666798739     0.434160236667    -0.255247274310    12.000000000000
           H          0.299475798739    -1.067637763333    -0.179891274310     1.007825032070
           H          0.518769798739    -0.202944763333     1.317125725690     1.007825032070
           C          2.999480798739    -0.488609763333     0.117578725690    12.000000000000
           H          1.808467798739     0.554256236667    -1.336136274310     1.007825032070
           H          2.021120798739     1.425180236667     0.156331725690     1.007825032070
           H          2.864219798739    -1.478422763333    -0.308877274310     1.007825032070
           H          3.945863798739    -0.098546763333    -0.244574274310     1.007825032070
           H          3.079309798739    -0.602316763333     1.195172725690     1.007825032070

  Charge       = 0
  Multiplicity = 1
  Basis Set: 6-31G*
  Basis Set:

    Orbital Energies (a.u.)
    -----------------------

    Doubly Occupied:

       1A    -20.553128     2A    -11.268097     3A    -11.211941
       4A    -11.210842     5A    -11.206511     6A    -11.204681
       7A     -1.359864     8A     -1.074813     9A     -1.008776
      10A     -0.913241    11A     -0.817735    12A     -0.783727
      13A     -0.705510    14A     -0.640020    15A     -0.627107
      16A     -0.579346    17A     -0.570171    18A     -0.559679
      19A     -0.522962    20A     -0.498654    21A     -0.487269
      22A     -0.467914    23A     -0.458414    24A     -0.450588
      25A     -0.427407

  @DF-RHF Final Energy:  -271.17987545870812

   => Energetics <=

    Nuclear Repulsion Energy =            249.0775987244885812
    One-Electron Energy =                -861.2982305118680415
    Two-Electron Energy =                 341.0407563286705681
    DFT Exchange-Correlation Energy =       0.0000000000000000
    Empirical Dispersion Energy =           0.0000000000000000
    PCM Polarization Energy =               0.0000000000000000
    EFP Energy =                            0.0000000000000000
    Total Energy =                       -271.1798754587089206

  Mulliken Charges: (a.u.)
   Center  Symbol    Alpha    Beta     Spin     Total
       1     H     0.28050  0.28050  0.00000  0.43899
       2     O     4.36960  4.36960  0.00000 -0.73921
       3     C     2.99740  2.99740  0.00000  0.00520
       4     C     3.16031  3.16031  0.00000 -0.32063
       5     H     0.42861  0.42861  0.00000  0.14278
       6     H     0.43294  0.43294  0.00000  0.13411
       7     C     3.15300  3.15300  0.00000 -0.30600
       8     H     0.41486  0.41486  0.00000  0.17027
       9     H     0.42419  0.42419  0.00000  0.15162
      10     C     3.15177  3.15177  0.00000 -0.30353
      11     H     0.40814  0.40814  0.00000  0.18372
      12     H     0.42807  0.42807  0.00000  0.14386
      13     C     3.23891  3.23891  0.00000 -0.47782
      14     H     0.42239  0.42239  0.00000  0.15522
      15     H     0.42530  0.42530  0.00000  0.14940
      16     H     0.42093  0.42093  0.00000  0.15815
      17     H     0.42031  0.42031  0.00000  0.15937
      18     H     0.42275  0.42275  0.00000  0.15449

   Total alpha = 25.00000, Total beta = 25.00000, Total charge = -0.00000
