  ==> Input File <==

--------------------------------------------------------------------------
set {
	reference rhf
	basis 6-31G*
}

set_num_threads( 4 )
memory 2 gb

molecule MOL {
0 1

O	 -2.439739	 -0.935931	 -0.423848
C	 -1.921153	 0.064240	 -0.045697
C	 -2.624470	 1.379923	 0.150949
O	 -0.632575	 0.154573	 0.251549
H	 -2.168117	 2.136577	 -0.476876
H	 -3.669540	 1.273223	 -0.098610
H	 -2.519365	 1.700893	 1.180846
C	 0.160891	 -1.019931	 0.106212
C	 1.589627	 -0.672828	 0.480843
H	 0.089836	 -1.367806	 -0.916050
H	 -0.238459	 -1.792301	 0.749618
C	 2.246377	 0.346236	 -0.452210
H	 2.163194	 -1.597435	 0.473358
H	 1.604769	 -0.303424	 1.502885
C	 2.792248	 -0.293688	 -1.727954
H	 1.519618	 1.112520	 -0.714374
H	 3.050227	 0.849588	 0.074875
H	 3.253302	 0.448552	 -2.371804
H	 2.002268	 -0.778294	 -2.294846
H	 3.542966	 -1.044841	 -1.499330

	symmetry c1
}
set optking {
	frozen_dihedral = ("
		16 12 9 8
	")
}

ee = optimize('scf')
oeprop('DIPOLE', 'QUADRUPOLE', 'MULLIKEN_CHARGES')
f=open( 'psi4out.xyz', 'w' )
f.write( "20  " )
f.write( str(ee) + "\n" )
f.write( MOL.save_string_xyz() )
f.close()
--------------------------------------------------------------------------

    Molecular point group: c1
  Charge       = 0
  Multiplicity = 1
  Basis Set: 6-31G*
  Basis Set:
  @DF-RHF Final Energy:  -383.94323692439292
    Total Energy =                       -383.9432369243930907
    Molecular point group: c1
  Basis Set: 6-31G*
  Basis Set:
  Basis Set: 6-31G*
  Basis Set:
  @DF-RHF Final Energy:  -383.94331876437417
    Total Energy =                       -383.9433187643742258
  Basis Set: 6-31G*
  Basis Set:
  Basis Set: 6-31G*
  Basis Set:
  @DF-RHF Final Energy:  -383.94322898131469
    Total Energy =                       -383.9432289813146326
  Basis Set: 6-31G*
  Basis Set:
  Basis Set: 6-31G*
  Basis Set:
  @DF-RHF Final Energy:  -383.94343684387957
    Total Energy =                       -383.9434368438792262
  Basis Set: 6-31G*
  Basis Set:
  Basis Set: 6-31G*
  Basis Set:
  @DF-RHF Final Energy:  -383.94343918645643
    Total Energy =                       -383.9434391864565441
  Basis Set: 6-31G*
  Basis Set:
  Charge       = 0
  Multiplicity = 1
  Basis Set: 6-31G*
  Basis Set:

    Orbital Energies (a.u.)
    -----------------------

    Doubly Occupied:

       1A    -20.602088     2A    -20.544313     3A    -11.374790
       4A    -11.282334     5A    -11.233597     6A    -11.225414
       7A    -11.220507     8A    -11.213437     9A     -1.468257
      10A     -1.362523    11A     -1.085397    12A     -1.027306
      13A     -0.979338    14A     -0.886631    15A     -0.809232
      16A     -0.771022    17A     -0.690757    18A     -0.687686
      19A     -0.665730    20A     -0.621997    21A     -0.614443
      22A     -0.580399    23A     -0.574961    24A     -0.562271
      25A     -0.537516    26A     -0.527283    27A     -0.520328
      28A     -0.481917    29A     -0.474371    30A     -0.469305
      31A     -0.448448    32A     -0.438921

  @DF-RHF Final Energy:  -383.94343950401912

   => Energetics <=

    Nuclear Repulsion Energy =            388.7650915427841483
    One-Electron Energy =               -1293.4520290424861741
    Two-Electron Energy =                 520.7434979956826737
    DFT Exchange-Correlation Energy =       0.0000000000000000
    Empirical Dispersion Energy =           0.0000000000000000
    PCM Polarization Energy =               0.0000000000000000
    EFP Energy =                            0.0000000000000000
    Total Energy =                       -383.9434395040193522
    Molecular point group: c1
  Basis Set: 6-31G*
  Basis Set:

  -Total Gradient:
     Atom            X                  Y                   Z
    ------   -----------------  -----------------  -----------------
       1        0.000023411063     0.000014289028    -0.000016043397
       2       -0.000022587616    -0.000007971512     0.000033710012
       3       -0.000001240810     0.000001454272    -0.000003862419
       4        0.000011412351    -0.000000249535    -0.000034374715
       5       -0.000001468911     0.000005717423    -0.000002245765
       6       -0.000000560637     0.000001448521    -0.000000090099
       7        0.000002859508    -0.000003968831    -0.000004293093
       8       -0.000652402736     0.001409718637     0.001124941835
       9        0.000727973215    -0.002294000119    -0.001995434503
      10       -0.000007945316    -0.000005085578    -0.000025597504
      11        0.000014709244    -0.000005374624    -0.000011690970
      12        0.000637557504     0.002279735060     0.002901309992
      13        0.000006298051     0.000015684751    -0.000019935646
      14        0.000007655065     0.000011551255     0.000004980393
      15       -0.000012859353    -0.000014714276     0.000024370423
      16       -0.000722785446    -0.001402977626    -0.001992453064
      17        0.000000430516    -0.000009881288     0.000007142644
      18       -0.000006702726     0.000013658418     0.000009336934
      19       -0.000008943864    -0.000009694568     0.000001450049
      20        0.000005190894     0.000000660593    -0.000001221106

  **** Optimization is complete! (in 6 steps) ****
    Final optimized geometry and variables:
    Molecular point group: c1

    Geometry (in Angstrom), charge = 0, multiplicity = 1:

    O           -2.329809930020    -0.806433357817    -0.217905732761
    C           -1.811137812405     0.189252874548     0.171830401707
    C           -2.515359233316     1.501610977003     0.387270087176
    O           -0.523277424265     0.275598901371     0.473281831470
    H           -2.059476225775     2.267517539077    -0.229563284050
    H           -3.560281647848     1.397644362074     0.135922584178
    H           -2.410567115700     1.807772949256     1.421706012096
    C            0.270638264092    -0.897143424767     0.316876067322
    C            1.699172984336    -0.545362351221     0.695121840835
    H            0.188596102450    -1.242236388839    -0.704903387158
    H           -0.123355531749    -1.672631767584     0.959877405820
    C            2.374064611367     0.461995591457    -0.246990902245
    H            2.276082537835    -1.466557237176     0.729587523546
    H            1.683666601308    -0.150212359097     1.706586899639
    C            2.938433600867    -0.179373504604    -1.516991052796
    H            1.655861610499     1.226114307455    -0.526107812764
    H            3.178226433155     0.962869635021     0.283442677852
    H            3.388145175397     0.568282427883    -2.162853421549
    H            2.166247996201    -0.682761773768    -2.091478120894
    H            3.703068765383    -0.913363481765    -1.278589604083

  Mulliken Charges: (a.u.)
   Center  Symbol    Alpha    Beta     Spin     Total
       1     O     4.28317  4.28317  0.00000 -0.56633
       2     C     2.61955  2.61955  0.00000  0.76091
       3     C     3.28165  3.28165  0.00000 -0.56331
       4     O     4.30823  4.30823  0.00000 -0.61647
       5     H     0.40086  0.40086  0.00000  0.19828
       6     H     0.39684  0.39684  0.00000  0.20633
       7     H     0.40046  0.40046  0.00000  0.19908
       8     C     3.00429  3.00429  0.00000 -0.00858
       9     C     3.16666  3.16666  0.00000 -0.33332
      10     H     0.40964  0.40964  0.00000  0.18072
      11     H     0.40854  0.40854  0.00000  0.18291
      12     C     3.15865  3.15865  0.00000 -0.31729
      13     H     0.41740  0.41740  0.00000  0.16519
      14     H     0.41220  0.41220  0.00000  0.17559
      15     C     3.24219  3.24219  0.00000 -0.48437
      16     H     0.41181  0.41181  0.00000  0.17639
      17     H     0.41805  0.41805  0.00000  0.16391
      18     H     0.41753  0.41753  0.00000  0.16494
      19     H     0.42090  0.42090  0.00000  0.15820
      20     H     0.42139  0.42139  0.00000  0.15722

   Total alpha = 32.00000, Total beta = 32.00000, Total charge = -0.00000
