  ==> Input File <==

--------------------------------------------------------------------------
set {
	reference rhf
	basis cc-pvtz
}

set_num_threads( 4 )
memory 2 gb

molecule MOL {
0 1

H	 1.033986	 -1.662456	 -0.774804
C	 0.385881	 -0.804371	 -0.962152
N	 -0.537714	 -0.645117	 0.000000
O	 0.519659	 -0.115889	 -1.923825
C	 -1.522613	 0.412524	 0.000000
H	 -0.533823	 -1.295258	 0.746515
H	 -2.150256	 0.356137	 -0.880771
H	 -1.005621	 1.357208	 0.000000
H	 -2.150256	 0.356137	 0.880771

	symmetry c1
}
set optking {
	frozen_dihedral = ("
		6 3 5 7
	")
}

ee = optimize('scf')
oeprop('DIPOLE', 'QUADRUPOLE', 'MULLIKEN_CHARGES')
f=open( 'psi4out.xyz', 'w' )
f.write( "9  " )
f.write( str(ee) + "\n" )
f.write( MOL.save_string_xyz() )
f.close()
--------------------------------------------------------------------------

    Molecular point group: c1
  Charge       = 0
  Multiplicity = 1
  Basis Set: CC-PVTZ
  Basis Set:
  @DF-RHF Final Energy:  -208.04305290815410
    Total Energy =                       -208.0430529081541522
    Molecular point group: c1
  Basis Set: CC-PVTZ
  Basis Set:
  Basis Set: CC-PVTZ
  Basis Set:
  @DF-RHF Final Energy:  -208.04359478835744
    Total Energy =                       -208.0435947883574954
  Basis Set: CC-PVTZ
  Basis Set:
  Basis Set: CC-PVTZ
  Basis Set:
  @DF-RHF Final Energy:  -208.04363896485029
    Total Energy =                       -208.0436389648502882
  Basis Set: CC-PVTZ
  Basis Set:
  Basis Set: CC-PVTZ
  Basis Set:
  @DF-RHF Final Energy:  -208.04361171572299
    Total Energy =                       -208.0436117157229887
  Basis Set: CC-PVTZ
  Basis Set:
  Charge       = 0
  Multiplicity = 1
  Basis Set: CC-PVTZ
  Basis Set:

    Orbital Energies (a.u.)
    -----------------------

    Doubly Occupied:

       1A    -20.516595     2A    -15.584348     3A    -11.335900
       4A    -11.260603     5A     -1.393963     6A     -1.239318
       7A     -0.969791     8A     -0.809336     9A     -0.749195
      10A     -0.645796    11A     -0.629945    12A     -0.596216
      13A     -0.559732    14A     -0.536734    15A     -0.428174
      16A     -0.396737

  @DF-RHF Final Energy:  -208.04366278804679

   => Energetics <=

    Nuclear Repulsion Energy =            122.9459115037089418
    One-Electron Energy =                -526.6743796886191831
    Two-Electron Energy =                 195.6848053968634815
    DFT Exchange-Correlation Energy =       0.0000000000000000
    Empirical Dispersion Energy =           0.0000000000000000
    PCM Polarization Energy =               0.0000000000000000
    EFP Energy =                            0.0000000000000000
    Total Energy =                       -208.0436627880467597
    Molecular point group: c1
  Basis Set: CC-PVTZ
  Basis Set:

  -Total Gradient:
     Atom            X                  Y                   Z
    ------   -----------------  -----------------  -----------------
       1        0.000032176912    -0.000016765953     0.000006491295
       2       -0.000008420356     0.000025958791    -0.000122943088
       3       -0.000089856730     0.000051961400     0.000011521375
       4        0.000029973707    -0.000035175116     0.000068371465
       5        0.000054566380    -0.000108797029     0.000004226591
       6        0.000007672193     0.000017691694     0.000011928891
       7       -0.000011527958     0.000013601967     0.000016477672
       8       -0.000004115095     0.000040977281    -0.000000023622
       9       -0.000010469055     0.000010546965     0.000003949419

  **** Optimization is complete! (in 5 steps) ****
    Final optimized geometry and variables:
    Molecular point group: c1

    Geometry (in Angstrom), charge = 0, multiplicity = 1:

    H            1.340838527351    -1.387015975257    -0.075399286468
    C            0.684849854854    -0.530883845814    -0.244100133816
    N           -0.231799384802    -0.376653398341     0.722967775895
    O            0.795880680244     0.174370214854    -1.196654678053
    C           -1.201666309123     0.695631930335     0.701335252914
    H           -0.233265059927    -1.020240463223     1.473825009705
    H           -1.824650935100     0.636274522310    -0.180614748298
    H           -0.712700777349     1.660278123855     0.706045963172
    H           -1.827078880505     0.615048973170     1.578533451212

  Mulliken Charges: (a.u.)
   Center  Symbol    Alpha    Beta     Spin     Total
       1     H     0.46453  0.46453  0.00000  0.07094
       2     C     2.87934  2.87934  0.00000  0.24133
       3     N     3.60559  3.60559  0.00000 -0.21118
       4     O     4.21440  4.21440  0.00000 -0.42880
       5     C     3.07475  3.07475  0.00000 -0.14950
       6     H     0.40993  0.40993  0.00000  0.18014
       7     H     0.44836  0.44836  0.00000  0.10328
       8     H     0.44844  0.44844  0.00000  0.10312
       9     H     0.45467  0.45467  0.00000  0.09066

   Total alpha = 16.00000, Total beta = 16.00000, Total charge =  0.00000
