  ==> Input File <==

--------------------------------------------------------------------------
set {
	reference rhf
	basis cc-pvtz
}

set_num_threads( 4 )
memory 2 gb

molecule MOL {
0 1

H	 -3.144994	 -1.202467	 -0.018751
O	 -2.321472	 -0.864941	 -0.318626
C	 -2.021813	 0.336996	 0.342658
C	 -0.669613	 0.837286	 -0.127252
H	 -2.780861	 1.084746	 0.127159
H	 -2.006390	 0.184138	 1.420053
C	 0.490865	 -0.082543	 0.241244
H	 -0.708709	 0.967192	 -1.204587
H	 -0.507562	 1.822272	 0.303070
C	 0.374848	 -1.469937	 -0.383484
H	 0.544582	 -0.173702	 1.320068
H	 1.425126	 0.376020	 -0.076559
C	 1.538198	 -2.387396	 -0.022001
H	 -0.557043	 -1.928985	 -0.064805
H	 0.313373	 -1.376214	 -1.464745
H	 1.604347	 -2.529197	 1.051514
H	 1.425726	 -3.364229	 -0.478566
H	 2.482950	 -1.972468	 -0.357744

	symmetry c1
}
set optking {
	frozen_dihedral = ("
		10 7 4 8
	")
}

ee = optimize('scf')
oeprop('DIPOLE', 'QUADRUPOLE', 'MULLIKEN_CHARGES')
f=open( 'psi4out.xyz', 'w' )
f.write( "18  " )
f.write( str(ee) + "\n" )
f.write( MOL.save_string_xyz() )
f.close()
--------------------------------------------------------------------------

    Molecular point group: c1
  Charge       = 0
  Multiplicity = 1
  Basis Set: CC-PVTZ
  Basis Set:
  @DF-RHF Final Energy:  -271.27830739779364
    Total Energy =                       -271.2783073977938102
    Molecular point group: c1
  Basis Set: CC-PVTZ
  Basis Set:
  Basis Set: CC-PVTZ
  Basis Set:
  @DF-RHF Final Energy:  -271.28297143991472
    Total Energy =                       -271.2829714399147178
  Basis Set: CC-PVTZ
  Basis Set:
  Basis Set: CC-PVTZ
  Basis Set:
  @DF-RHF Final Energy:  -271.28356968204321
    Total Energy =                       -271.2835696820432645
  Basis Set: CC-PVTZ
  Basis Set:
  Basis Set: CC-PVTZ
  Basis Set:
  @DF-RHF Final Energy:  -271.28368822187360
    Total Energy =                       -271.2836882218738310
  Basis Set: CC-PVTZ
  Basis Set:
  @DF-RHF Final Energy:  -271.28370506345811
    Total Energy =                       -271.2837050634578873
  Basis Set: CC-PVTZ
  Basis Set:
  @DF-RHF Final Energy:  -271.28371351778384
    Total Energy =                       -271.2837135177839514
  Basis Set: CC-PVTZ
  Basis Set:
  Basis Set: CC-PVTZ
  Basis Set:
  @DF-RHF Final Energy:  -271.28371847055553
    Total Energy =                       -271.2837184705553568
  Basis Set: CC-PVTZ
  Basis Set:
  Basis Set: CC-PVTZ
  Basis Set:
  @DF-RHF Final Energy:  -271.28372103391484
    Total Energy =                       -271.2837210339149578
  Basis Set: CC-PVTZ
  Basis Set:
  Charge       = 0
  Multiplicity = 1
  Basis Set: CC-PVTZ
  Basis Set:

    Orbital Energies (a.u.)
    -----------------------

    Doubly Occupied:

       1A    -20.546863     2A    -11.267090     3A    -11.211987
       4A    -11.208254     5A    -11.200694     6A    -11.199007
       7A     -1.364874     8A     -1.073483     9A     -1.007633
      10A     -0.913866    11A     -0.826765    12A     -0.773880
      13A     -0.705507    14A     -0.651434    15A     -0.617765
      16A     -0.575830    17A     -0.573658    18A     -0.556876
      19A     -0.529423    20A     -0.507101    21A     -0.487250
      22A     -0.462922    23A     -0.454309    24A     -0.448082
      25A     -0.428321

  @DF-RHF Final Energy:  -271.28372156171747

   => Energetics <=

    Nuclear Repulsion Energy =            254.3793051125104796
    One-Electron Energy =                -872.1403019792506939
    Two-Electron Energy =                 346.4772753050228857
    DFT Exchange-Correlation Energy =       0.0000000000000000
    Empirical Dispersion Energy =           0.0000000000000000
    PCM Polarization Energy =               0.0000000000000000
    EFP Energy =                            0.0000000000000000
    Total Energy =                       -271.2837215617173570
    Molecular point group: c1
  Basis Set: CC-PVTZ
  Basis Set:

  -Total Gradient:
     Atom            X                  Y                   Z
    ------   -----------------  -----------------  -----------------
       1       -0.000000376192     0.000006976303    -0.000003535540
       2        0.000001539104    -0.000001776645     0.000007078309
       3        0.000005550732    -0.000003696717    -0.000008934868
       4       -0.001089270844    -0.001274373491     0.000193358997
       5        0.000002041630     0.000003062768     0.000003023497
       6        0.000001833465    -0.000000648100     0.000004847765
       7        0.000806378998     0.000623504038    -0.000977480936
       8        0.000713529309     0.000921407587     0.000086484717
       9       -0.000001697739     0.000002759906     0.000002051494
      10       -0.000456075852    -0.000279871699     0.000691922007
      11       -0.000000312403    -0.000001843637    -0.000000480910
      12       -0.000000270992     0.000001476411    -0.000000285899
      13        0.000012401876     0.000000562051    -0.000000301702
      14        0.000005238996     0.000002659982    -0.000000152240
      15        0.000001854999    -0.000000130825     0.000002624356
      16       -0.000002721187    -0.000000082661    -0.000000795114
      17       -0.000000194044     0.000000765054    -0.000000104947
      18        0.000000550146    -0.000000750324     0.000000681013

  **** Optimization is complete! (in 9 steps) ****
    Final optimized geometry and variables:
    Molecular point group: c1

    Geometry (in Angstrom), charge = 0, multiplicity = 1:

    H           -2.914828023709    -0.309553211023    -0.062432366380
    O           -2.055200825188    -0.073475468083    -0.358399521460
    C           -1.558635694516     0.991606060364     0.410730082747
    C           -0.178880869095     1.394791885064    -0.079945653972
    H           -2.224537351573     1.846868716862     0.329405932952
    H           -1.510906221030     0.713241551241     1.462060821824
    C            0.979835412502     0.466050391333     0.291396337817
    H           -0.220376804444     1.530567450884    -1.156426756620
    H            0.032623205746     2.373694324449     0.341912074126
    C            0.934372187949    -0.943363234048    -0.296370645569
    H            1.039380438835     0.395856281901     1.375885907311
    H            1.901939384034     0.945666023125    -0.026601119028
    C            2.184462335589    -1.750480165133     0.039943456038
    H            0.056804660901    -1.464605494980     0.061779641323
    H            0.824503834404    -0.878730403782    -1.375026036258
    H            2.307957799821    -1.853983808311     1.113452510831
    H            2.132274822942    -2.747571129323    -0.382488144945
    H            3.078844070855    -1.273823122895    -0.348427157971

  Mulliken Charges: (a.u.)
   Center  Symbol    Alpha    Beta     Spin     Total
       1     H     0.39616  0.39616  0.00000  0.20769
       2     O     4.19725  4.19725  0.00000 -0.39451
       3     C     2.97758  2.97758  0.00000  0.04484
       4     C     3.09754  3.09754  0.00000 -0.19508
       5     H     0.46135  0.46135  0.00000  0.07729
       6     H     0.47203  0.47203  0.00000  0.05593
       7     C     3.09582  3.09582  0.00000 -0.19165
       8     H     0.45078  0.45078  0.00000  0.09844
       9     H     0.44860  0.44860  0.00000  0.10280
      10     C     3.07836  3.07836  0.00000 -0.15672
      11     H     0.45692  0.45692  0.00000  0.08616
      12     H     0.45107  0.45107  0.00000  0.09786
      13     C     3.15052  3.15052  0.00000 -0.30104
      14     H     0.44823  0.44823  0.00000  0.10355
      15     H     0.45430  0.45430  0.00000  0.09140
      16     H     0.45747  0.45747  0.00000  0.08506
      17     H     0.44902  0.44902  0.00000  0.10196
      18     H     0.45699  0.45699  0.00000  0.08601

   Total alpha = 25.00000, Total beta = 25.00000, Total charge = -0.00000
