  ==> Input File <==

--------------------------------------------------------------------------
set {
	reference rhf
	basis 6-31G*
}

set_num_threads( 4 )
memory 2 gb

molecule MOL {
0 1

H	 1.949979	 1.551020	 -0.647815
O	 1.065723	 1.199182	 -0.680798
C	 1.050492	 0.053836	 0.000068
C	 -0.318135	 -0.576402	 0.000164
O	 2.021815	 -0.381128	 0.527643
C	 -1.454360	 0.441875	 -0.000474
H	 -0.374042	 -1.230163	 -0.866135
H	 -0.374274	 -1.229227	 0.867154
C	 -2.826123	 -0.230780	 0.000056
H	 -1.357605	 1.085198	 -0.868380
H	 -1.357504	 1.086451	 0.866496
H	 -2.959731	 -0.858053	 -0.876869
H	 -3.619374	 0.509403	 -0.000080
H	 -2.959371	 -0.857318	 0.877556

	symmetry c1
}
set optking {
	frozen_dihedral = ("
		2 3 4 7
	")
}

ee = optimize('scf')
oeprop('DIPOLE', 'QUADRUPOLE', 'MULLIKEN_CHARGES')
f=open( 'psi4out.xyz', 'w' )
f.write( "14  " )
f.write( str(ee) + "\n" )
f.write( MOL.save_string_xyz() )
f.close()
--------------------------------------------------------------------------

    Molecular point group: c1
  Charge       = 0
  Multiplicity = 1
  Basis Set: 6-31G*
  Basis Set:
  @DF-RHF Final Energy:  -305.87808692186400
    Total Energy =                       -305.8780869218638827
    Molecular point group: c1
  Basis Set: 6-31G*
  Basis Set:
  Basis Set: 6-31G*
  Basis Set:
  @DF-RHF Final Energy:  -305.87837666536376
    Total Energy =                       -305.8783766653639304
  Basis Set: 6-31G*
  Basis Set:
  Basis Set: 6-31G*
  Basis Set:
  @DF-RHF Final Energy:  -305.87866380974089
    Total Energy =                       -305.8786638097410560
  Basis Set: 6-31G*
  Basis Set:
  Basis Set: 6-31G*
  Basis Set:
  @DF-RHF Final Energy:  -305.87872871445137
    Total Energy =                       -305.8787287144513130
  Basis Set: 6-31G*
  Basis Set:
  Basis Set: 6-31G*
  Basis Set:
  @DF-RHF Final Energy:  -305.87873359027174
    Total Energy =                       -305.8787335902719633
  Basis Set: 6-31G*
  Basis Set:
  Basis Set: 6-31G*
  Basis Set:
  @DF-RHF Final Energy:  -305.87873800845489
    Total Energy =                       -305.8787380084548886
  Basis Set: 6-31G*
  Basis Set:
  Charge       = 0
  Multiplicity = 1
  Basis Set: 6-31G*
  Basis Set:

    Orbital Energies (a.u.)
    -----------------------

    Doubly Occupied:

       1A    -20.614783     2A    -20.548836     3A    -11.381450
       4A    -11.241178     5A    -11.231208     6A    -11.219835
       7A     -1.475521     8A     -1.364716     9A     -1.085402
      10A     -0.978570    11A     -0.846891    12A     -0.817335
      13A     -0.699811    14A     -0.682352    15A     -0.659592
      16A     -0.620286    17A     -0.591065    18A     -0.564487
      19A     -0.550345    20A     -0.523128    21A     -0.498021
      22A     -0.489064    23A     -0.470997    24A     -0.437199

  @DF-RHF Final Energy:  -305.87873802970194

   => Energetics <=

    Nuclear Repulsion Energy =            240.3761635698915597
    One-Electron Energy =                -893.3256596703868126
    Two-Electron Energy =                 347.0707580707933744
    DFT Exchange-Correlation Energy =       0.0000000000000000
    Empirical Dispersion Energy =           0.0000000000000000
    PCM Polarization Energy =               0.0000000000000000
    EFP Energy =                            0.0000000000000000
    Total Energy =                       -305.8787380297018785
    Molecular point group: c1
  Basis Set: 6-31G*
  Basis Set:

  -Total Gradient:
     Atom            X                  Y                   Z
    ------   -----------------  -----------------  -----------------
       1        0.000005754521     0.000013335319    -0.000005675338
       2       -0.000141273097     0.000396678321     0.000665119472
       3        0.000295957823    -0.000719681044    -0.000792835713
       4       -0.000428509708     0.000981202374    -0.000364970170
       5       -0.000009743300     0.000034350722    -0.000011480970
       6       -0.000013665131    -0.000000460821     0.000014337017
       7        0.000306498288    -0.000713110865     0.000500202086
       8       -0.000003789747    -0.000000364723    -0.000001664354
       9       -0.000001925460     0.000006384850    -0.000007635638
      10       -0.000004406141    -0.000001652925     0.000006503964
      11       -0.000006188755     0.000003512109     0.000000677386
      12       -0.000000591121    -0.000002556907    -0.000000870582
      13       -0.000000949513    -0.000000944632    -0.000001906731
      14        0.000002831343     0.000003308220     0.000000199567

  **** Optimization is complete! (in 7 steps) ****
    Final optimized geometry and variables:
    Molecular point group: c1

    Geometry (in Angstrom), charge = 0, multiplicity = 1:

    H            2.087019442096     1.408528396050    -0.583319708662
    O            1.182741056061     1.111979321861    -0.622198800867
    C            1.103102721171    -0.043041057349     0.035380893523
    C           -0.279563725760    -0.647024140374     0.022204902795
    O            2.051481290185    -0.538344329994     0.552579503233
    C           -1.440064412730     0.350527707015     0.015648195397
    H           -0.327495428002    -1.285523043704    -0.857718431585
    H           -0.332295152370    -1.305743774092     0.880450963951
    C           -2.793625452513    -0.357402475577     0.051014617013
    H           -1.375183541777     0.978161193740    -0.865252221533
    H           -1.353272256471     1.011711887712     0.873347959285
    H           -2.920770573885    -1.006008563512    -0.811107384097
    H           -3.606215134017     0.361526730219     0.046129851881
    H           -2.897160815185    -0.968311642618     0.942970847371

  Mulliken Charges: (a.u.)
   Center  Symbol    Alpha    Beta     Spin     Total
       1     H     0.26724  0.26724  0.00000  0.46551
       2     O     4.34758  4.34758  0.00000 -0.69515
       3     C     2.62430  2.62430  0.00000  0.75139
       4     C     3.20880  3.20880  0.00000 -0.41760
       5     O     4.28162  4.28162  0.00000 -0.56324
       6     C     3.15712  3.15712  0.00000 -0.31423
       7     H     0.39928  0.39928  0.00000  0.20145
       8     H     0.39609  0.39609  0.00000  0.20782
       9     C     3.24276  3.24276  0.00000 -0.48553
      10     H     0.40663  0.40663  0.00000  0.18673
      11     H     0.41531  0.41531  0.00000  0.16939
      12     H     0.41978  0.41978  0.00000  0.16044
      13     H     0.41455  0.41455  0.00000  0.17090
      14     H     0.41894  0.41894  0.00000  0.16211

   Total alpha = 24.00000, Total beta = 24.00000, Total charge = -0.00000
