                              Psi4 1.0.54 Driver

  ==> Input File <==

--------------------------------------------------------------------------
set {
	reference rhf
	basis cc-pvtz
}

set_num_threads( 4 )
memory 2 gb

molecule MOL {
0 1

O	 1.847685	 1.294399	 -0.000190
C	 1.704209	 0.119472	 -0.000093
C	 0.380337	 -0.600947	 -0.000234
O	 2.715427	 -0.733672	 0.000025
C	 -0.824290	 0.329213	 -0.000115
H	 0.371455	 -1.255476	 -0.865660
H	 0.371410	 -1.255787	 0.864952
C	 -0.769161	 1.350625	 -1.132235
H	 -0.881125	 0.840108	 0.954364
H	 -1.730744	 -0.260110	 -0.079678
C	 -1.969648	 2.292447	 -1.148774
H	 0.143418	 1.936599	 -1.048066
H	 -0.709058	 0.831759	 -2.086386
C	 -1.914363	 3.313627	 -2.279945
H	 -2.030092	 2.811931	 -0.196598
H	 -2.881597	 1.708352	 -1.234456
H	 -1.029692	 3.936950	 -2.202092
H	 -2.780034	 3.965583	 -2.262611
H	 -1.888331	 2.824660	 -3.248174
C	 4.020999	 -0.192556	 0.000019
H	 4.182809	 0.412891	 -0.879449
H	 4.692590	 -1.035653	 0.000152
H	 4.182726	 0.413087	 0.879368

	symmetry c1
}
set optking {
	frozen_dihedral = ("
		9 5 3 6
	")
}

ee,wfn = optimize('scf', return_wfn=True)
oeprop( wfn, 'DIPOLE', 'QUADRUPOLE', 'MULLIKEN_CHARGES')
f=open( 'psi4out.xyz', 'w' )
f.write( "23  " )
f.write( str(ee) + "\n" )
f.write( MOL.save_string_xyz() )
f.close()
--------------------------------------------------------------------------

    Molecular point group: c1
  Charge       = 0
  Multiplicity = 1
  Basis Set: CC-PVTZ
  Basis Set:
  @DF-RHF Final Energy:  -423.12458057850085
    Total Energy =                       -423.1245805785010816
    Molecular point group: c1
  Basis Set: CC-PVTZ
  Basis Set:
  Basis Set: CC-PVTZ
  Basis Set:
  @DF-RHF Final Energy:  -423.12851529966133
    Total Energy =                       -423.1285152996621264
  Basis Set: CC-PVTZ
  Basis Set:
  Basis Set: CC-PVTZ
  Basis Set:
  @DF-RHF Final Energy:  -423.12854455063007
    Total Energy =                       -423.1285445506306360
  Basis Set: CC-PVTZ
  Basis Set:
  Basis Set: CC-PVTZ
  Basis Set:
  @DF-RHF Final Energy:  -423.12898926954000
    Total Energy =                       -423.1289892695397157
  Basis Set: CC-PVTZ
  Basis Set:
  @DF-RHF Final Energy:  -423.12933739897403
    Total Energy =                       -423.1293373989738029
  @DF-RHF Final Energy:  -423.12941027665244
    Total Energy =                       -423.1294102766528340
  @DF-RHF Final Energy:  -423.12945851805426
    Total Energy =                       -423.1294585180538661
  @DF-RHF Final Energy:  -423.12954155719689
    Total Energy =                       -423.1295415571967169
  Basis Set: CC-PVTZ
  Basis Set:
  @DF-RHF Final Energy:  -423.12959840298419
    Total Energy =                       -423.1295984029840156
  Basis Set: CC-PVTZ
  Basis Set:
  Basis Set: CC-PVTZ
  Basis Set:
  @DF-RHF Final Energy:  -423.12963251627673
    Total Energy =                       -423.1296325162768426
  Basis Set: CC-PVTZ
  Basis Set:
  Basis Set: CC-PVTZ
  Basis Set:
  @DF-RHF Final Energy:  -423.12963418621615
    Total Energy =                       -423.1296341862156396
  Basis Set: CC-PVTZ
  Basis Set:
  Charge       = 0
  Multiplicity = 1
  Basis Set: CC-PVTZ
  Basis Set:

    Orbital Energies (a.u.)
    -----------------------

    Doubly Occupied:

       1A    -20.597752     2A    -20.533488     3A    -11.365403
       4A    -11.278969     5A    -11.234063     6A    -11.219479
       7A    -11.211610     8A    -11.209541     9A    -11.204510
      10A     -1.473081    11A     -1.366013    12A     -1.092055
      13A     -1.042642    14A     -0.987008    15A     -0.932037
      16A     -0.844701    17A     -0.795324    18A     -0.768380
      19A     -0.702284    20A     -0.683750    21A     -0.675061
      22A     -0.643002    23A     -0.612189    24A     -0.601027
      25A     -0.569624    26A     -0.561779    27A     -0.553067
      28A     -0.529220    29A     -0.524505    30A     -0.502635
      31A     -0.491007    32A     -0.469344    33A     -0.464678
      34A     -0.458289    35A     -0.453118    36A     -0.437310

  @DF-RHF Final Energy:  -423.12963438336647

   => Energetics <=

    Nuclear Repulsion Energy =            464.2038737304301321
    One-Electron Energy =               -1496.4911199276111802
    Two-Electron Energy =                 609.1576118138145830
    DFT Exchange-Correlation Energy =       0.0000000000000000
    Empirical Dispersion Energy =           0.0000000000000000
    PCM Polarization Energy =               0.0000000000000000
    EFP Energy =                            0.0000000000000000
    Total Energy =                       -423.1296343833664650
    Molecular point group: c1
  Basis Set: CC-PVTZ
  Basis Set:

  -Total Gradient:
     Atom            X                  Y                   Z
    ------   -----------------  -----------------  -----------------
       1       -0.000028866833    -0.000014653004    -0.000001025916
       2        0.000019261847     0.000068296349     0.000015415053
       3        0.001813497853     0.002247624746    -0.001931025318
       4        0.000012777084    -0.000036028605    -0.000004375629
       5        0.001918276088     0.002401856831    -0.001023254340
       6       -0.001791479192    -0.002256944335     0.001748674791
       7       -0.000001009681     0.000005712174    -0.000002463124
       8       -0.000017690361    -0.000011041090    -0.000015659653
       9       -0.001937539982    -0.002410813498     0.001207520058
      10        0.000008897964    -0.000003309581     0.000003410131
      11        0.000002760051     0.000012285521     0.000007610019
      12        0.000017043098     0.000006500285     0.000004270288
      13        0.000005016609     0.000005207182     0.000001962642
      14       -0.000000020567    -0.000009842430    -0.000002574248
      15        0.000002022693    -0.000001172751     0.000000744590
      16       -0.000000020549     0.000000903655    -0.000001989874
      17       -0.000000523026    -0.000000373601     0.000003424204
      18       -0.000001096301    -0.000002587968     0.000001450496
      19        0.000001356507     0.000000080918    -0.000002447612
      20       -0.000023626073     0.000001779154    -0.000012176344
      21        0.000002096016     0.000007075046    -0.000000389370
      22        0.000004283909    -0.000012108002    -0.000004147899
      23       -0.000005417146     0.000001553005     0.000007047053

  **** Optimization is complete! (in 12 steps) ****
    Final optimized geometry and variables:
    Molecular point group: c1

    Geometry (in Angstrom), charge = 0, multiplicity = 1:

    O            1.354512134504     0.353268596428     1.065331704342
    C            1.143405605531    -0.710450954624     0.589327455231
    C           -0.212153585842    -1.361495190239     0.488142037287
    O            2.098293358329    -1.495751588509     0.121289726631
    C           -1.396042402705    -0.399058003205     0.513383514948
    H           -0.242528444097    -2.009386954037    -0.378299361712
    H           -0.270772396710    -2.027708675225     1.345381003551
    C           -1.423656626116     0.611873555264    -0.629350097244
    H           -1.429330918654     0.105538107613     1.471912798356
    H           -2.296946127321    -1.004832975014     0.467133947518
    C           -2.665650060695     1.498455308738    -0.604647560822
    H           -0.539253573001     1.236459512513    -0.584645843171
    H           -1.384549021319     0.079352681702    -1.577845048236
    C           -2.700082571124     2.509386898978    -1.745798994142
    H           -2.707914716487     2.025699198713     0.344198333074
    H           -3.555509537774     0.875972121341    -0.648133535942
    H           -1.840630835330     3.170106370544    -1.707953398449
    H           -3.591960111112     3.123742894106    -1.699394126208
    H           -2.691248466346     2.011983544829    -2.710153216556
    C            3.429009628987    -1.029993047729     0.223029225742
    H            3.552716613895    -0.107766920071    -0.324863825836
    H            4.047878102445    -1.802547749647    -0.203586131013
    H            3.697164639799    -0.864967318293     1.256048431999

  Mulliken Charges: (a.u.)
   Center  Symbol    Alpha    Beta     Spin     Total
       1     O     4.20196  4.20196  0.00000 -0.40392
       2     C     2.80164  2.80164  0.00000  0.39672
       3     C     3.11083  3.11083  0.00000 -0.22166
       4     O     4.14569  4.14569  0.00000 -0.29137
       5     C     3.08872  3.08872  0.00000 -0.17743
       6     H     0.43605  0.43605  0.00000  0.12790
       7     H     0.43615  0.43615  0.00000  0.12771
       8     C     3.09282  3.09282  0.00000 -0.18564
       9     H     0.44623  0.44623  0.00000  0.10754
      10     H     0.44845  0.44845  0.00000  0.10311
      11     C     3.08557  3.08557  0.00000 -0.17114
      12     H     0.44183  0.44183  0.00000  0.11634
      13     H     0.45726  0.45726  0.00000  0.08549
      14     C     3.14999  3.14999  0.00000 -0.29998
      15     H     0.45269  0.45269  0.00000  0.09461
      16     H     0.45573  0.45573  0.00000  0.08854
      17     H     0.45354  0.45354  0.00000  0.09292
      18     H     0.44882  0.44882  0.00000  0.10236
      19     H     0.45625  0.45625  0.00000  0.08750
      20     C     3.03604  3.03604  0.00000 -0.07208
      21     H     0.45409  0.45409  0.00000  0.09181
      22     H     0.44521  0.44521  0.00000  0.10958
      23     H     0.45445  0.45445  0.00000  0.09109

   Total alpha = 36.00000, Total beta = 36.00000, Total charge = -0.00000

*** Psi4 exiting successfully. Buy a developer a beer!
