                              Psi4 1.0.54 Driver

  ==> Input File <==

--------------------------------------------------------------------------
set {
	reference rhf
	basis cc-pvtz
}

set_num_threads( 4 )
memory 2 gb

molecule MOL {
0 1

H	 2.776379	 0.066793	 -0.342163
C	 1.948180	 -0.217873	 0.320185
C	 0.692262	 0.592428	 0.156232
O	 2.085809	 -1.102441	 1.092345
C	 -0.554654	 -0.292621	 0.086567
H	 0.791858	 1.203694	 -0.731051
H	 0.617379	 1.254358	 1.016534
C	 -1.846385	 0.513195	 -0.016346
H	 -0.473986	 -0.956115	 -0.769708
H	 -0.597929	 -0.929215	 0.966651
C	 -3.089953	 -0.365049	 -0.098564
H	 -1.798267	 1.154820	 -0.891143
H	 -1.925398	 1.173265	 0.842889
H	 -3.055079	 -1.012299	 -0.968245
H	 -3.988403	 0.236438	 -0.170014
H	 -3.183055	 -0.995885	 0.779079

	symmetry c1
}
set optking {
	frozen_dihedral = ("
		4 2 3 6
	")
}

ee,wfn = optimize('scf', return_wfn=True)
oeprop( wfn, 'DIPOLE', 'QUADRUPOLE', 'MULLIKEN_CHARGES')
f=open( 'psi4out.xyz', 'w' )
f.write( "16  " )
f.write( str(ee) + "\n" )
f.write( MOL.save_string_xyz() )
f.close()
--------------------------------------------------------------------------

    Molecular point group: c1
  Charge       = 0
  Multiplicity = 1
  Basis Set: CC-PVTZ
  Basis Set:
  @DF-RHF Final Energy:  -270.11746090431103
    Total Energy =                       -270.1174609043111445
    Molecular point group: c1
  Basis Set: CC-PVTZ
  Basis Set:
  Basis Set: CC-PVTZ
  Basis Set:
  @DF-RHF Final Energy:  -270.11761339130976
    Total Energy =                       -270.1176133913100443
  Basis Set: CC-PVTZ
  Basis Set:
  Basis Set: CC-PVTZ
  Basis Set:
  @DF-RHF Final Energy:  -270.11670765018323
    Total Energy =                       -270.1167076501832298
  Basis Set: CC-PVTZ
  Basis Set:
  Basis Set: CC-PVTZ
  Basis Set:
  @DF-RHF Final Energy:  -270.11781744982881
    Total Energy =                       -270.1178174498286353
  Basis Set: CC-PVTZ
  Basis Set:
  Basis Set: CC-PVTZ
  Basis Set:
  @DF-RHF Final Energy:  -270.11782741842268
    Total Energy =                       -270.1178274184228485
  Basis Set: CC-PVTZ
  Basis Set:
  Basis Set: CC-PVTZ
  Basis Set:
  @DF-RHF Final Energy:  -270.11783016718050
    Total Energy =                       -270.1178301671803865
  Basis Set: CC-PVTZ
  Basis Set:
  Charge       = 0
  Multiplicity = 1
  Basis Set: CC-PVTZ
  Basis Set:

    Orbital Energies (a.u.)
    -----------------------

    Doubly Occupied:

       1A    -20.552295     2A    -11.322759     3A    -11.234770
       4A    -11.224700     5A    -11.222150     6A    -11.211935
       7A     -1.407901     8A     -1.091101     9A     -1.015762
      10A     -0.907846    11A     -0.814189    12A     -0.778016
      13A     -0.683111    14A     -0.649720    15A     -0.632240
      16A     -0.601216    17A     -0.582287    18A     -0.545504
      19A     -0.529067    20A     -0.502895    21A     -0.483301
      22A     -0.480435    23A     -0.473656    24A     -0.411230

  @DF-RHF Final Energy:  -270.11783022237137

   => Energetics <=

    Nuclear Repulsion Energy =            231.6603742767871381
    One-Electron Energy =                -824.8402322828733304
    Two-Electron Energy =                 323.0620277837147682
    DFT Exchange-Correlation Energy =       0.0000000000000000
    Empirical Dispersion Energy =           0.0000000000000000
    PCM Polarization Energy =               0.0000000000000000
    EFP Energy =                            0.0000000000000000
    Total Energy =                       -270.1178302223714240
    Molecular point group: c1
  Basis Set: CC-PVTZ
  Basis Set:

  -Total Gradient:
     Atom            X                  Y                   Z
    ------   -----------------  -----------------  -----------------
       1        0.000004067799     0.000003338313     0.000013977118
       2       -0.000417587859    -0.001395502949    -0.001650031850
       3       -0.000409928902    -0.001059018350    -0.000674598558
       4        0.000362705295     0.001167723780     0.001310040453
       5        0.000003791272    -0.000009774776    -0.000018955290
       6        0.000461571311     0.001280150227     0.001009041651
       7       -0.000007598108     0.000011606468    -0.000001612370
       8        0.000000281873     0.000004808906     0.000024873824
       9       -0.000000619772    -0.000004725025    -0.000001276047
      10        0.000006822184     0.000000568495    -0.000010979609
      11        0.000000794951    -0.000002243654    -0.000005659282
      12        0.000000565371    -0.000005607148     0.000003362713
      13       -0.000005795600     0.000008170357     0.000006620778
      14        0.000000629373    -0.000006970202    -0.000003285783
      15       -0.000000313067     0.000003603969    -0.000002388679
      16        0.000000613874     0.000003871590     0.000000870934

  **** Optimization is complete! (in 7 steps) ****
    Final optimized geometry and variables:
    Molecular point group: c1

    Geometry (in Angstrom), charge = 0, multiplicity = 1:

    H            2.947736236661     0.531524638103    -0.376530200520
    C            2.091795135828     0.130771600507     0.179047382315
    C            0.762439641025     0.804184908812    -0.068040350857
    O            2.250785011675    -0.754856498011     0.946414032650
    C           -0.400709627112    -0.175653002851    -0.209528484324
    H            0.844892380364     1.453990871179    -0.932656996880
    H            0.593508170278     1.455894581869     0.786894425481
    C           -1.746667633123     0.525567378524    -0.364934526368
    H           -0.225687791546    -0.817071173847    -1.068899795126
    H           -0.418554342978    -0.823512054874     0.658034326397
    C           -2.908227258010    -0.450343749330    -0.518044434824
    H           -1.714582146290     1.185577330864    -1.227667923405
    H           -1.921184293623     1.161093161304     0.498934423514
    H           -2.780017925591    -1.076880109593    -1.394293936242
    H           -3.850029616774     0.075577808815    -0.622458568026
    H           -2.986339780002    -1.102646280745     0.344924034075

  Mulliken Charges: (a.u.)
   Center  Symbol    Alpha    Beta     Spin     Total
       1     H     0.45378  0.45378  0.00000  0.09244
       2     C     2.92059  2.92059  0.00000  0.15882
       3     C     3.08821  3.08821  0.00000 -0.17642
       4     O     4.16675  4.16675  0.00000 -0.33350
       5     C     3.08858  3.08858  0.00000 -0.17715
       6     H     0.44768  0.44768  0.00000  0.10463
       7     H     0.44500  0.44500  0.00000  0.11000
       8     C     3.08448  3.08448  0.00000 -0.16897
       9     H     0.45210  0.45210  0.00000  0.09580
      10     H     0.43977  0.43977  0.00000  0.12046
      11     C     3.14907  3.14907  0.00000 -0.29814
      12     H     0.45516  0.45516  0.00000  0.08967
      13     H     0.45347  0.45347  0.00000  0.09306
      14     H     0.45448  0.45448  0.00000  0.09105
      15     H     0.44798  0.44798  0.00000  0.10404
      16     H     0.45290  0.45290  0.00000  0.09420

   Total alpha = 24.00000, Total beta = 24.00000, Total charge = -0.00000

*** Psi4 exiting successfully. Buy a developer a beer!
