  ==> Input File <==

--------------------------------------------------------------------------
set {
	reference rhf
	basis cc-pvtz
}

set_num_threads( 4 )
memory 2 gb

molecule MOL {
0 1

H	 -1.835082	 1.385983	 0.000069
C	 -1.300516	 0.441153	 -0.000028
O	 -0.006604	 0.654344	 -0.000106
O	 -1.828920	 -0.612308	 0.000113
C	 0.852093	 -0.482521	 -0.000161
C	 0.267654	 -1.501755	 -0.948999
H	 0.920930	 -0.868240	 1.007033
H	 1.841214	 -0.173099	 -0.306529
H	 -0.723820	 -1.799373	 -0.632182
H	 0.899142	 -2.381831	 -0.972330
H	 0.201064	 -1.100728	 -1.952349

	symmetry c1
}
set optking {
	frozen_dihedral = ("
		7 5 3 2
	")
}

ee = optimize('scf')
oeprop('DIPOLE', 'QUADRUPOLE', 'MULLIKEN_CHARGES')
f=open( 'psi4out.xyz', 'w' )
f.write( "11  " )
f.write( str(ee) + "\n" )
f.write( MOL.save_string_xyz() )
f.close()
--------------------------------------------------------------------------

    Molecular point group: c1
  Charge       = 0
  Multiplicity = 1
  Basis Set: CC-PVTZ
  Basis Set:
  @DF-RHF Final Energy:  -266.90270879003049
    Total Energy =                       -266.9027087900306014
    Molecular point group: c1
  Basis Set: CC-PVTZ
  Basis Set:
  Basis Set: CC-PVTZ
  Basis Set:
  @DF-RHF Final Energy:  -266.92125200913688
    Total Energy =                       -266.9212520091369356
  Basis Set: CC-PVTZ
  Basis Set:
  Basis Set: CC-PVTZ
  Basis Set:
  @DF-RHF Final Energy:  -266.92023159167820
    Total Energy =                       -266.9202315916782027
  Basis Set: CC-PVTZ
  Basis Set:
  Basis Set: CC-PVTZ
  Basis Set:
  @DF-RHF Final Energy:  -266.92051239276611
    Total Energy =                       -266.9205123927660566
  Basis Set: CC-PVTZ
  Basis Set:
  @DF-RHF Final Energy:  -266.92509519123178
    Total Energy =                       -266.9250951912317760
  Basis Set: CC-PVTZ
  Basis Set:
  @DF-RHF Final Energy:  -266.92599894066035
    Total Energy =                       -266.9259989406604632
  Basis Set: CC-PVTZ
  Basis Set:
  Basis Set: CC-PVTZ
  Basis Set:
  @DF-RHF Final Energy:  -266.92601703078225
    Total Energy =                       -266.9260170307821909
  Basis Set: CC-PVTZ
  Basis Set:
  Basis Set: CC-PVTZ
  Basis Set:
  @DF-RHF Final Energy:  -266.92601964995362
    Total Energy =                       -266.9260196499536164
  Basis Set: CC-PVTZ
  Basis Set:
  Charge       = 0
  Multiplicity = 1
  Basis Set: CC-PVTZ
  Basis Set:

    Orbital Energies (a.u.)
    -----------------------

    Doubly Occupied:

       1A    -20.603881     2A    -20.544160     3A    -11.370463
       4A    -11.293349     5A    -11.219766     6A     -1.475587
       7A     -1.377086     8A     -1.049473     9A     -0.918199
      10A     -0.795855    11A     -0.735625    12A     -0.687253
      13A     -0.663727    14A     -0.624104    15A     -0.578093
      16A     -0.545297    17A     -0.531625    18A     -0.503819
      19A     -0.461180    20A     -0.451082

  @DF-RHF Final Energy:  -266.92601982749784

   => Energetics <=

    Nuclear Repulsion Energy =            182.9953078753692353
    One-Electron Energy =                -726.9834079499321433
    Two-Electron Energy =                 277.0620802470651256
    DFT Exchange-Correlation Energy =       0.0000000000000000
    Empirical Dispersion Energy =           0.0000000000000000
    PCM Polarization Energy =               0.0000000000000000
    EFP Energy =                            0.0000000000000000
    Total Energy =                       -266.9260198274977824
    Molecular point group: c1
  Basis Set: CC-PVTZ
  Basis Set:

  -Total Gradient:
     Atom            X                  Y                   Z
    ------   -----------------  -----------------  -----------------
       1       -0.000003545062     0.000002713809    -0.000000578169
       2       -0.000237662750    -0.000010308540    -0.005368450353
       3        0.001411390098     0.000805540069     0.008164943959
       4        0.000009671726    -0.000001844028    -0.000001163054
       5       -0.005930521842    -0.004038195191    -0.003597587200
       6       -0.000006561253     0.000011122506     0.000006151379
       7        0.004748625830     0.003256439317     0.000805802550
       8        0.000013565080    -0.000036169345    -0.000005759885
       9        0.000003147596     0.000000280808    -0.000000337520
      10       -0.000002735064     0.000010013819     0.000002109000
      11       -0.000005374358     0.000000406776    -0.000005130707

  **** Optimization is complete! (in 9 steps) ****
    Final optimized geometry and variables:
    Molecular point group: c1

    Geometry (in Angstrom), charge = 0, multiplicity = 1:

    H           -1.305376891508     1.844732244494     0.095752383692
    C           -0.891974655802     0.846954373669     0.210037486511
    O            0.416098116817     0.906086553286     0.156679931884
    O           -1.552507076741    -0.114468460908     0.378179508556
    C            1.224520475020    -0.271659941063     0.131446091201
    C            0.812481912353    -1.336634485850    -0.864734664843
    H            1.312218217107    -0.648159981053     1.142131965142
    H            2.196616880639     0.113332772412    -0.139280583081
    H           -0.092531892978    -1.844697068532    -0.577886807942
    H            1.616565935682    -2.060982908700    -0.930723189727
    H            0.674493578830    -0.902633063731    -1.848340172770

  Mulliken Charges: (a.u.)
   Center  Symbol    Alpha    Beta     Spin     Total
       1     H     0.44748  0.44748  0.00000  0.10505
       2     C     2.84109  2.84109  0.00000  0.31783
       3     O     4.14791  4.14791  0.00000 -0.29581
       4     O     4.19713  4.19713  0.00000 -0.39426
       5     C     2.97651  2.97651  0.00000  0.04698
       6     C     3.15448  3.15448  0.00000 -0.30897
       7     H     0.45351  0.45351  0.00000  0.09298
       8     H     0.44699  0.44699  0.00000  0.10602
       9     H     0.43338  0.43338  0.00000  0.13324
      10     H     0.44975  0.44975  0.00000  0.10051
      11     H     0.45179  0.45179  0.00000  0.09643

   Total alpha = 20.00000, Total beta = 20.00000, Total charge = -0.00000
