  ==> Input File <==

--------------------------------------------------------------------------
set {
	reference rhf
	basis 6-31G*
}

set_num_threads( 4 )
memory 2 gb

molecule MOL {
0 1

H	 -3.543320	 -2.691797	 1.571668
C	 -3.069115	 -1.823623	 1.156862
C	 -1.834191	 -1.899739	 0.717351
H	 -3.625609	 -0.906409	 1.112772
O	 -1.180634	 -0.819263	 0.215062
H	 -1.262260	 -2.810384	 0.745914
C	 0.051604	 -1.018856	 -0.387932
C	 1.043764	 0.054862	 -0.001873
H	 -0.017620	 -1.041351	 -1.469781
H	 0.437898	 -1.966374	 -0.042284
F	 2.212596	 -0.199467	 -0.571921
F	 0.652529	 1.252447	 -0.405055
F	 1.230877	 0.110694	 1.300533

	symmetry c1
}
set optking {
	frozen_dihedral = ("
		3 5 7 9
	")
}

ee = optimize('scf')
oeprop('DIPOLE', 'QUADRUPOLE', 'MULLIKEN_CHARGES')
f=open( 'psi4out.xyz', 'w' )
f.write( "13  " )
f.write( str(ee) + "\n" )
f.write( MOL.save_string_xyz() )
f.close()
--------------------------------------------------------------------------

    Molecular point group: c1
  Charge       = 0
  Multiplicity = 1
  Basis Set: 6-31G*
  Basis Set:
  @DF-RHF Final Energy:  -527.53280990973315
    Total Energy =                       -527.5328099097330323
    Molecular point group: c1
  Basis Set: 6-31G*
  Basis Set:
  Basis Set: 6-31G*
  Basis Set:
  @DF-RHF Final Energy:  -527.53401132949716
    Total Energy =                       -527.5340113294968205
  Basis Set: 6-31G*
  Basis Set:
  Basis Set: 6-31G*
  Basis Set:
  @DF-RHF Final Energy:  -527.53430150885356
    Total Energy =                       -527.5343015088536731
  Basis Set: 6-31G*
  Basis Set:
  Basis Set: 6-31G*
  Basis Set:
  @DF-RHF Final Energy:  -527.53434458979768
    Total Energy =                       -527.5343445897981383
  Basis Set: 6-31G*
  Basis Set:
  Basis Set: 6-31G*
  Basis Set:
  @DF-RHF Final Energy:  -527.53439915522324
    Total Energy =                       -527.5343991552235821
  Basis Set: 6-31G*
  Basis Set:
  Basis Set: 6-31G*
  Basis Set:
  @DF-RHF Final Energy:  -527.53441305485785
    Total Energy =                       -527.5344130548579642
  Basis Set: 6-31G*
  Basis Set:
  Basis Set: 6-31G*
  Basis Set:
  @DF-RHF Final Energy:  -527.53441725054540
    Total Energy =                       -527.5344172505455163
  Basis Set: 6-31G*
  Basis Set:
  Charge       = 0
  Multiplicity = 1
  Basis Set: 6-31G*
  Basis Set:

    Orbital Energies (a.u.)
    -----------------------

    Doubly Occupied:

       1A    -26.342215     2A    -26.338837     3A    -26.338202
       4A    -20.607179     5A    -11.502296     6A    -11.318418
       7A    -11.302088     8A    -11.219942     9A     -1.739170
      10A     -1.636988    11A     -1.635427    12A     -1.438173
      13A     -1.087118    14A     -1.015526    15A     -0.922776
      16A     -0.836814    17A     -0.828994    18A     -0.807633
      19A     -0.798321    20A     -0.723982    21A     -0.710968
      22A     -0.698259    23A     -0.677368    24A     -0.656322
      25A     -0.652166    26A     -0.639925    27A     -0.631176
      28A     -0.588669    29A     -0.562077    30A     -0.527506
      31A     -0.506518    32A     -0.356288

  @DF-RHF Final Energy:  -527.53441768694734

   => Energetics <=

    Nuclear Repulsion Energy =            407.4878193128162138
    One-Electron Energy =               -1538.7497937924940743
    Two-Electron Energy =                 603.7275567927298425
    DFT Exchange-Correlation Energy =       0.0000000000000000
    Empirical Dispersion Energy =           0.0000000000000000
    PCM Polarization Energy =               0.0000000000000000
    EFP Energy =                            0.0000000000000000
    Total Energy =                       -527.5344176869481316
    Molecular point group: c1
  Basis Set: 6-31G*
  Basis Set:

  -Total Gradient:
     Atom            X                  Y                   Z
    ------   -----------------  -----------------  -----------------
       1       -0.000004961849    -0.000003604156    -0.000004271564
       2       -0.000000275930    -0.000010853486     0.000023764180
       3        0.000218775683     0.000019701764     0.000373144502
       4       -0.000003008114    -0.000003478104    -0.000003895828
       5       -0.000351155160     0.000124293342    -0.000565164481
       6       -0.000016362363    -0.000001639974     0.000006469223
       7        0.000020247266    -0.000665590866     0.000203959136
       8       -0.000033269651    -0.000040280387    -0.000072365251
       9        0.000101439522     0.000528632285     0.000014480823
      10        0.000012435576     0.000005305438    -0.000012668088
      11        0.000004696099     0.000034467356    -0.000005888432
      12        0.000046540659    -0.000008312891     0.000017901513
      13        0.000004898259     0.000021359680     0.000024534265

  **** Optimization is complete! (in 8 steps) ****
    Final optimized geometry and variables:
    Molecular point group: c1

    Geometry (in Angstrom), charge = 0, multiplicity = 1:

    H           -3.628840349025    -2.223034647376     1.261700853502
    C           -3.141982433100    -1.370001360924     0.830013991376
    C           -1.853083818034    -1.407277966966     0.580866846463
    H           -3.727261587031    -0.492716997639     0.627894569192
    O           -1.178518850433    -0.336257626979     0.093581155950
    H           -1.248378481637    -2.276409681771     0.777857049291
    C           -0.010304972369    -0.570903153931    -0.619424949104
    C            0.994718772947     0.494077463360    -0.254661068098
    H           -0.189890786082    -0.516396680248    -1.686327729922
    H            0.429253119428    -1.532733667813    -0.383432738674
    F            2.107130339977     0.301606019135    -0.949872998812
    F            0.554135897819     1.705599376192    -0.525881088211
    F            1.307946980254     0.452162463770     1.026204232288

  Mulliken Charges: (a.u.)
   Center  Symbol    Alpha    Beta     Spin     Total
       1     H     0.40692  0.40692  0.00000  0.18616
       2     C     3.23276  3.23276  0.00000 -0.46552
       3     C     2.89878  2.89878  0.00000  0.20244
       4     H     0.40078  0.40078  0.00000  0.19845
       5     O     4.30394  4.30394  0.00000 -0.60787
       6     H     0.40784  0.40784  0.00000  0.18432
       7     C     3.05010  3.05010  0.00000 -0.10020
       8     C     2.45287  2.45287  0.00000  1.09426
       9     H     0.40055  0.40055  0.00000  0.19891
      10     H     0.40745  0.40745  0.00000  0.18510
      11     F     4.68457  4.68457  0.00000 -0.36915
      12     F     4.67574  4.67574  0.00000 -0.35148
      13     F     4.67770  4.67770  0.00000 -0.35540

   Total alpha = 32.00000, Total beta = 32.00000, Total charge =  0.00000
