                              Psi4 1.0.54 Driver

  ==> Input File <==

--------------------------------------------------------------------------
set {
	reference rhf
	basis cc-pvtz
}

set_num_threads( 4 )
memory 2 gb

molecule MOL {
0 1

H	 -3.436473	 1.252944	 -1.023892
O	 -3.458596	 0.315260	 -0.960865
C	 -3.176635	 -0.080824	 0.355601
C	 -1.763371	 0.265266	 0.799691
H	 -3.321825	 -1.153438	 0.379502
H	 -3.895468	 0.357385	 1.043382
C	 -0.673390	 -0.426948	 -0.013392
H	 -1.631049	 1.344913	 0.747560
H	 -1.664587	 -0.001624	 1.849167
C	 -0.919132	 -1.922125	 -0.197855
H	 0.285221	 -0.272517	 0.469443
H	 -0.603385	 0.049515	 -0.988373
C	 0.172741	 -2.607935	 -1.016712
H	 -0.998461	 -2.389104	 0.779144
H	 -1.879400	 -2.072673	 -0.686812
C	 -0.069465	 -4.091935	 -1.297655
H	 1.127703	 -2.491362	 -0.509457
H	 0.270626	 -2.089740	 -1.966719
C	 -0.038199	 -4.988864	 -0.062469
H	 0.687077	 -4.436572	 -1.995970
H	 -1.023976	 -4.209740	 -1.804065
H	 0.903211	 -4.887569	 0.468157
H	 -0.148529	 -6.030711	 -0.341077
H	 -0.835794	 -4.752181	 0.631381

	symmetry c1
}
set optking {
	frozen_dihedral = ("
		11 7 4 3
	")
}

ee,wfn = optimize('scf', return_wfn=True)
oeprop( wfn, 'DIPOLE', 'QUADRUPOLE', 'MULLIKEN_CHARGES')
f=open( 'psi4out.xyz', 'w' )
f.write( "24  " )
f.write( str(ee) + "\n" )
f.write( MOL.save_string_xyz() )
f.close()
--------------------------------------------------------------------------

    Molecular point group: c1
  Charge       = 0
  Multiplicity = 1
  Basis Set: CC-PVTZ
  Basis Set:
  @DF-RHF Final Energy:  -349.37648093001405
    Total Energy =                       -349.3764809300143952
    Molecular point group: c1
  Basis Set: CC-PVTZ
  Basis Set:
  Basis Set: CC-PVTZ
  Basis Set:
  @DF-RHF Final Energy:  -349.37666318656676
    Total Energy =                       -349.3766631865670433
  Basis Set: CC-PVTZ
  Basis Set:
  Basis Set: CC-PVTZ
  Basis Set:
  @DF-RHF Final Energy:  -349.37812143086700
    Total Energy =                       -349.3781214308667700
  Basis Set: CC-PVTZ
  Basis Set:
  Basis Set: CC-PVTZ
  Basis Set:
  @DF-RHF Final Energy:  -349.37820688750736
    Total Energy =                       -349.3782068875075311
  Basis Set: CC-PVTZ
  Basis Set:
  Basis Set: CC-PVTZ
  Basis Set:
  @DF-RHF Final Energy:  -349.37821417090134
    Total Energy =                       -349.3782141709014013
  Basis Set: CC-PVTZ
  Basis Set:
  Charge       = 0
  Multiplicity = 1
  Basis Set: CC-PVTZ
  Basis Set:

    Orbital Energies (a.u.)
    -----------------------

    Doubly Occupied:

       1A    -20.546570     2A    -11.264705     3A    -11.215813
       4A    -11.210575     5A    -11.209885     6A    -11.207797
       7A    -11.206282     8A    -11.203586     9A     -1.364027
      10A     -1.088114    11A     -1.047387    12A     -0.983368
      13A     -0.915540    14A     -0.860773    15A     -0.793421
      16A     -0.771595    17A     -0.681678    18A     -0.651998
      19A     -0.628788    20A     -0.619025    21A     -0.599864
      22A     -0.582694    23A     -0.556857    24A     -0.535182
      25A     -0.524253    26A     -0.514659    27A     -0.488777
      28A     -0.481296    29A     -0.471067    30A     -0.458548
      31A     -0.450831    32A     -0.435320    33A     -0.427821

  @DF-RHF Final Energy:  -349.37821424581830

   => Energetics <=

    Nuclear Repulsion Energy =            393.7075272615318227
    One-Electron Energy =               -1254.1752849994818462
    Two-Electron Energy =                 511.0895434921318383
    DFT Exchange-Correlation Energy =       0.0000000000000000
    Empirical Dispersion Energy =           0.0000000000000000
    PCM Polarization Energy =               0.0000000000000000
    EFP Energy =                            0.0000000000000000
    Total Energy =                       -349.3782142458181852
    Molecular point group: c1
  Basis Set: CC-PVTZ
  Basis Set:

  -Total Gradient:
     Atom            X                  Y                   Z
    ------   -----------------  -----------------  -----------------
       1       -0.000000140849    -0.000009345720     0.000013545757
       2       -0.000041500499     0.000010307460    -0.000009281535
       3        0.000010917126    -0.001774104405     0.001430161545
       4       -0.000082519950     0.002022957599    -0.001735597057
       5        0.000016403915     0.000013118598    -0.000006096338
       6       -0.000006455129     0.000008370872    -0.000016732988
       7        0.000500250595     0.002415737281    -0.001364441065
       8       -0.000022359712    -0.000023542435     0.000000752414
       9        0.000014070956    -0.000019066418     0.000029705897
      10        0.000032685217    -0.000038550198     0.000026092909
      11       -0.000406974097    -0.002566537933     0.001619699648
      12        0.000006774225    -0.000005679920     0.000000975275
      13        0.000021644777    -0.000029944142     0.000035683633
      14        0.000024927834     0.000005522404    -0.000028855875
      15       -0.000051787372     0.000013106292     0.000015650393
      16       -0.000061402035     0.000034585578    -0.000005528382
      17       -0.000001112549     0.000013511259     0.000017724412
      18        0.000017027528     0.000001380222    -0.000002667496
      19        0.000024767356    -0.000040695499     0.000000131780
      20        0.000013838251    -0.000006756753    -0.000024237463
      21       -0.000035570858    -0.000001424591    -0.000011087775
      22        0.000019796316     0.000002280059     0.000026029273
      23        0.000015530801    -0.000006514627     0.000004793814
      24       -0.000008811849    -0.000018714983    -0.000016420777

  **** Optimization is complete! (in 6 steps) ****
    Final optimized geometry and variables:
    Molecular point group: c1

    Geometry (in Angstrom), charge = 0, multiplicity = 1:

    H           -2.116017533918     2.882850305193    -0.741323272882
    O           -2.234373557727     1.963825158601    -0.582987390285
    C           -1.912457555455     1.662289756803     0.749879892559
    C           -0.456119470417     1.935008182336     1.097171247846
    H           -2.145895785683     0.615602149161     0.880567892456
    H           -2.553764556954     2.218392113263     1.429206962807
    C            0.581552374614     1.223227986173     0.223191157664
    H           -0.275145947097     3.007022622755     1.059216114899
    H           -0.313958530112     1.643729017507     2.135528278529
    C            0.353852548733    -0.277892888164     0.045101374475
    H            1.554770961942     1.360973141183     0.686112931609
    H            0.623658099901     1.693309302677    -0.753153886519
    C            1.502886367796    -0.954038224718    -0.701376576908
    H            0.226033970949    -0.737519224575     1.021285268883
    H           -0.567546129698    -0.445904662395    -0.502471874455
    C            1.285448829710    -2.436624262495    -1.008692321164
    H            2.421805632828    -0.838636867363    -0.130663009935
    H            1.661603750054    -0.428951255682    -1.639376930233
    C            1.233111210069    -3.341892324536     0.219782327914
    H            2.090055220770    -2.774614170933    -1.654785833027
    H            0.368998733819    -2.552716318614    -1.581070824625
    H            2.132792824777    -3.238661906907     0.818363697693
    H            1.150053920920    -4.382520326146    -0.072563736870
    H            0.385546436935    -3.114660898065     0.855113333379

  Mulliken Charges: (a.u.)
   Center  Symbol    Alpha    Beta     Spin     Total
       1     H     0.39457  0.39457  0.00000  0.21085
       2     O     4.20659  4.20659  0.00000 -0.41318
       3     C     2.98131  2.98131  0.00000  0.03738
       4     C     3.11625  3.11625  0.00000 -0.23249
       5     H     0.45540  0.45540  0.00000  0.08920
       6     H     0.45621  0.45621  0.00000  0.08759
       7     C     3.08186  3.08186  0.00000 -0.16372
       8     H     0.45005  0.45005  0.00000  0.09990
       9     H     0.45269  0.45269  0.00000  0.09462
      10     C     3.10039  3.10039  0.00000 -0.20077
      11     H     0.44992  0.44992  0.00000  0.10015
      12     H     0.45343  0.45343  0.00000  0.09313
      13     C     3.09548  3.09548  0.00000 -0.19096
      14     H     0.45382  0.45382  0.00000  0.09236
      15     H     0.44598  0.44598  0.00000  0.10804
      16     C     3.08988  3.08988  0.00000 -0.17975
      17     H     0.45471  0.45471  0.00000  0.09058
      18     H     0.44953  0.44953  0.00000  0.10094
      19     C     3.15258  3.15258  0.00000 -0.30516
      20     H     0.44924  0.44924  0.00000  0.10151
      21     H     0.45385  0.45385  0.00000  0.09231
      22     H     0.45561  0.45561  0.00000  0.08878
      23     H     0.44663  0.44663  0.00000  0.10674
      24     H     0.45403  0.45403  0.00000  0.09194

   Total alpha = 33.00000, Total beta = 33.00000, Total charge = -0.00000

*** Psi4 exiting successfully. Buy a developer a beer!
