                              Psi4 1.0.54 Driver

  ==> Input File <==

--------------------------------------------------------------------------
set {
	reference rhf
	basis cc-pvtz
}

set_num_threads( 4 )
memory 2 gb

molecule MOL {
0 1

H	 -3.436473	 1.252944	 -1.023892
O	 -3.458596	 0.315260	 -0.960865
C	 -3.176635	 -0.080824	 0.355601
C	 -1.763371	 0.265266	 0.799691
H	 -3.321825	 -1.153438	 0.379502
H	 -3.895468	 0.357385	 1.043382
C	 -0.673390	 -0.426948	 -0.013392
H	 -1.631049	 1.344913	 0.747560
H	 -1.664587	 -0.001624	 1.849167
C	 0.737842	 -0.043159	 0.423759
H	 -0.806103	 -0.190518	 -1.063345
H	 -0.797221	 -1.503753	 0.074146
C	 1.824000	 -0.743224	 -0.390623
H	 0.850588	 1.033777	 0.343840
H	 0.868587	 -0.286314	 1.476203
C	 2.810627	 0.194612	 -1.088389
H	 1.356873	 -1.386827	 -1.132524
H	 2.382933	 -1.400536	 0.269798
C	 2.201805	 1.053625	 -2.194090
H	 3.609881	 -0.404079	 -1.514461
H	 3.277664	 0.838823	 -0.347923
H	 1.721871	 0.436169	 -2.946745
H	 2.966392	 1.641422	 -2.689209
H	 1.459851	 1.743386	 -1.810240

	symmetry c1
}
set optking {
	frozen_dihedral = ("
		17 13 10 7
	")
}

ee,wfn = optimize('scf', return_wfn=True)
oeprop( wfn, 'DIPOLE', 'QUADRUPOLE', 'MULLIKEN_CHARGES')
f=open( 'psi4out.xyz', 'w' )
f.write( "24  " )
f.write( str(ee) + "\n" )
f.write( MOL.save_string_xyz() )
f.close()
--------------------------------------------------------------------------

    Molecular point group: c1
  Charge       = 0
  Multiplicity = 1
  Basis Set: CC-PVTZ
  Basis Set:
  @DF-RHF Final Energy:  -349.37499969534662
    Total Energy =                       -349.3749996953467871
    Molecular point group: c1
  Basis Set: CC-PVTZ
  Basis Set:
  Basis Set: CC-PVTZ
  Basis Set:
  @DF-RHF Final Energy:  -349.37528129911749
    Total Energy =                       -349.3752812991176597
  Basis Set: CC-PVTZ
  Basis Set:
  Basis Set: CC-PVTZ
  Basis Set:
  @DF-RHF Final Energy:  -349.37530432177283
    Total Energy =                       -349.3753043217726599
  Basis Set: CC-PVTZ
  Basis Set:
  Basis Set: CC-PVTZ
  Basis Set:
  @DF-RHF Final Energy:  -349.37537683466400
    Total Energy =                       -349.3753768346634274
  Basis Set: CC-PVTZ
  Basis Set:
  Basis Set: CC-PVTZ
  Basis Set:
  @DF-RHF Final Energy:  -349.37537930305371
    Total Energy =                       -349.3753793030538759
  Basis Set: CC-PVTZ
  Basis Set:
  Basis Set: CC-PVTZ
  Basis Set:
  @DF-RHF Final Energy:  -349.37538079883626
    Total Energy =                       -349.3753807988367157
  Basis Set: CC-PVTZ
  Basis Set:
  Charge       = 0
  Multiplicity = 1
  Basis Set: CC-PVTZ
  Basis Set:

    Orbital Energies (a.u.)
    -----------------------

    Doubly Occupied:

       1A    -20.546323     2A    -11.265562     3A    -11.214968
       4A    -11.212148     5A    -11.210249     6A    -11.209277
       7A    -11.209057     8A    -11.205063     9A     -1.364155
      10A     -1.088401    11A     -1.048913    12A     -0.984981
      13A     -0.917033    14A     -0.850430    15A     -0.801587
      16A     -0.777779    17A     -0.682038    18A     -0.654049
      19A     -0.625500    20A     -0.618547    21A     -0.600580
      22A     -0.578422    23A     -0.568664    24A     -0.533544
      25A     -0.521887    26A     -0.510663    27A     -0.494413
      28A     -0.477281    29A     -0.468510    30A     -0.460834
      31A     -0.454159    32A     -0.447606    33A     -0.420636

  @DF-RHF Final Energy:  -349.37538080753887

   => Energetics <=

    Nuclear Repulsion Energy =            389.7970388024603494
    One-Electron Energy =               -1246.2983206005021657
    Two-Electron Energy =                 507.1259009905029984
    DFT Exchange-Correlation Energy =       0.0000000000000000
    Empirical Dispersion Energy =           0.0000000000000000
    PCM Polarization Energy =               0.0000000000000000
    EFP Energy =                            0.0000000000000000
    Total Energy =                       -349.3753808075388747
    Molecular point group: c1
  Basis Set: CC-PVTZ
  Basis Set:

  -Total Gradient:
     Atom            X                  Y                   Z
    ------   -----------------  -----------------  -----------------
       1        0.000000335139    -0.000001479055     0.000001259689
       2        0.000002620078    -0.000002463434    -0.000002196155
       3       -0.000001242679     0.000003675876     0.000000404982
       4       -0.000000601978    -0.000009983236     0.000006858763
       5       -0.000000144092     0.000000386043    -0.000000778583
       6        0.000001931332    -0.000000340632     0.000001237324
       7       -0.000003281818     0.000277661311    -0.000229978136
       8       -0.000000198451    -0.000003431794    -0.000003126397
       9       -0.000000003065     0.000000955796     0.000003797928
      10       -0.000001933333    -0.000455045962     0.000380291142
      11       -0.000002272476     0.000005647650     0.000000399790
      12       -0.000000501445    -0.000000792322    -0.000004080489
      13        0.000008169264     0.000546140049    -0.000457755452
      14        0.000000632242     0.000000901458    -0.000001670409
      15       -0.000000119086     0.000004194402    -0.000001862041
      16       -0.000004938839     0.000004072466     0.000003875418
      17       -0.000002804344    -0.000367743345     0.000307851476
      18        0.000003526741    -0.000001967869    -0.000003645220
      19        0.000000593053     0.000000200979    -0.000004131409
      20       -0.000005111662     0.000000578368    -0.000000547338
      21        0.000002208388     0.000001059208    -0.000000164670
      22        0.000003101836     0.000008401434     0.000006405952
      23       -0.000007876127    -0.000003573425     0.000001568885
      24        0.000007911320    -0.000007053967    -0.000004015051

  **** Optimization is complete! (in 7 steps) ****
    Final optimized geometry and variables:
    Molecular point group: c1

    Geometry (in Angstrom), charge = 0, multiplicity = 1:

    H           -3.186580110419     1.240032419658    -0.545789870670
    O           -3.223060741461     0.301635799354    -0.503801622866
    C           -2.929850918836    -0.128972268865     0.799221201201
    C           -1.504943886808     0.183576272105     1.231081924502
    H           -3.092502438110    -1.199340642516     0.800409590422
    H           -3.631970867718     0.304766914616     1.506806294651
    C           -0.438181198304    -0.504327105750     0.385083621303
    H           -1.355971187636     1.262092650449     1.204456409178
    H           -1.395246717106    -0.111284230065     2.271982722727
    C            0.986236880204    -0.157420534488     0.813051923075
    H           -0.579209445874    -0.239098336096    -0.656780533206
    H           -0.578228061827    -1.581164875663     0.445724773236
    C            2.077177128549    -0.861283382216    -0.021951075160
    H            1.115678187256     0.919164879988     0.755475997914
    H            1.111793333383    -0.411401997641     1.861050122919
    C            3.066751028594     0.082682381423    -0.707949428567
    H            1.610897028227    -1.487720130014    -0.777152749828
    H            2.635853586462    -1.537502310785     0.616062932408
    C            2.455361636936     0.917492407843    -1.830082105306
    H            3.883921117283    -0.504346872872    -1.116170992489
    H            3.508342976186     0.741096346898     0.035585724098
    H            2.055196400474     0.280745026265    -2.612146576535
    H            3.198231374861     1.566304209878    -2.279971267443
    H            1.647402897884     1.545877003182    -1.473037024122

  Mulliken Charges: (a.u.)
   Center  Symbol    Alpha    Beta     Spin     Total
       1     H     0.39523  0.39523  0.00000  0.20954
       2     O     4.20333  4.20333  0.00000 -0.40665
       3     C     2.97753  2.97753  0.00000  0.04495
       4     C     3.10360  3.10360  0.00000 -0.20720
       5     H     0.45897  0.45897  0.00000  0.08206
       6     H     0.46025  0.46025  0.00000  0.07951
       7     C     3.08677  3.08677  0.00000 -0.17355
       8     H     0.45885  0.45885  0.00000  0.08229
       9     H     0.45316  0.45316  0.00000  0.09368
      10     C     3.10677  3.10677  0.00000 -0.21353
      11     H     0.44505  0.44505  0.00000  0.10991
      12     H     0.45369  0.45369  0.00000  0.09262
      13     C     3.09938  3.09938  0.00000 -0.19876
      14     H     0.45212  0.45212  0.00000  0.09575
      15     H     0.44612  0.44612  0.00000  0.10776
      16     C     3.08776  3.08776  0.00000 -0.17552
      17     H     0.45372  0.45372  0.00000  0.09255
      18     H     0.44562  0.44562  0.00000  0.10876
      19     C     3.15176  3.15176  0.00000 -0.30352
      20     H     0.44935  0.44935  0.00000  0.10130
      21     H     0.45512  0.45512  0.00000  0.08976
      22     H     0.45346  0.45346  0.00000  0.09308
      23     H     0.44652  0.44652  0.00000  0.10695
      24     H     0.45587  0.45587  0.00000  0.08826

   Total alpha = 33.00000, Total beta = 33.00000, Total charge =  0.00000

*** Psi4 exiting successfully. Buy a developer a beer!
