                              Psi4 1.0.54 Driver

  ==> Input File <==

--------------------------------------------------------------------------
set {
	reference rhf
	basis cc-pvtz
}

set_num_threads( 4 )
memory 2 gb

molecule MOL {
0 1

H	 2.614283	 2.028610	 0.296620
O	 3.358864	 1.662087	 -0.142800
C	 3.565468	 0.338079	 0.273842
C	 2.533667	 -0.637565	 -0.272227
H	 4.548038	 0.064914	 -0.086598
H	 3.593945	 0.282242	 1.360360
C	 2.903740	 -2.108045	 -0.091720
H	 1.581059	 -0.438309	 0.209430
H	 2.402338	 -0.427082	 -1.330928
C	 1.860839	 -3.056686	 -0.681020
H	 3.028196	 -2.319389	 0.965090
H	 3.865962	 -2.297899	 -0.564343
C	 2.215967	 -4.542142	 -0.594073
H	 0.905805	 -2.886760	 -0.189836
H	 1.712459	 -2.799930	 -1.726261
C	 2.253214	 -5.116287	 0.821100
H	 1.487311	 -5.101333	 -1.174498
H	 3.176834	 -4.709783	 -1.075514
C	 2.513391	 -6.620264	 0.848874
H	 1.307458	 -4.908066	 1.316740
H	 3.019769	 -4.617700	 1.406597
C	 2.554943	 -7.196111	 2.260456
H	 1.742715	 -7.128257	 0.275655
H	 3.453842	 -6.830830	 0.346603
H	 1.616270	 -7.030009	 2.778666
H	 2.738496	 -8.264354	 2.243966
H	 3.341435	 -6.734922	 2.848747

	symmetry c1
}
set optking {
	frozen_dihedral = ("
		8 4 3 2
	")
}

ee,wfn = optimize('scf', return_wfn=True)
oeprop( wfn, 'DIPOLE', 'QUADRUPOLE', 'MULLIKEN_CHARGES')
f=open( 'psi4out.xyz', 'w' )
f.write( "27  " )
f.write( str(ee) + "\n" )
f.write( MOL.save_string_xyz() )
f.close()
--------------------------------------------------------------------------

    Molecular point group: c1
  Charge       = 0
  Multiplicity = 1
  Basis Set: CC-PVTZ
  Basis Set:
  @DF-RHF Final Energy:  -388.42762682231114
    Total Energy =                       -388.4276268223117086
    Molecular point group: c1
  Basis Set: CC-PVTZ
  Basis Set:
  Basis Set: CC-PVTZ
  Basis Set:
  @DF-RHF Final Energy:  -388.41033889108934
    Total Energy =                       -388.4103388910893955
  Basis Set: CC-PVTZ
  Basis Set:
  Basis Set: CC-PVTZ
  Basis Set:
  @DF-RHF Final Energy:  -388.42779331890137
    Total Energy =                       -388.4277933189011947
  Basis Set: CC-PVTZ
  Basis Set:
  Basis Set: CC-PVTZ
  Basis Set:
  @DF-RHF Final Energy:  -388.42798090743776
    Total Energy =                       -388.4279809074380410
  Basis Set: CC-PVTZ
  Basis Set:
  Basis Set: CC-PVTZ
  Basis Set:
  @DF-RHF Final Energy:  -388.42799086206230
    Total Energy =                       -388.4279908620625292
  Basis Set: CC-PVTZ
  Basis Set:
  Basis Set: CC-PVTZ
  Basis Set:
  @DF-RHF Final Energy:  -388.42798737328008
    Total Energy =                       -388.4279873732798478
  Basis Set: CC-PVTZ
  Basis Set:
  Basis Set: CC-PVTZ
  Basis Set:
  @DF-RHF Final Energy:  -388.42799455118183
    Total Energy =                       -388.4279945511816550
  Basis Set: CC-PVTZ
  Basis Set:
  Charge       = 0
  Multiplicity = 1
  Basis Set: CC-PVTZ
  Basis Set:

    Orbital Energies (a.u.)
    -----------------------

    Doubly Occupied:

       1A    -20.545225     2A    -11.264460     3A    -11.215993
       4A    -11.214121     5A    -11.213797     6A    -11.213328
       7A    -11.212447     8A    -11.211207     9A    -11.206915
      10A     -1.363026    11A     -1.096171    12A     -1.063250
      13A     -1.012397    14A     -0.945950    15A     -0.883863
      16A     -0.824225    17A     -0.804699    18A     -0.777993
      19A     -0.695029    20A     -0.647916    21A     -0.640800
      22A     -0.611127    23A     -0.609545    24A     -0.585081
      25A     -0.574553    26A     -0.556270    27A     -0.544209
      28A     -0.522223    29A     -0.510313    30A     -0.491436
      31A     -0.482205    32A     -0.477209    33A     -0.465674
      34A     -0.461024    35A     -0.457693    36A     -0.444100
      37A     -0.423254

  @DF-RHF Final Energy:  -388.42799461895021

   => Energetics <=

    Nuclear Repulsion Energy =            454.0436130157572165
    One-Electron Energy =               -1426.4057612992219219
    Two-Electron Energy =                 583.9341536645147244
    DFT Exchange-Correlation Energy =       0.0000000000000000
    Empirical Dispersion Energy =           0.0000000000000000
    PCM Polarization Energy =               0.0000000000000000
    EFP Energy =                            0.0000000000000000
    Total Energy =                       -388.4279946189499242
    Molecular point group: c1
  Basis Set: CC-PVTZ
  Basis Set:

  -Total Gradient:
     Atom            X                  Y                   Z
    ------   -----------------  -----------------  -----------------
       1        0.000018486197    -0.000001962112    -0.000004665744
       2        0.001270848923    -0.000260144940    -0.001029431800
       3       -0.001697821947     0.000032553569     0.001803128616
       4        0.000261391892     0.001475117934    -0.002460498781
       5       -0.000000020453    -0.000000286237     0.000003130891
       6       -0.000005684930    -0.000005211951    -0.000011635535
       7       -0.000013796607    -0.000000419713     0.000028530043
       8        0.000163793037    -0.001262487969     0.001683869700
       9       -0.000005488790     0.000005515492    -0.000005437720
      10        0.000013413792     0.000017328493    -0.000010903763
      11        0.000001571118    -0.000008102254     0.000010268438
      12       -0.000012595372     0.000003874278    -0.000002582983
      13       -0.000005338835    -0.000004851887    -0.000003416522
      14        0.000009336365    -0.000003898383    -0.000001534818
      15       -0.000002199455     0.000006322223    -0.000002102478
      16        0.000006317681     0.000006058950     0.000002341083
      17        0.000000863735     0.000000201450     0.000005806804
      18       -0.000008602333    -0.000003582390     0.000001269121
      19        0.000001301770    -0.000003020622     0.000002149844
      20        0.000005799929    -0.000003197083    -0.000004521420
      21       -0.000000884654     0.000008942250     0.000000257522
      22       -0.000000143319     0.000002192788    -0.000003531726
      23        0.000003006258    -0.000000909511     0.000002273396
      24       -0.000002062478     0.000001006830     0.000002497649
      25        0.000000295310     0.000001702991     0.000000085040
      26        0.000000073603     0.000000273277    -0.000000698918
      27       -0.000001860435    -0.000003015465    -0.000004645936

  **** Optimization is complete! (in 8 steps) ****
    Final optimized geometry and variables:
    Molecular point group: c1

    Geometry (in Angstrom), charge = 0, multiplicity = 1:

    H           -0.451336427364     4.867644283678    -0.574573965452
    O            0.447475504033     4.606399869744    -0.661461699387
    C            0.631964778515     3.330191478517    -0.110699836970
    C           -0.152455096692     2.250077808054    -0.839570553130
    H            1.693016426247     3.130085186540    -0.188573734888
    H            0.381611021198     3.327907269306     0.947835956313
    C            0.252718378362     0.840737757634    -0.413379801476
    H           -1.214678129181     2.383436948927    -0.642378160141
    H           -0.004167810914     2.375841868993    -1.906839617497
    C           -0.565444687630    -0.247134527536    -1.107031175944
    H            0.150392428451     0.751447208261     0.663830585968
    H            1.306673358489     0.689739153045    -0.634399664373
    C           -0.128487054862    -1.679817488650    -0.796372359729
    H           -1.614590015939    -0.128185680644    -0.846567646587
    H           -0.502152349080    -0.094149197232    -2.180739390462
    C           -0.342451709308    -2.121273688248     0.650265517669
    H           -0.678080954248    -2.353233295503    -1.448258129720
    H            0.920778796317    -1.798344213829    -1.056676203061
    C            0.017456014234    -3.585638970282     0.887561659771
    H           -1.383389690801    -1.960820437432     0.923082095203
    H            0.246986879117    -1.502816216442     1.320214953410
    C           -0.191441647725    -4.028585096619     2.331814581724
    H           -0.577539454469    -4.212713112772     0.229284499286
    H            1.054553458909    -3.749594614582     0.607586855309
    H           -1.226986198263    -3.907700824080     2.632371751770
    H            0.071282020366    -5.071787490804     2.465023347485
    H            0.419008939786    -3.444704942956     3.012741184774

  Mulliken Charges: (a.u.)
   Center  Symbol    Alpha    Beta     Spin     Total
       1     H     0.39524  0.39524  0.00000  0.20952
       2     O     4.20088  4.20088  0.00000 -0.40176
       3     C     2.96657  2.96657  0.00000  0.06687
       4     C     3.09640  3.09640  0.00000 -0.19279
       5     H     0.45666  0.45666  0.00000  0.08668
       6     H     0.47033  0.47033  0.00000  0.05934
       7     C     3.10214  3.10214  0.00000 -0.20428
       8     H     0.46169  0.46169  0.00000  0.07663
       9     H     0.44735  0.44735  0.00000  0.10529
      10     C     3.09886  3.09886  0.00000 -0.19772
      11     H     0.45312  0.45312  0.00000  0.09376
      12     H     0.45235  0.45235  0.00000  0.09530
      13     C     3.09816  3.09816  0.00000 -0.19632
      14     H     0.45328  0.45328  0.00000  0.09344
      15     H     0.44719  0.44719  0.00000  0.10562
      16     C     3.08817  3.08817  0.00000 -0.17634
      17     H     0.44816  0.44816  0.00000  0.10367
      18     H     0.45321  0.45321  0.00000  0.09359
      19     C     3.08402  3.08402  0.00000 -0.16804
      20     H     0.45543  0.45543  0.00000  0.08914
      21     H     0.45358  0.45358  0.00000  0.09285
      22     C     3.14973  3.14973  0.00000 -0.29945
      23     H     0.45395  0.45395  0.00000  0.09209
      24     H     0.45440  0.45440  0.00000  0.09120
      25     H     0.45537  0.45537  0.00000  0.08927
      26     H     0.44830  0.44830  0.00000  0.10339
      27     H     0.45548  0.45548  0.00000  0.08905

   Total alpha = 37.00000, Total beta = 37.00000, Total charge = -0.00000

*** Psi4 exiting successfully. Buy a developer a beer!
