  ==> Input File <==

--------------------------------------------------------------------------
set {
	reference rhf
	basis 6-31G*
}

set_num_threads( 1 )
memory 2 gb

molecule MOL {
0 1

O	 3.225979	 0.970355	 -0.599647
C	 2.701189	 0.057885	 -0.047330
C	 1.245376	 -0.013843	 0.345420
O	 3.347903	 -1.046386	 0.304773
C	 0.455112	 1.231400	 -0.050772
H	 0.838542	 -0.913825	 -0.103701
H	 1.208210	 -0.175333	 1.419774
C	 -0.998893	 1.219485	 0.433193
H	 0.482531	 1.345121	 -1.130325
H	 0.957290	 2.103070	 0.354729
C	 -2.034752	 0.883911	 -0.643607
H	 -1.226525	 2.202066	 0.839936
H	 -1.099549	 0.519749	 1.261594
C	 -3.474828	 0.992612	 -0.138271
H	 -1.899634	 1.554168	 -1.491143
H	 -1.870213	 -0.122800	 -1.021009
C	 -4.518451	 0.654412	 -1.204387
H	 -3.651890	 2.001970	 0.229264
H	 -3.607625	 0.330567	 0.715990
C	 -5.953996	 0.769097	 -0.692765
H	 -4.386532	 1.314392	 -2.059177
H	 -4.345782	 -0.355730	 -1.569873
H	 -6.670135	 0.523342	 -1.470813
H	 -6.169265	 1.777896	 -0.351914
H	 -6.127914	 0.095327	 0.141537
C	 4.728119	 -1.109107	 -0.004993
H	 4.882018	 -1.033965	 -1.071845
H	 5.068212	 -2.067527	 0.355250
H	 5.265056	 -0.311663	 0.488280

	symmetry c1
}
set optking {
	frozen_dihedral = ("
		21 17 14 11,
		17 14 11 15,
		15 11 8 5,
		6 3 5 9,
		2 4 26 27,
		1 2 4 26,
		6 3 2 1
	")
}

ee = energy('scf')
oeprop('DIPOLE', 'QUADRUPOLE', 'MULLIKEN_CHARGES')
f=open( 'psi4out.xyz', 'w' )
f.write( "29  " )
f.write( str(ee) + "\n" )
f.write( MOL.save_string_xyz() )
f.close()
--------------------------------------------------------------------------

    Molecular point group: c1

    Geometry (in Angstrom), charge = 0, multiplicity = 1:

       Center              X                  Y                   Z               Mass
    ------------   -----------------  -----------------  -----------------  -----------------
           O          3.299291315171     0.566450476803    -0.389333599082    15.994914619560
           C          2.774501315171    -0.346019523197     0.162983400918    12.000000000000
           C          1.318688315171    -0.417747523197     0.555733400918    12.000000000000
           O          3.421215315171    -1.450290523197     0.515086400918    15.994914619560
           C          0.528424315171     0.827495476803     0.159541400918    12.000000000000
           H          0.911854315171    -1.317729523197     0.106612400918     1.007825032070
           H          1.281522315171    -0.579237523197     1.630087400918     1.007825032070
           C         -0.925580684829     0.815580476803     0.643506400918    12.000000000000
           H          0.555843315171     0.941216476803    -0.920011599082     1.007825032070
           H          1.030602315171     1.699165476803     0.565042400918     1.007825032070
           C         -1.961439684829     0.480006476803    -0.433293599082    12.000000000000
           H         -1.153212684829     1.798161476803     1.050249400918     1.007825032070
           H         -1.026236684829     0.115844476803     1.471907400918     1.007825032070
           C         -3.401515684829     0.588707476803     0.072042400918    12.000000000000
           H         -1.826321684829     1.150263476803    -1.280829599082     1.007825032070
           H         -1.796900684829    -0.526704523197    -0.810695599082     1.007825032070
           C         -4.445138684829     0.250507476803    -0.994073599082    12.000000000000
           H         -3.578577684829     1.598065476803     0.439577400918     1.007825032070
           H         -3.534312684829    -0.073337523197     0.926303400918     1.007825032070
           C         -5.880683684829     0.365192476803    -0.482451599082    12.000000000000
           H         -4.313219684829     0.910487476803    -1.848863599082     1.007825032070
           H         -4.272469684829    -0.759634523197    -1.359559599082     1.007825032070
           H         -6.596822684829     0.119437476803    -1.260499599082     1.007825032070
           H         -6.095952684829     1.373991476803    -0.141600599082     1.007825032070
           H         -6.054601684829    -0.308577523197     0.351850400918     1.007825032070
           C          4.801431315171    -1.513011523197     0.205320400918    12.000000000000
           H          4.955330315171    -1.437869523197    -0.861531599082     1.007825032070
           H          5.141524315171    -2.471431523197     0.565563400918     1.007825032070
           H          5.338368315171    -0.715567523197     0.698593400918     1.007825032070

  Charge       = 0
  Multiplicity = 1
  Basis Set: 6-31G*
  Basis Set:

    Orbital Energies (a.u.)
    -----------------------

    Doubly Occupied:

       1A    -20.603340     2A    -20.545275     3A    -11.371817
       4A    -11.280668     5A    -11.235475     6A    -11.217836
       7A    -11.216418     8A    -11.215399     9A    -11.215182
      10A    -11.213535    11A    -11.208537    12A     -1.469072
      13A     -1.362522    14A     -1.096793    15A     -1.066947
      16A     -1.019895    17A     -0.977342    18A     -0.927678
      19A     -0.858478    20A     -0.799871    21A     -0.790189
      22A     -0.766342    23A     -0.700046    24A     -0.682114
      25A     -0.672451    26A     -0.649309    27A     -0.627994
      28A     -0.604011    29A     -0.595760    30A     -0.581845
      31A     -0.566062    32A     -0.547176    33A     -0.533430
      34A     -0.530035    35A     -0.515010    36A     -0.505394
      37A     -0.500858    38A     -0.477490    39A     -0.468666
      40A     -0.462096    41A     -0.458887    42A     -0.455645
      43A     -0.441729    44A     -0.432837

  @DF-RHF Final Energy:  -501.04054079574132

   => Energetics <=

    Nuclear Repulsion Energy =            605.4289695807427734
    One-Electron Energy =               -1882.0039098353306599
    Two-Electron Energy =                 775.5343994588447458
    DFT Exchange-Correlation Energy =       0.0000000000000000
    Empirical Dispersion Energy =           0.0000000000000000
    PCM Polarization Energy =               0.0000000000000000
    EFP Energy =                            0.0000000000000000
    Total Energy =                       -501.0405407957432544

  Mulliken Charges: (a.u.)
   Center  Symbol    Alpha    Beta     Spin     Total
       1     O     4.28588  4.28588  0.00000 -0.57176
       2     C     2.60573  2.60573  0.00000  0.78853
       3     C     3.20891  3.20891  0.00000 -0.41783
       4     O     4.30759  4.30759  0.00000 -0.61517
       5     C     3.15561  3.15561  0.00000 -0.31121
       6     H     0.40027  0.40027  0.00000  0.19946
       7     H     0.40049  0.40049  0.00000  0.19901
       8     C     3.15809  3.15809  0.00000 -0.31619
       9     H     0.41087  0.41087  0.00000  0.17826
      10     H     0.40829  0.40829  0.00000  0.18342
      11     C     3.15307  3.15307  0.00000 -0.30614
      12     H     0.41848  0.41848  0.00000  0.16304
      13     H     0.42294  0.42294  0.00000  0.15413
      14     C     3.15136  3.15136  0.00000 -0.30272
      15     H     0.42141  0.42141  0.00000  0.15719
      16     H     0.42446  0.42446  0.00000  0.15109
      17     C     3.15146  3.15146  0.00000 -0.30291
      18     H     0.42345  0.42345  0.00000  0.15311
      19     H     0.42426  0.42426  0.00000  0.15148
      20     C     3.23927  3.23927  0.00000 -0.47853
      21     H     0.42265  0.42265  0.00000  0.15470
      22     H     0.42339  0.42339  0.00000  0.15323
      23     H     0.41928  0.41928  0.00000  0.16144
      24     H     0.42165  0.42165  0.00000  0.15669
      25     H     0.42198  0.42198  0.00000  0.15604
      26     C     3.09243  3.09243  0.00000 -0.18485
      27     H     0.40909  0.40909  0.00000  0.18182
      28     H     0.40853  0.40853  0.00000  0.18295
      29     H     0.40913  0.40913  0.00000  0.18173

   Total alpha = 44.00000, Total beta = 44.00000, Total charge =  0.00000
