                              Psi4 1.0.54 Driver

  ==> Input File <==

--------------------------------------------------------------------------
set {
	reference rhf
	basis cc-pvtz
}

set_num_threads( 4 )
memory 2 gb

molecule MOL {
0 1

O	 2.869405	 1.351809	 -0.060311
C	 2.841259	 0.166180	 -0.000295
C	 1.542794	 -0.614730	 -0.000853
C	 4.112089	 -0.649028	 0.081261
C	 0.288398	 0.247429	 0.000314
H	 1.557171	 -1.273139	 -0.866508
H	 1.557484	 -1.274998	 0.863344
C	 -0.993089	 -0.581367	 -0.000217
H	 0.305153	 0.900562	 -0.864701
H	 0.305567	 0.898805	 0.866656
C	 -2.258482	 0.271340	 0.000669
H	 -1.002280	 -1.233920	 -0.870484
H	 -1.002061	 -1.235367	 0.868958
C	 -3.544441	 -0.550271	 -0.000253
H	 -2.250545	 0.925250	 -0.867923
H	 -2.250598	 0.923423	 0.870642
C	 -4.804551	 0.308747	 0.000556
H	 -3.553737	 -1.201524	 -0.870151
H	 -3.553831	 -1.203282	 0.868313
H	 -4.842050	 0.949078	 -0.874436
H	 -5.698404	 -0.304480	 -0.000254
H	 -4.842277	 0.947103	 0.876982
H	 4.170193	 -1.336041	 -0.755809
H	 4.968947	 0.006809	 0.073262
H	 4.116657	 -1.244563	 0.987549

	symmetry c1
}
set optking {
	frozen_dihedral = ("
		1 2 3 6
	")
}

ee,wfn = optimize('scf', return_wfn=True)
oeprop( wfn, 'DIPOLE', 'QUADRUPOLE', 'MULLIKEN_CHARGES')
f=open( 'psi4out.xyz', 'w' )
f.write( "25  " )
f.write( str(ee) + "\n" )
f.write( MOL.save_string_xyz() )
f.close()
--------------------------------------------------------------------------

    Molecular point group: c1
  Charge       = 0
  Multiplicity = 1
  Basis Set: CC-PVTZ
  Basis Set:
  @DF-RHF Final Energy:  -387.27465330417169
    Total Energy =                       -387.2746533041714656
    Molecular point group: c1
  Basis Set: CC-PVTZ
  Basis Set:
  Basis Set: CC-PVTZ
  Basis Set:
  @DF-RHF Final Energy:  -387.27456043193786
    Total Energy =                       -387.2745604319381982
  Basis Set: CC-PVTZ
  Basis Set:
  Basis Set: CC-PVTZ
  Basis Set:
  @DF-RHF Final Energy:  -387.27466238371409
    Total Energy =                       -387.2746623837140305
  Basis Set: CC-PVTZ
  Basis Set:
  Basis Set: CC-PVTZ
  Basis Set:
  @DF-RHF Final Energy:  -387.27466535874817
    Total Energy =                       -387.2746653587482797
  Basis Set: CC-PVTZ
  Basis Set:
  Basis Set: CC-PVTZ
  Basis Set:
  @DF-RHF Final Energy:  -387.27466768873177
    Total Energy =                       -387.2746676887319381
  Basis Set: CC-PVTZ
  Basis Set:
  Basis Set: CC-PVTZ
  Basis Set:
  @DF-RHF Final Energy:  -387.27466943908320
    Total Energy =                       -387.2746694390832545
  Basis Set: CC-PVTZ
  Basis Set:
  Charge       = 0
  Multiplicity = 1
  Basis Set: CC-PVTZ
  Basis Set:

    Orbital Energies (a.u.)
    -----------------------

    Doubly Occupied:

       1A    -20.538827     2A    -11.320519     3A    -11.230184
       4A    -11.226643     5A    -11.215268     6A    -11.214648
       7A    -11.213555     8A    -11.211533     9A    -11.206467
      10A     -1.398903    11A     -1.095225    12A     -1.057696
      13A     -1.015584    14A     -0.970201    15A     -0.891567
      16A     -0.814756    17A     -0.791434    18A     -0.730995
      19A     -0.662929    20A     -0.654256    21A     -0.633257
      22A     -0.626830    23A     -0.596861    24A     -0.585339
      25A     -0.567747    26A     -0.559893    27A     -0.541498
      28A     -0.527267    29A     -0.513212    30A     -0.491712
      31A     -0.490276    32A     -0.473706    33A     -0.464005
      34A     -0.463003    35A     -0.452840    36A     -0.401364

  @DF-RHF Final Energy:  -387.27467003898772

   => Energetics <=

    Nuclear Repulsion Energy =            439.1206208553600732
    One-Electron Energy =               -1395.0905818569895018
    Two-Electron Energy =                 568.6952909626422752
    DFT Exchange-Correlation Energy =       0.0000000000000000
    Empirical Dispersion Energy =           0.0000000000000000
    PCM Polarization Energy =               0.0000000000000000
    EFP Energy =                            0.0000000000000000
    Total Energy =                       -387.2746700389870966
    Molecular point group: c1
  Basis Set: CC-PVTZ
  Basis Set:

  -Total Gradient:
     Atom            X                  Y                   Z
    ------   -----------------  -----------------  -----------------
       1       -0.000008503621    -0.000008098195    -0.000037911453
       2        0.000015065951     0.000012560297     0.000050157301
       3        0.000014547321    -0.000042103607    -0.000005120931
       4       -0.000028218083     0.000076468921    -0.000008785086
       5       -0.000007745252     0.000006409482     0.000035468899
       6       -0.000013437690     0.000016939766    -0.000025106722
       7       -0.000001552908     0.000010937497    -0.000007381991
       8       -0.000000794154     0.000001460961    -0.000014670069
       9        0.000004380380    -0.000014074618     0.000001254042
      10       -0.000006795013     0.000016008459     0.000002307155
      11       -0.000002074292     0.000001508883    -0.000002333394
      12       -0.000004053642    -0.000000974383    -0.000007088263
      13        0.000004176428    -0.000003020114    -0.000002030735
      14        0.000003265267    -0.000002136123     0.000003716070
      15        0.000001847151    -0.000003737365    -0.000003736714
      16       -0.000000962507     0.000006591302    -0.000000611570
      17       -0.000000567055     0.000001370987     0.000007636394
      18        0.000002006393     0.000001005361    -0.000003891178
      19       -0.000001380487    -0.000006165112     0.000002447590
      20        0.000001028863     0.000000615866    -0.000003154179
      21        0.000001253459    -0.000001524883     0.000001443556
      22       -0.000002018283     0.000004372059     0.000003139217
      23       -0.000003961433    -0.000062314702    -0.000054734267
      24        0.000041585677     0.000035835535    -0.000003044546
      25       -0.000007092465    -0.000047936265     0.000072030873

  **** Optimization is complete! (in 7 steps) ****
    Final optimized geometry and variables:
    Molecular point group: c1

    Geometry (in Angstrom), charge = 0, multiplicity = 1:

    O            2.869271472374     1.352156918875    -0.057392194035
    C            2.841315444229     0.166329014487    -0.002767074677
    C            1.542891898284    -0.614772942158    -0.002395094000
    C            4.112293054301    -0.649346195691     0.072058176245
    C            0.288399380986     0.247279827207     0.000121273193
    H            1.558562598396    -1.267647186594    -0.872482637295
    H            1.556700288472    -1.280262232838     0.857549667772
    C           -0.993092848076    -0.581490823841    -0.005547842409
    H            0.306855528922     0.903796513004    -0.862015708837
    H            0.303780633262     0.895288099278     0.869364039931
    C           -2.258462454706     0.271197657598    -0.001005839869
    H           -1.001564909591    -1.229309427335    -0.879367085490
    H           -1.002757330213    -1.240221712889     0.860063742327
    C           -3.544376167844    -0.550431400561    -0.005419674325
    H           -2.250483870098     0.928882540075    -0.866749155370
    H           -2.250629683228     0.919516455371     0.871812001594
    C           -4.804509256723     0.308523846093     0.000289703531
    H           -3.554058422330    -1.197307971680    -0.878581990901
    H           -3.553367666919    -1.207812272466     0.859881617426
    H           -4.842555491069     0.953065929691    -0.871598140054
    H           -5.698331567118    -0.304761069222    -0.002935688587
    H           -4.841752895698     0.942669051923     0.879812120637
    H            4.135323359321    -1.390663480837    -0.718890645886
    H            4.970193560807     0.000288565588    -0.009441884784
    H            4.150829159704    -1.183393569162     1.015587489994

  Mulliken Charges: (a.u.)
   Center  Symbol    Alpha    Beta     Spin     Total
       1     O     4.17087  4.17087  0.00000 -0.34173
       2     C     2.86217  2.86217  0.00000  0.27567
       3     C     3.11416  3.11416  0.00000 -0.22831
       4     C     3.15127  3.15127  0.00000 -0.30254
       5     C     3.08305  3.08305  0.00000 -0.16611
       6     H     0.44520  0.44520  0.00000  0.10961
       7     H     0.44591  0.44591  0.00000  0.10818
       8     C     3.09009  3.09009  0.00000 -0.18017
       9     H     0.44526  0.44526  0.00000  0.10947
      10     H     0.44684  0.44684  0.00000  0.10632
      11     C     3.08613  3.08613  0.00000 -0.17226
      12     H     0.45593  0.45593  0.00000  0.08813
      13     H     0.45613  0.45613  0.00000  0.08773
      14     C     3.08430  3.08430  0.00000 -0.16859
      15     H     0.45372  0.45372  0.00000  0.09257
      16     H     0.45390  0.45390  0.00000  0.09219
      17     C     3.15037  3.15037  0.00000 -0.30073
      18     H     0.45516  0.45516  0.00000  0.08969
      19     H     0.45522  0.45522  0.00000  0.08956
      20     H     0.45476  0.45476  0.00000  0.09049
      21     H     0.44868  0.44868  0.00000  0.10264
      22     H     0.45482  0.45482  0.00000  0.09037
      23     H     0.45092  0.45092  0.00000  0.09816
      24     H     0.43538  0.43538  0.00000  0.12924
      25     H     0.44977  0.44977  0.00000  0.10046

   Total alpha = 36.00000, Total beta = 36.00000, Total charge = -0.00000

*** Psi4 exiting successfully. Buy a developer a beer!
