                              Psi4 1.0.54 Driver

  ==> Input File <==

--------------------------------------------------------------------------
set {
	reference rhf
	basis cc-pvtz
}

set_num_threads( 4 )
memory 2 gb

molecule MOL {
0 1

O	 0.518615	 -0.711110	 2.207200
C	 -0.015594	 -0.935350	 1.175591
C	 -1.402285	 -1.492708	 1.026946
O	 0.550743	 -0.719877	 0.000412
H	 -2.012151	 -0.801975	 0.459181
H	 -1.832948	 -1.654653	 2.001541
H	 -1.361918	 -2.424091	 0.477098
C	 1.863204	 -0.194033	 0.000410
H	 2.031502	 0.409177	 -0.879273
H	 2.524488	 -1.045142	 0.000793
H	 2.031291	 0.409823	 0.879686

	symmetry c1
}
set optking {
	frozen_dihedral = ("
		2 4 8 9
	")
}

ee,wfn = optimize('scf', return_wfn=True)
oeprop( wfn, 'DIPOLE', 'QUADRUPOLE', 'MULLIKEN_CHARGES')
f=open( 'psi4out.xyz', 'w' )
f.write( "11  " )
f.write( str(ee) + "\n" )
f.write( MOL.save_string_xyz() )
f.close()
--------------------------------------------------------------------------

    Molecular point group: c1
  Charge       = 0
  Multiplicity = 1
  Basis Set: CC-PVTZ
  Basis Set:
  @DF-RHF Final Energy:  -266.93681867957196
    Total Energy =                       -266.9368186795720135
    Molecular point group: c1
  Basis Set: CC-PVTZ
  Basis Set:
  Basis Set: CC-PVTZ
  Basis Set:
  @DF-RHF Final Energy:  -266.63638996809198
    Total Energy =                       -266.6363899680920326
  Basis Set: CC-PVTZ
  Basis Set:
  Basis Set: CC-PVTZ
  Basis Set:
  @DF-RHF Final Energy:  -266.79819740513227
    Total Energy =                       -266.7981974051319867
  Basis Set: CC-PVTZ
  Basis Set:
  Basis Set: CC-PVTZ
  Basis Set:
  @DF-RHF Final Energy:  -266.91735620379507
    Total Energy =                       -266.9173562037950660
  Basis Set: CC-PVTZ
  Basis Set:
  @DF-RHF Final Energy:  -266.92772143006744
    Total Energy =                       -266.9277214300675496
  @DF-RHF Final Energy:  -266.93612047913956
    Total Energy =                       -266.9361204791394471
  @DF-RHF Final Energy:  -266.93767227637136
    Total Energy =                       -266.9376722763711314
  Basis Set: CC-PVTZ
  Basis Set:
  @DF-RHF Final Energy:  -266.93732956406188
    Total Energy =                       -266.9373295640619403
  Basis Set: CC-PVTZ
  Basis Set:
  Basis Set: CC-PVTZ
  Basis Set:
  @DF-RHF Final Energy:  -266.93811005403893
    Total Energy =                       -266.9381100540390435
  Basis Set: CC-PVTZ
  Basis Set:
  Basis Set: CC-PVTZ
  Basis Set:
  @DF-RHF Final Energy:  -266.93811522683683
    Total Energy =                       -266.9381152268369988
  Basis Set: CC-PVTZ
  Basis Set:
  Charge       = 0
  Multiplicity = 1
  Basis Set: CC-PVTZ
  Basis Set:

    Orbital Energies (a.u.)
    -----------------------

    Doubly Occupied:

       1A    -20.598197     2A    -20.534842     3A    -11.369508
       4A    -11.279264     5A    -11.232868     6A     -1.472820
       7A     -1.367966     8A     -1.036976     9A     -0.953995
      10A     -0.779684    11A     -0.698673    12A     -0.683503
      13A     -0.681005    14A     -0.597701    15A     -0.592495
      16A     -0.561608    17A     -0.529522    18A     -0.521971
      19A     -0.460784    20A     -0.445754

  @DF-RHF Final Energy:  -266.93811539339652

   => Energetics <=

    Nuclear Repulsion Energy =            183.4422891420641974
    One-Electron Energy =                -727.9625361819154250
    Two-Electron Energy =                 277.5821316464546271
    DFT Exchange-Correlation Energy =       0.0000000000000000
    Empirical Dispersion Energy =           0.0000000000000000
    PCM Polarization Energy =               0.0000000000000000
    EFP Energy =                            0.0000000000000000
    Total Energy =                       -266.9381153933966289
    Molecular point group: c1
  Basis Set: CC-PVTZ
  Basis Set:

  -Total Gradient:
     Atom            X                  Y                   Z
    ------   -----------------  -----------------  -----------------
       1       -0.000005431821    -0.000001097547     0.000021709079
       2       -0.000476839314     0.000974102902    -0.000930691528
       3       -0.000020047560     0.000023890345    -0.000002776604
       4        0.000597860287    -0.001128039832     0.001245617938
       5        0.000001579837    -0.000010628160    -0.000001160138
       6       -0.000005792212    -0.000000150542     0.000009863443
       7        0.000005771019    -0.000000927290     0.000010094065
       8        0.000445327514    -0.001342154192    -0.000155603636
       9       -0.000534254328     0.001491774666    -0.000204156346
      10       -0.000007730246    -0.000008054566     0.000005648889
      11       -0.000000443176     0.000001284217     0.000001454839

  **** Optimization is complete! (in 11 steps) ****
    Final optimized geometry and variables:
    Molecular point group: c1

    Geometry (in Angstrom), charge = 0, multiplicity = 1:

    O            0.121304405805     0.879353206230     1.034078117057
    C           -0.354053879270     0.074876755353     0.308676477063
    C           -1.746297862109    -0.475322593497     0.433140327670
    O            0.282922453843    -0.458609739769    -0.720654677428
    H           -2.298682479023    -0.275734402277    -0.475862086440
    H           -2.240074626514    -0.021297473580     1.276706991072
    H           -1.700802961477    -1.549125580464     0.561089750971
    C            1.599953050336    -0.024788259098    -1.001137946310
    H            1.734303404055    -0.121502313987    -2.066817167017
    H            2.311321710290    -0.648272466639    -0.477967727707
    H            1.736722837642     1.001617644517    -0.703714786769

  Mulliken Charges: (a.u.)
   Center  Symbol    Alpha    Beta     Spin     Total
       1     O     4.19700  4.19700  0.00000 -0.39399
       2     C     2.79966  2.79966  0.00000  0.40067
       3     C     3.13910  3.13910  0.00000 -0.27820
       4     O     4.14899  4.14899  0.00000 -0.29799
       5     H     0.44578  0.44578  0.00000  0.10845
       6     H     0.43792  0.43792  0.00000  0.12416
       7     H     0.44527  0.44527  0.00000  0.10945
       8     C     3.03431  3.03431  0.00000 -0.06862
       9     H     0.44812  0.44812  0.00000  0.10375
      10     H     0.45620  0.45620  0.00000  0.08761
      11     H     0.44765  0.44765  0.00000  0.10470

   Total alpha = 20.00000, Total beta = 20.00000, Total charge =  0.00000

*** Psi4 exiting successfully. Buy a developer a beer!
