  ==> Input File <==

--------------------------------------------------------------------------
set {
	reference rhf
	basis 6-31G*
}

set_num_threads( 1 )
memory 2 gb

molecule MOL {
0 1

H	 -4.031818	 -0.453427	 -0.000094
C	 -2.967712	 -0.297022	 -0.000064
C	 -2.458620	 0.992929	 0.000032
C	 -2.109895	 -1.385637	 -0.000122
H	 -3.124998	 1.836319	 0.000077
C	 -1.090278	 1.193236	 0.000070
H	 -2.506361	 -2.384847	 -0.000198
C	 -0.739812	 -1.187531	 -0.000085
H	 -0.678594	 2.184290	 0.000146
C	 -0.226438	 0.104061	 0.000012
H	 -0.072310	 -2.027032	 -0.000131
C	 1.239129	 0.373821	 0.000060
O	 1.532427	 1.648120	 -0.211463
O	 2.069795	 -0.462505	 0.171558
C	 2.905922	 1.994423	 -0.227498
H	 3.365585	 1.762775	 0.722157
H	 2.938799	 3.057016	 -0.410990
H	 3.421388	 1.461321	 -1.013001

	symmetry c1
}
set optking {
	frozen_dihedral = ("
		12 13 15 16,
		10 12 13 15
	")
}

ee = energy('scf')
oeprop('DIPOLE', 'QUADRUPOLE', 'MULLIKEN_CHARGES')
f=open( 'psi4out.xyz', 'w' )
f.write( "18  " )
f.write( str(ee) + "\n" )
f.write( MOL.save_string_xyz() )
f.close()
--------------------------------------------------------------------------

    Molecular point group: c1

    Geometry (in Angstrom), charge = 0, multiplicity = 1:

       Center              X                  Y                   Z               Mass
    ------------   -----------------  -----------------  -----------------  -----------------
           H         -3.969717604288    -0.790812565172     0.029871980921     1.007825032070
           C         -2.905611604288    -0.634407565172     0.029901980921    12.000000000000
           C         -2.396519604288     0.655543434828     0.029997980921    12.000000000000
           C         -2.047794604288    -1.723022565172     0.029843980921    12.000000000000
           H         -3.062897604288     1.498933434828     0.030042980921     1.007825032070
           C         -1.028177604288     0.855850434828     0.030035980921    12.000000000000
           H         -2.444260604288    -2.722232565172     0.029767980921     1.007825032070
           C         -0.677711604288    -1.524916565172     0.029880980921    12.000000000000
           H         -0.616493604288     1.846904434828     0.030111980921     1.007825032070
           C         -0.164337604288    -0.233324565172     0.029977980921    12.000000000000
           H         -0.010209604288    -2.364417565172     0.029834980921     1.007825032070
           C          1.301229395712     0.036435434828     0.030025980921    12.000000000000
           O          1.594527395712     1.310734434828    -0.181497019079    15.994914619560
           O          2.131895395712    -0.799890565172     0.201523980921    15.994914619560
           C          2.968022395712     1.657037434828    -0.197532019079    12.000000000000
           H          3.427685395712     1.425389434828     0.752122980921     1.007825032070
           H          3.000899395712     2.719630434828    -0.381024019079     1.007825032070
           H          3.483488395712     1.123935434828    -0.983035019079     1.007825032070

  Charge       = 0
  Multiplicity = 1
  Basis Set: 6-31G*
  Basis Set:

    Orbital Energies (a.u.)
    -----------------------

    Doubly Occupied:

       1A    -20.608171     2A    -20.543883     3A    -11.377540
       4A    -11.283589     5A    -11.245813     6A    -11.245133
       7A    -11.244151     8A    -11.241754     9A    -11.237602
      10A    -11.236931    11A     -1.473226    12A     -1.363451
      13A     -1.165518    14A     -1.049133    15A     -1.024803
      16A     -0.977910    17A     -0.860066    18A     -0.834614
      19A     -0.777899    20A     -0.740387    21A     -0.684507
      22A     -0.677984    23A     -0.670987    24A     -0.632114
      25A     -0.623268    26A     -0.598523    27A     -0.584704
      28A     -0.560727    29A     -0.529740    30A     -0.519552
      31A     -0.503605    32A     -0.497888    33A     -0.459124
      34A     -0.442446    35A     -0.344662    36A     -0.341215

  @DF-RHF Final Energy:  -457.34895389663001

   => Energetics <=

    Nuclear Repulsion Energy =            493.3187243803448041
    One-Electron Energy =               -1600.9302692030219077
    Two-Electron Energy =                 650.2625909260460730
    DFT Exchange-Correlation Energy =       0.0000000000000000
    Empirical Dispersion Energy =           0.0000000000000000
    PCM Polarization Energy =               0.0000000000000000
    EFP Energy =                            0.0000000000000000
    Total Energy =                       -457.3489538966310874

  Mulliken Charges: (a.u.)
   Center  Symbol    Alpha    Beta     Spin     Total
       1     H     0.39546  0.39546  0.00000  0.20908
       2     C     3.09024  3.09024  0.00000 -0.18047
       3     C     3.10612  3.10612  0.00000 -0.21224
       4     C     3.10759  3.10759  0.00000 -0.21517
       5     H     0.39645  0.39645  0.00000  0.20710
       6     C     3.08857  3.08857  0.00000 -0.17714
       7     H     0.39522  0.39522  0.00000  0.20956
       8     C     3.08587  3.08587  0.00000 -0.17175
       9     H     0.37775  0.37775  0.00000  0.24450
      10     C     3.07490  3.07490  0.00000 -0.14981
      11     H     0.37881  0.37881  0.00000  0.24238
      12     C     2.58266  2.58266  0.00000  0.83468
      13     O     4.31495  4.31495  0.00000 -0.62991
      14     O     4.29090  4.29090  0.00000 -0.58179
      15     C     3.09213  3.09213  0.00000 -0.18427
      16     H     0.40729  0.40729  0.00000  0.18543
      17     H     0.40793  0.40793  0.00000  0.18414
      18     H     0.40716  0.40716  0.00000  0.18568

   Total alpha = 36.00000, Total beta = 36.00000, Total charge =  0.00000
