  ==> Input File <==

--------------------------------------------------------------------------
set {
	reference rhf
	basis cc-pvtz
}

set_num_threads( 4 )
memory 2 gb

molecule MOL {
0 1

H	 2.911403	 -0.262939	 -1.954915
O	 1.998053	 -0.461635	 -2.053598
C	 1.276541	 0.027240	 -1.026034
C	 1.857823	 0.727975	 0.019797
C	 -0.086124	 -0.189652	 -1.037091
H	 2.919492	 0.896025	 0.026814
C	 1.076517	 1.209527	 1.050633
H	 -0.538051	 -0.730476	 -1.843387
C	 -0.861704	 0.296439	 0.000000
H	 1.537245	 1.750272	 1.854467
C	 -0.287363	 0.996837	 1.047090
C	 -2.330689	 0.069587	 0.000000
H	 -0.897479	 1.370093	 1.847295
O	 -2.848621	 -0.993976	 0.000000
H	 -2.934306	 0.982410	 0.000000

	symmetry c1
}
set optking {
	frozen_dihedral = ("
		11 9 12 14
	")
}

ee = optimize('scf')
oeprop('DIPOLE', 'QUADRUPOLE', 'MULLIKEN_CHARGES')
f=open( 'psi4out.xyz', 'w' )
f.write( "15  " )
f.write( str(ee) + "\n" )
f.write( MOL.save_string_xyz() )
f.close()
--------------------------------------------------------------------------

    Molecular point group: c1
  Charge       = 0
  Multiplicity = 1
  Basis Set: CC-PVTZ
  Basis Set:
  @DF-RHF Final Energy:  -418.43003870045226
    Total Energy =                       -418.4300387004523145
    Molecular point group: c1
  Basis Set: CC-PVTZ
  Basis Set:
  Basis Set: CC-PVTZ
  Basis Set:
  @DF-RHF Final Energy:  -418.42846584485102
    Total Energy =                       -418.4284658448505070
  Basis Set: CC-PVTZ
  Basis Set:
  Basis Set: CC-PVTZ
  Basis Set:
  @DF-RHF Final Energy:  -418.43050264094228
    Total Energy =                       -418.4305026409416541
  Basis Set: CC-PVTZ
  Basis Set:
  Basis Set: CC-PVTZ
  Basis Set:
  @DF-RHF Final Energy:  -418.43059278885454
    Total Energy =                       -418.4305927888542556
  Basis Set: CC-PVTZ
  Basis Set:
  Basis Set: CC-PVTZ
  Basis Set:
  @DF-RHF Final Energy:  -418.43059453128228
    Total Energy =                       -418.4305945312828499
  Basis Set: CC-PVTZ
  Basis Set:
  Charge       = 0
  Multiplicity = 1
  Basis Set: CC-PVTZ
  Basis Set:

    Orbital Energies (a.u.)
    -----------------------

    Doubly Occupied:

       1A    -20.595823     2A    -20.561336     3A    -11.331511
       4A    -11.311582     5A    -11.254471     6A    -11.249927
       7A    -11.241100     8A    -11.238685     9A    -11.237060
      10A     -1.427700    11A     -1.416136    12A     -1.172572
      13A     -1.050777    14A     -1.028393    15A     -0.901709
      16A     -0.847171    17A     -0.819612    18A     -0.741740
      19A     -0.704390    20A     -0.685711    21A     -0.657019
      22A     -0.643980    23A     -0.616262    24A     -0.607231
      25A     -0.584960    26A     -0.548232    27A     -0.538000
      28A     -0.516513    29A     -0.495993    30A     -0.427198
      31A     -0.357429    32A     -0.328812

  @DF-RHF Final Energy:  -418.43059517716682

   => Energetics <=

    Nuclear Repulsion Energy =            403.5860205517445252
    One-Electron Energy =               -1369.7551685853586605
    Two-Electron Energy =                 547.7385528564471997
    DFT Exchange-Correlation Energy =       0.0000000000000000
    Empirical Dispersion Energy =           0.0000000000000000
    PCM Polarization Energy =               0.0000000000000000
    EFP Energy =                            0.0000000000000000
    Total Energy =                       -418.4305951771669925
    Molecular point group: c1
  Basis Set: CC-PVTZ
  Basis Set:

  -Total Gradient:
     Atom            X                  Y                   Z
    ------   -----------------  -----------------  -----------------
       1       -0.000012266848     0.000019401227    -0.000002308563
       2        0.000014409774     0.000000209206     0.000023913211
       3       -0.000087312765    -0.000079012745    -0.000029693828
       4       -0.000024233488     0.000102588895     0.000042766951
       5        0.000111956828    -0.000004803942    -0.000057961385
       6        0.000006148923    -0.000014253227     0.000000494513
       7        0.000129341042    -0.000044806904    -0.000016285721
       8       -0.000009557265     0.000019838724     0.000008916748
       9       -0.001189532180     0.006185330044    -0.000559296273
      10       -0.000001979585     0.000001899924    -0.000006363301
      11        0.000727228211    -0.004348249012     0.002268158361
      12        0.000197668796    -0.001639947932    -0.007835212723
      13       -0.000000324605     0.000001405801    -0.000001371451
      14        0.000129314197    -0.000172471905     0.006165637115
      15        0.000009138961    -0.000027128157    -0.000001393654

  **** Optimization is complete! (in 6 steps) ****
    Final optimized geometry and variables:
    Molecular point group: c1

    Geometry (in Angstrom), charge = 0, multiplicity = 1:

    H            2.933721937804    -0.444569375096    -1.669547720730
    O            2.016405198363    -0.617954724204    -1.780608542412
    C            1.299639511611    -0.121180619657    -0.754885390643
    C            1.882473214571     0.565559490760     0.294969798905
    C           -0.068499541174    -0.328432082157    -0.772635179673
    H            2.946205089712     0.717858657106     0.313539940913
    C            1.094002675333     1.050650220014     1.320951983422
    H           -0.506272369622    -0.888569992427    -1.574677513791
    C           -0.847615702489     0.183085739386     0.244501146858
    H            1.554663539887     1.571872327290     2.137919376989
    C           -0.273077167336     0.871376446551     1.301216802076
    C           -2.318250348011    -0.088062485273     0.268193955462
    H           -0.882582225344     1.256763318672     2.096308016381
    O           -2.787554408630    -1.171765373382     0.248020826904
    H           -2.959491864461     0.793575376647     0.369220737051

  Mulliken Charges: (a.u.)
   Center  Symbol    Alpha    Beta     Spin     Total
       1     H     0.38666  0.38666  0.00000  0.22667
       2     O     4.17089  4.17089  0.00000 -0.34179
       3     C     2.83679  2.83679  0.00000  0.32641
       4     C     3.13654  3.13654  0.00000 -0.27308
       5     C     3.12840  3.12840  0.00000 -0.25680
       6     H     0.43237  0.43237  0.00000  0.13526
       7     C     3.05700  3.05700  0.00000 -0.11399
       8     H     0.41318  0.41318  0.00000  0.17364
       9     C     2.93594  2.93594  0.00000  0.12812
      10     H     0.41966  0.41966  0.00000  0.16068
      11     C     3.11529  3.11529  0.00000 -0.23058
      12     C     2.92899  2.92899  0.00000  0.14203
      13     H     0.42480  0.42480  0.00000  0.15039
      14     O     4.15786  4.15786  0.00000 -0.31571
      15     H     0.45562  0.45562  0.00000  0.08876

   Total alpha = 32.00000, Total beta = 32.00000, Total charge = -0.00000
