  ==> Input File <==

--------------------------------------------------------------------------
set {
	reference rhf
	basis 6-31G*
}

set_num_threads( 1 )
memory 2 gb

molecule MOL {
0 1

H	 -3.420663	 1.227371	 -1.044276
O	 -3.452007	 0.283848	 -0.965577
C	 -3.181085	 -0.079926	 0.364119
C	 -1.765924	 0.277073	 0.805136
H	 -3.327791	 -1.152017	 0.410903
H	 -3.905698	 0.375695	 1.036898
C	 -0.685460	 -0.196910	 -0.167723
H	 -1.696381	 1.357647	 0.933534
H	 -1.594454	 -0.156373	 1.788977
C	 0.728912	 0.186058	 0.272806
H	 -0.886766	 0.214408	 -1.152102
H	 -0.750853	 -1.278875	 -0.270048
C	 1.805384	 -0.296912	 -0.702916
H	 0.784731	 1.266454	 0.382572
H	 0.926547	 -0.231634	 1.259253
C	 3.245722	 -0.014611	 -0.260324
H	 1.635200	 0.155290	 -1.678747
H	 1.691739	 -1.369897	 -0.842935
C	 3.612483	 1.469295	 -0.197763
H	 3.921921	 -0.511344	 -0.951917
H	 3.418958	 -0.470718	 0.712384
H	 3.437379	 1.954933	 -1.154128
H	 4.662053	 1.596894	 0.049134
H	 3.035712	 1.999311	 0.552958

	symmetry c1
}
set optking {
	frozen_dihedral = ("
		20 16 13 17,
		17 13 10 7,
		13 10 7 11,
		11 7 4 3,
		1 2 3 5
	")
}

ee = energy('scf')
oeprop('DIPOLE', 'QUADRUPOLE', 'MULLIKEN_CHARGES')
f=open( 'psi4out.xyz', 'w' )
f.write( "24  " )
f.write( str(ee) + "\n" )
f.write( MOL.save_string_xyz() )
f.close()
--------------------------------------------------------------------------

    Molecular point group: c1

    Geometry (in Angstrom), charge = 0, multiplicity = 1:

       Center              X                  Y                   Z               Mass
    ------------   -----------------  -----------------  -----------------  -----------------
           H         -3.402574196537     1.006177455584    -0.923266925414     1.007825032070
           O         -3.433918196537     0.062654455584    -0.844567925414    15.994914619560
           C         -3.162996196537    -0.301119544416     0.485128074586    12.000000000000
           C         -1.747835196537     0.055879455584     0.926145074586    12.000000000000
           H         -3.309702196537    -1.373210544416     0.531912074586     1.007825032070
           H         -3.887609196537     0.154501455584     1.157907074586     1.007825032070
           C         -0.667371196537    -0.418103544416    -0.046713925414    12.000000000000
           H         -1.678292196537     1.136453455584     1.054543074586     1.007825032070
           H         -1.576365196537    -0.377566544416     1.909986074586     1.007825032070
           C          0.747000803463    -0.035135544416     0.393815074586    12.000000000000
           H         -0.868677196537    -0.006785544416    -1.031092925414     1.007825032070
           H         -0.732764196537    -1.500068544416    -0.149038925414     1.007825032070
           C          1.823472803463    -0.518105544416    -0.581906925414    12.000000000000
           H          0.802819803463     1.045260455584     0.503581074586     1.007825032070
           H          0.944635803463    -0.452827544416     1.380262074586     1.007825032070
           C          3.263810803463    -0.235804544416    -0.139314925414    12.000000000000
           H          1.653288803463    -0.065903544416    -1.557737925414     1.007825032070
           H          1.709827803463    -1.591090544416    -0.721925925414     1.007825032070
           C          3.630571803463     1.248101455584    -0.076753925414    12.000000000000
           H          3.940009803463    -0.732537544416    -0.830907925414     1.007825032070
           H          3.437046803463    -0.691911544416     0.833393074586     1.007825032070
           H          3.455467803463     1.733739455584    -1.033118925414     1.007825032070
           H          4.680141803463     1.375700455584     0.170143074586     1.007825032070
           H          3.053800803463     1.778117455584     0.673967074586     1.007825032070

  Charge       = 0
  Multiplicity = 1
  Basis Set: 6-31G*
  Basis Set:

    Orbital Energies (a.u.)
    -----------------------

    Doubly Occupied:

       1A    -20.554007     2A    -11.267801     3A    -11.217087
       4A    -11.213946     5A    -11.212123     6A    -11.211360
       7A    -11.210632     8A    -11.207336     9A     -1.360727
      10A     -1.088150    11A     -1.047910    12A     -0.985657
      13A     -0.915450    14A     -0.850673    15A     -0.798992
      16A     -0.776078    17A     -0.679273    18A     -0.654191
      19A     -0.625966    20A     -0.619198    21A     -0.597130
      22A     -0.585573    23A     -0.556128    24A     -0.542608
      25A     -0.513302    26A     -0.507126    27A     -0.501312
      28A     -0.471214    29A     -0.466793    30A     -0.459916
      31A     -0.454183    32A     -0.450386    33A     -0.420227

  @DF-RHF Final Energy:  -349.24696879590738

   => Energetics <=

    Nuclear Repulsion Energy =            385.2007997235100447
    One-Electron Energy =               -1236.8504615399992872
    Two-Electron Energy =                 502.4026930205817507
    DFT Exchange-Correlation Energy =       0.0000000000000000
    Empirical Dispersion Energy =           0.0000000000000000
    PCM Polarization Energy =               0.0000000000000000
    EFP Energy =                            0.0000000000000000
    Total Energy =                       -349.2469687959074918

  Mulliken Charges: (a.u.)
   Center  Symbol    Alpha    Beta     Spin     Total
       1     H     0.28344  0.28344  0.00000  0.43311
       2     O     4.36763  4.36763  0.00000 -0.73526
       3     C     2.99515  2.99515  0.00000  0.00969
       4     C     3.17338  3.17338  0.00000 -0.34675
       5     H     0.41624  0.41624  0.00000  0.16752
       6     H     0.42792  0.42792  0.00000  0.14417
       7     C     3.14907  3.14907  0.00000 -0.29813
       8     H     0.42788  0.42788  0.00000  0.14424
       9     H     0.42140  0.42140  0.00000  0.15720
      10     C     3.15361  3.15361  0.00000 -0.30723
      11     H     0.41386  0.41386  0.00000  0.17228
      12     H     0.42295  0.42295  0.00000  0.15410
      13     C     3.15213  3.15213  0.00000 -0.30426
      14     H     0.42336  0.42336  0.00000  0.15329
      15     H     0.42550  0.42550  0.00000  0.14900
      16     C     3.15227  3.15227  0.00000 -0.30455
      17     H     0.42394  0.42394  0.00000  0.15211
      18     H     0.42187  0.42187  0.00000  0.15626
      19     C     3.24102  3.24102  0.00000 -0.48204
      20     H     0.42108  0.42108  0.00000  0.15784
      21     H     0.42374  0.42374  0.00000  0.15253
      22     H     0.42245  0.42245  0.00000  0.15509
      23     H     0.41955  0.41955  0.00000  0.16091
      24     H     0.42056  0.42056  0.00000  0.15888

   Total alpha = 33.00000, Total beta = 33.00000, Total charge = -0.00000
