  ==> Input File <==

--------------------------------------------------------------------------
set {
	reference rhf
	basis 6-31G*
}

set_num_threads( 4 )
memory 2 gb

molecule MOL {
0 1

H	 -0.403331	 -1.448615	 -2.171489
C	 -0.721802	 -0.415217	 -2.072368
O	 -0.774054	 0.001095	 -0.743181
H	 -1.728080	 -0.331944	 -2.460699
H	 -0.070880	 0.208822	 -2.677405
C	 0.406953	 0.000033	 0.038965
C	 1.527284	 -0.003667	 -0.998752
C	 0.498933	 1.262172	 0.902524
C	 0.494271	 -1.259566	 0.906664
H	 1.452513	 0.873252	 -1.631882
H	 1.448863	 -0.881882	 -1.629595
H	 2.502020	 -0.005104	 -0.521731
H	 0.364280	 2.147110	 0.289513
H	 1.472180	 1.321775	 1.378800
H	 -0.247853	 1.275162	 1.689097
H	 0.356778	 -2.146106	 0.296587
H	 1.467182	 -1.320941	 1.383330
H	 -0.252763	 -1.267328	 1.693119

	symmetry c1
}
set optking {
	frozen_dihedral = ("
		2 3 6 7
	")
}

ee = optimize('scf')
oeprop('DIPOLE', 'QUADRUPOLE', 'MULLIKEN_CHARGES')
f=open( 'psi4out.xyz', 'w' )
f.write( "18  " )
f.write( str(ee) + "\n" )
f.write( MOL.save_string_xyz() )
f.close()
--------------------------------------------------------------------------

    Molecular point group: c1
  Charge       = 0
  Multiplicity = 1
  Basis Set: 6-31G*
  Basis Set:
  @DF-RHF Final Energy:  -271.15803280163624
    Total Energy =                       -271.1580328016364092
    Molecular point group: c1
  Basis Set: 6-31G*
  Basis Set:
  Basis Set: 6-31G*
  Basis Set:
  @DF-RHF Final Energy:  -271.16406032536077
    Total Energy =                       -271.1640603253608788
  Basis Set: 6-31G*
  Basis Set:
  Basis Set: 6-31G*
  Basis Set:
  @DF-RHF Final Energy:  -271.16977574504955
    Total Energy =                       -271.1697757450494350
  Basis Set: 6-31G*
  Basis Set:
  Basis Set: 6-31G*
  Basis Set:
  @DF-RHF Final Energy:  -271.17206725141034
    Total Energy =                       -271.1720672514103398
  Basis Set: 6-31G*
  Basis Set:
  @DF-RHF Final Energy:  -271.17235741022188
    Total Energy =                       -271.1723574102219345
  @DF-RHF Final Energy:  -271.17243842112373
    Total Energy =                       -271.1724384211237293
  Basis Set: 6-31G*
  Basis Set:
  @DF-RHF Final Energy:  -271.17245389401381
    Total Energy =                       -271.1724538940135858
  Basis Set: 6-31G*
  Basis Set:
  Basis Set: 6-31G*
  Basis Set:
  @DF-RHF Final Energy:  -271.17245974735170
    Total Energy =                       -271.1724597473515814
  Basis Set: 6-31G*
  Basis Set:
  Basis Set: 6-31G*
  Basis Set:
  @DF-RHF Final Energy:  -271.17246143900064
    Total Energy =                       -271.1724614390008128
  Basis Set: 6-31G*
  Basis Set:
  Charge       = 0
  Multiplicity = 1
  Basis Set: 6-31G*
  Basis Set:

    Orbital Energies (a.u.)
    -----------------------

    Doubly Occupied:

       1A    -20.544317     2A    -11.281698     3A    -11.262002
       4A    -11.213360     5A    -11.203994     6A    -11.203524
       7A     -1.367144     8A     -1.073717     9A     -0.950574
      10A     -0.934828    11A     -0.911847    12A     -0.751428
      13A     -0.656392    14A     -0.645745    15A     -0.637027
      16A     -0.584379    17A     -0.575691    18A     -0.549982
      19A     -0.539292    20A     -0.525851    21A     -0.514968
      22A     -0.490452    23A     -0.483437    24A     -0.441680
      25A     -0.397192

  @DF-RHF Final Energy:  -271.17246137556401

   => Energetics <=

    Nuclear Repulsion Energy =            271.9022994726943807
    One-Electron Energy =                -906.6684731958625889
    Two-Electron Energy =                 363.5937123476041961
    DFT Exchange-Correlation Energy =       0.0000000000000000
    Empirical Dispersion Energy =           0.0000000000000000
    PCM Polarization Energy =               0.0000000000000000
    EFP Energy =                            0.0000000000000000
    Total Energy =                       -271.1724613755640121
    Molecular point group: c1
  Basis Set: 6-31G*
  Basis Set:

  -Total Gradient:
     Atom            X                  Y                   Z
    ------   -----------------  -----------------  -----------------
       1        0.000006844328    -0.000001754269    -0.000001142547
       2        0.000467610182     0.002888486271    -0.000931886266
       3       -0.000681488042    -0.005500610483     0.001379696238
       4       -0.000001595933    -0.000006600679    -0.000019880827
       5       -0.000022262815    -0.000014217849     0.000002685826
       6        0.000316329237     0.005206801837    -0.000416419812
       7       -0.000008835626    -0.002589181256    -0.000089446943
       8       -0.000016546965     0.000014886120     0.000046941324
       9       -0.000037397595    -0.000007167830     0.000022460114
      10        0.000035887634     0.000001646754     0.000007924013
      11        0.000009230134     0.000002527990    -0.000025136962
      12       -0.000035596565    -0.000008191170     0.000011924290
      13        0.000002666603    -0.000003136527    -0.000008011611
      14       -0.000016453432     0.000001275198     0.000001549451
      15       -0.000006253559     0.000030114708     0.000016014789
      16       -0.000008610030    -0.000006247958     0.000001409551
      17       -0.000004976859     0.000004927852    -0.000019783024
      18        0.000001449306    -0.000013558710     0.000021102398

  **** Optimization is complete! (in 10 steps) ****
    Final optimized geometry and variables:
    Molecular point group: c1

    Geometry (in Angstrom), charge = 0, multiplicity = 1:

    H           -0.785570533443    -1.347192819436    -1.827118739694
    C           -1.118961101930    -0.323942835832    -1.670333278805
    O           -1.013379073719     0.075633828681    -0.340624356700
    H           -2.169760764040    -0.269743427964    -1.922457136665
    H           -0.571752865187     0.325980671967    -2.345664301444
    C            0.238495978633     0.067546808659     0.333176718222
    C            1.446937037439     0.068751898895    -0.608136359698
    C            0.238262407149     1.327878626984     1.194573620891
    C            0.270588700141    -1.186193183620     1.211851131962
    H            1.445504071614     0.935804595199    -1.260288391478
    H            1.489171575893    -0.823445636245    -1.222265386325
    H            2.356645297995     0.102599165538    -0.018506818476
    H            0.209786200133     2.212975100545     0.568052530048
    H            1.123488270608     1.375748061286     1.821254842232
    H           -0.637503356935     1.340312200550     1.833311505620
    H            0.220688454400    -2.082334328984     0.600776038346
    H            1.179123436149    -1.232550528896     1.804776593418
    H           -0.580445492004    -1.191294613044     1.883467259214

  Mulliken Charges: (a.u.)
   Center  Symbol    Alpha    Beta     Spin     Total
       1     H     0.43204  0.43204  0.00000  0.13591
       2     C     3.07596  3.07596  0.00000 -0.15192
       3     O     4.32407  4.32407  0.00000 -0.64814
       4     H     0.41245  0.41245  0.00000  0.17510
       5     H     0.42881  0.42881  0.00000  0.14237
       6     C     2.84013  2.84013  0.00000  0.31975
       7     C     3.25754  3.25754  0.00000 -0.51509
       8     C     3.23170  3.23170  0.00000 -0.46340
       9     C     3.23344  3.23344  0.00000 -0.46688
      10     H     0.41491  0.41491  0.00000  0.17019
      11     H     0.41666  0.41666  0.00000  0.16668
      12     H     0.41470  0.41470  0.00000  0.17059
      13     H     0.41815  0.41815  0.00000  0.16370
      14     H     0.42570  0.42570  0.00000  0.14859
      15     H     0.41284  0.41284  0.00000  0.17433
      16     H     0.42154  0.42154  0.00000  0.15691
      17     H     0.42561  0.42561  0.00000  0.14879
      18     H     0.41374  0.41374  0.00000  0.17252

   Total alpha = 25.00000, Total beta = 25.00000, Total charge = -0.00000
