  ==> Input File <==

--------------------------------------------------------------------------
set {
	reference rhf
	basis 6-31G*
}

set_num_threads( 1 )
memory 2 gb

molecule MOL {
0 1

H	 -4.044423	 0.567019	 -0.682703
C	 -3.363999	 -0.071563	 -0.153651
C	 -2.076860	 -0.007332	 -0.404944
H	 -3.760821	 -0.753007	 0.575099
O	 -1.180634	 -0.819263	 0.215062
H	 -1.658684	 0.673090	 -1.125604
C	 0.051604	 -1.018856	 -0.387932
C	 1.043764	 0.054862	 -0.001873
H	 -0.017620	 -1.041351	 -1.469781
H	 0.437898	 -1.966374	 -0.042284
F	 2.212596	 -0.199467	 -0.571921
F	 0.652529	 1.252447	 -0.405055
F	 1.230877	 0.110694	 1.300533

	symmetry c1
}
set optking {
	frozen_dihedral = ("
		11 8 7 9,
		3 5 7 9,
		6 3 2 1
	")
}

ee = energy('scf')
oeprop('DIPOLE', 'QUADRUPOLE', 'MULLIKEN_CHARGES')
f=open( 'psi4out.xyz', 'w' )
f.write( "13  " )
f.write( str(ee) + "\n" )
f.write( MOL.save_string_xyz() )
f.close()
--------------------------------------------------------------------------

    Molecular point group: c1

    Geometry (in Angstrom), charge = 0, multiplicity = 1:

       Center              X                  Y                   Z               Mass
    ------------   -----------------  -----------------  -----------------  -----------------
           H         -4.025959418839     0.615032527374    -0.646516240266     1.007825032070
           C         -3.345535418839    -0.023549472626    -0.117464240266    12.000000000000
           C         -2.058396418839     0.040681527374    -0.368757240266    12.000000000000
           H         -3.742357418839    -0.704993472626     0.611285759734     1.007825032070
           O         -1.162170418839    -0.771249472626     0.251248759734    15.994914619560
           H         -1.640220418839     0.721103527374    -1.089417240266     1.007825032070
           C          0.070067581161    -0.970842472626    -0.351745240266    12.000000000000
           C          1.062227581161     0.102875527374     0.034313759734    12.000000000000
           H          0.000843581161    -0.993337472626    -1.433594240266     1.007825032070
           H          0.456361581161    -1.918360472626    -0.006097240266     1.007825032070
           F          2.231059581161    -0.151453472626    -0.535734240266    18.998403224000
           F          0.670992581161     1.300460527374    -0.368868240266    18.998403224000
           F          1.249340581161     0.158707527374     1.336719759734    18.998403224000

  Charge       = 0
  Multiplicity = 1
  Basis Set: 6-31G*
  Basis Set:

    Orbital Energies (a.u.)
    -----------------------

    Doubly Occupied:

       1A    -26.346622     2A    -26.345365     3A    -26.341480
       4A    -20.606032     5A    -11.504146     6A    -11.318250
       7A    -11.297759     8A    -11.217454     9A     -1.743281
      10A     -1.641787    11A     -1.639496    12A     -1.436725
      13A     -1.084110    14A     -1.016618    15A     -0.926481
      16A     -0.837245    17A     -0.832385    18A     -0.825390
      19A     -0.784883    20A     -0.725637    21A     -0.712313
      22A     -0.700170    23A     -0.676324    24A     -0.659925
      25A     -0.655850    26A     -0.644664    27A     -0.629825
      28A     -0.591306    29A     -0.564635    30A     -0.528857
      31A     -0.500197    32A     -0.353920

  @DF-RHF Final Energy:  -527.53536356481550

   => Energetics <=

    Nuclear Repulsion Energy =            412.6770181327362934
    One-Electron Energy =               -1549.0463866964396402
    Two-Electron Energy =                 608.8340049988872806
    DFT Exchange-Correlation Energy =       0.0000000000000000
    Empirical Dispersion Energy =           0.0000000000000000
    PCM Polarization Energy =               0.0000000000000000
    EFP Energy =                            0.0000000000000000
    Total Energy =                       -527.5353635648160662

  Mulliken Charges: (a.u.)
   Center  Symbol    Alpha    Beta     Spin     Total
       1     H     0.40687  0.40687  0.00000  0.18625
       2     C     3.23233  3.23233  0.00000 -0.46466
       3     C     2.90231  2.90231  0.00000  0.19538
       4     H     0.40217  0.40217  0.00000  0.19567
       5     O     4.30345  4.30345  0.00000 -0.60691
       6     H     0.40198  0.40198  0.00000  0.19604
       7     C     3.06413  3.06413  0.00000 -0.12825
       8     C     2.45664  2.45664  0.00000  1.08672
       9     H     0.40440  0.40440  0.00000  0.19119
      10     H     0.38903  0.38903  0.00000  0.22194
      11     F     4.68279  4.68279  0.00000 -0.36558
      12     F     4.67964  4.67964  0.00000 -0.35928
      13     F     4.67425  4.67425  0.00000 -0.34851

   Total alpha = 32.00000, Total beta = 32.00000, Total charge = -0.00000
