  ==> Input File <==

--------------------------------------------------------------------------
set {
	reference rhf
	basis 6-31G*
}

set_num_threads( 4 )
memory 2 gb

molecule MOL {
0 1

H	 2.591676	 2.013956	 0.335017
O	 3.341076	 1.666752	 -0.126416
C	 3.569581	 0.339145	 0.272707
C	 2.732758	 -0.079107	 1.476667
H	 3.312328	 -0.273488	 -0.581796
H	 4.627526	 0.179639	 0.477868
C	 3.052704	 0.696734	 2.756734
H	 1.682401	 0.046209	 1.226842
H	 2.893399	 -1.142157	 1.648386
C	 2.234884	 0.216818	 3.959094
H	 2.866012	 1.753895	 2.589632
H	 4.114177	 0.597762	 2.984375
C	 2.577739	 0.903242	 5.286352
H	 1.175493	 0.350700	 3.747874
H	 2.387204	 -0.854085	 4.075996
C	 2.232197	 2.393586	 5.349241
H	 2.044961	 0.389928	 6.084144
H	 3.637761	 0.769497	 5.496831
C	 2.494300	 3.008716	 6.725596
H	 1.183365	 2.530201	 5.089627
H	 2.804269	 2.942167	 4.604865
C	 2.156261	 4.497788	 6.789291
H	 1.913726	 2.474856	 7.474872
H	 3.539625	 2.864594	 6.990945
H	 1.108656	 4.672128	 6.560480
H	 2.350754	 4.903807	 7.777196
H	 2.747900	 5.065410	 6.076457

	symmetry c1
}
set optking {
	frozen_dihedral = ("
		4 3 2 1
	")
}

ee = optimize('scf')
oeprop('DIPOLE', 'QUADRUPOLE', 'MULLIKEN_CHARGES')
f=open( 'psi4out.xyz', 'w' )
f.write( "27  " )
f.write( str(ee) + "\n" )
f.write( MOL.save_string_xyz() )
f.close()
--------------------------------------------------------------------------

    Molecular point group: c1
  Charge       = 0
  Multiplicity = 1
  Basis Set: 6-31G*
  Basis Set:
  @DF-RHF Final Energy:  -388.27839986405422
    Total Energy =                       -388.2783998640539949
    Molecular point group: c1
  Basis Set: 6-31G*
  Basis Set:
  Basis Set: 6-31G*
  Basis Set:
  @DF-RHF Final Energy:  -388.27897426936892
    Total Energy =                       -388.2789742693689732
  Basis Set: 6-31G*
  Basis Set:
  Basis Set: 6-31G*
  Basis Set:
  @DF-RHF Final Energy:  -388.27923447229887
    Total Energy =                       -388.2792344722987536
  Basis Set: 6-31G*
  Basis Set:
  Basis Set: 6-31G*
  Basis Set:
  @DF-RHF Final Energy:  -388.27923080980327
    Total Energy =                       -388.2792308098031526
  Basis Set: 6-31G*
  Basis Set:
  Basis Set: 6-31G*
  Basis Set:
  @DF-RHF Final Energy:  -388.27924432766116
    Total Energy =                       -388.2792443276612175
  Basis Set: 6-31G*
  Basis Set:
  Basis Set: 6-31G*
  Basis Set:
  @DF-RHF Final Energy:  -388.27924219859801
    Total Energy =                       -388.2792421985978990
  Basis Set: 6-31G*
  Basis Set:
  Basis Set: 6-31G*
  Basis Set:
  @DF-RHF Final Energy:  -388.27924483155027
    Total Energy =                       -388.2792448315502725
  Basis Set: 6-31G*
  Basis Set:
  Charge       = 0
  Multiplicity = 1
  Basis Set: 6-31G*
  Basis Set:

    Orbital Energies (a.u.)
    -----------------------

    Doubly Occupied:

       1A    -20.549032     2A    -11.266359     3A    -11.224603
       4A    -11.221396     5A    -11.219376     6A    -11.216732
       7A    -11.216338     8A    -11.214955     9A    -11.209438
      10A     -1.356280    11A     -1.097084    12A     -1.063529
      13A     -1.013227    14A     -0.948992    15A     -0.888951
      16A     -0.825756    17A     -0.805627    18A     -0.780276
      19A     -0.661753    20A     -0.655292    21A     -0.648763
      22A     -0.628223    23A     -0.606762    24A     -0.585496
      25A     -0.574727    26A     -0.564104    27A     -0.539660
      28A     -0.526515    29A     -0.510806    30A     -0.490412
      31A     -0.487543    32A     -0.479240    33A     -0.467482
      34A     -0.461456    35A     -0.447577    36A     -0.445059
      37A     -0.424546

  @DF-RHF Final Energy:  -388.27924519493558

   => Energetics <=

    Nuclear Repulsion Energy =            459.8789823285815146
    One-Electron Energy =               -1437.6697173731481598
    Two-Electron Energy =                 589.5114898496303795
    DFT Exchange-Correlation Energy =       0.0000000000000000
    Empirical Dispersion Energy =           0.0000000000000000
    PCM Polarization Energy =               0.0000000000000000
    EFP Energy =                            0.0000000000000000
    Total Energy =                       -388.2792451949362658
    Molecular point group: c1
  Basis Set: 6-31G*
  Basis Set:

  -Total Gradient:
     Atom            X                  Y                   Z
    ------   -----------------  -----------------  -----------------
       1        0.001043716743     0.000627460794     0.001244482703
       2       -0.001625854312    -0.000874126115    -0.001859172561
       3        0.001398561564     0.000699129240     0.001262767511
       4       -0.000814000756    -0.000445448867    -0.000668100859
       5        0.000011340239    -0.000017130871     0.000017655859
       6        0.000012144509    -0.000002078677    -0.000023642128
       7        0.000019082015     0.000004730159    -0.000010852505
       8       -0.000021462166    -0.000017464078     0.000020628249
       9       -0.000008547713     0.000003724096     0.000004225199
      10       -0.000016291738     0.000008019229    -0.000012030195
      11        0.000004747236    -0.000007001282     0.000024479559
      12       -0.000011639745     0.000010498019     0.000002481911
      13        0.000018186751    -0.000002050646    -0.000005720813
      14       -0.000007490307    -0.000000412950     0.000005762144
      15        0.000002373824     0.000004632840    -0.000014391705
      16       -0.000005458507     0.000002427400     0.000006264629
      17       -0.000000065696    -0.000001474759    -0.000007467364
      18        0.000000521341     0.000000993659     0.000008969044
      19        0.000005237390     0.000004125463    -0.000003658639
      20       -0.000003560862     0.000002691996     0.000003752012
      21       -0.000001620815    -0.000000695352     0.000005822487
      22        0.000000094993     0.000000073957     0.000000695389
      23        0.000000115276    -0.000000137557    -0.000002797391
      24        0.000000560969    -0.000000471020    -0.000000010618
      25       -0.000000678651     0.000000135035    -0.000000505100
      26       -0.000000669351    -0.000000175805    -0.000000367920
      27        0.000000657766     0.000000026089     0.000000731107

  **** Optimization is complete! (in 8 steps) ****
    Final optimized geometry and variables:
    Molecular point group: c1

    Geometry (in Angstrom), charge = 0, multiplicity = 1:

    H           -0.190528756917     0.468538962834    -3.232883268081
    O            0.568764682088     0.139746135804    -3.690120123812
    C            0.853445477238    -1.176782587019    -3.281926577479
    C            0.045782600559    -1.630695433704    -2.071378912185
    H            0.660180667329    -1.847475658728    -4.114553635215
    H            1.914847318919    -1.229985343009    -3.062119262395
    C            0.348548198648    -0.847119434966    -0.790505896115
    H           -1.015583787417    -1.559022342045    -2.309407142937
    H            0.247558669921    -2.686312411775    -1.905328579867
    C           -0.490180413141    -1.317514626027     0.400880264251
    H            0.185676298705     0.212882388509    -0.962517345038
    H            1.405409064484    -0.954043997939    -0.553116075459
    C           -0.150938698873    -0.637750078543     1.732503226793
    H           -1.546206124868    -1.168670484149     0.180500795383
    H           -0.355124131125    -2.390816417737     0.518091760941
    C           -0.474306289557     0.857646574307     1.792676515060
    H           -0.699479935947    -1.143774631792     2.524185080757
    H            0.904694886412    -0.787510115198     1.952949158766
    C           -0.214267688741     1.468511541509     3.171316351892
    H           -1.519244794283     1.010019140477     1.525182741277
    H            0.112465314523     1.397259944240     1.053407538644
    C           -0.531927865723     2.962126509922     3.232847632140
    H           -0.807818239548     0.942493318492     3.915998403585
    H            0.826944414236     1.309903352435     3.444091393729
    H           -1.575411907618     3.151145933953     2.996707300507
    H           -0.338978040923     3.365101606358     4.222268111446
    H            0.072834275298     3.521362780674     2.524529563711

  Mulliken Charges: (a.u.)
   Center  Symbol    Alpha    Beta     Spin     Total
       1     H     0.27926  0.27926  0.00000  0.44148
       2     O     4.37778  4.37778  0.00000 -0.75556
       3     C     2.97543  2.97543  0.00000  0.04915
       4     C     3.18866  3.18866  0.00000 -0.37732
       5     H     0.42476  0.42476  0.00000  0.15049
       6     H     0.42378  0.42378  0.00000  0.15244
       7     C     3.15511  3.15511  0.00000 -0.31023
       8     H     0.42211  0.42211  0.00000  0.15579
       9     H     0.41684  0.41684  0.00000  0.16632
      10     C     3.15284  3.15284  0.00000 -0.30569
      11     H     0.42190  0.42190  0.00000  0.15619
      12     H     0.41969  0.41969  0.00000  0.16062
      13     C     3.15327  3.15327  0.00000 -0.30655
      14     H     0.42413  0.42413  0.00000  0.15175
      15     H     0.42134  0.42134  0.00000  0.15733
      16     C     3.15339  3.15339  0.00000 -0.30677
      17     H     0.42125  0.42125  0.00000  0.15751
      18     H     0.42303  0.42303  0.00000  0.15395
      19     C     3.15121  3.15121  0.00000 -0.30243
      20     H     0.42516  0.42516  0.00000  0.14969
      21     H     0.42149  0.42149  0.00000  0.15702
      22     C     3.23935  3.23935  0.00000 -0.47871
      23     H     0.42308  0.42308  0.00000  0.15385
      24     H     0.42262  0.42262  0.00000  0.15476
      25     H     0.42202  0.42202  0.00000  0.15596
      26     H     0.41907  0.41907  0.00000  0.16185
      27     H     0.42144  0.42144  0.00000  0.15713

   Total alpha = 37.00000, Total beta = 37.00000, Total charge =  0.00000
