  ==> Input File <==

--------------------------------------------------------------------------
set {
	reference rhf
	basis 6-31G*
}

set_num_threads( 4 )
memory 2 gb

molecule MOL {
0 1

H	 -0.529872	 3.938557	 2.434916
O	 0.151810	 3.342908	 2.158480
C	 -0.417540	 2.263394	 1.463441
C	 0.702084	 1.331011	 1.035829
H	 -1.125263	 1.730362	 2.096934
H	 -0.963571	 2.615696	 0.589329
C	 0.198102	 0.111031	 0.262842
H	 1.241611	 1.014619	 1.924387
H	 1.404298	 1.895812	 0.428892
C	 1.331804	 -0.827780	 -0.158768
H	 -0.520611	 -0.428114	 0.875172
H	 -0.340688	 0.440147	 -0.624799
C	 2.723619	 -0.410569	 0.329459
H	 1.342964	 -0.912588	 -1.244120
H	 1.116806	 -1.824343	 0.220779
C	 3.243875	 0.895854	 -0.272975
H	 3.424222	 -1.207124	 0.091250
H	 2.714788	 -0.329854	 1.414619
H	 3.251977	 0.848779	 -1.358681
H	 2.637085	 1.747371	 0.016682
H	 4.259473	 1.094070	 0.055697

	symmetry c1
}
set optking {
	frozen_dihedral = ("
		4 7 10 14
	")
}

ee = optimize('scf')
oeprop('DIPOLE', 'QUADRUPOLE', 'MULLIKEN_CHARGES')
f=open( 'psi4out.xyz', 'w' )
f.write( "21  " )
f.write( str(ee) + "\n" )
f.write( MOL.save_string_xyz() )
f.close()
--------------------------------------------------------------------------

    Molecular point group: c1
  Charge       = 0
  Multiplicity = 1
  Basis Set: 6-31G*
  Basis Set:
  @DF-RHF Final Energy:  -310.17495671164221
    Total Energy =                       -310.1749567116423805
    Molecular point group: c1
  Basis Set: 6-31G*
  Basis Set:
  Basis Set: 6-31G*
  Basis Set:
  @DF-RHF Final Energy:  -310.19453311961553
    Total Energy =                       -310.1945331196156417
  Basis Set: 6-31G*
  Basis Set:
  Basis Set: 6-31G*
  Basis Set:
  @DF-RHF Final Energy:  -310.19895655216823
    Total Energy =                       -310.1989565521683971
  Basis Set: 6-31G*
  Basis Set:
  Basis Set: 6-31G*
  Basis Set:
  @DF-RHF Final Energy:  -310.19987896413176
    Total Energy =                       -310.1998789641320400
  Basis Set: 6-31G*
  Basis Set:
  @DF-RHF Final Energy:  -310.20050719238151
    Total Energy =                       -310.2005071923812238
  @DF-RHF Final Energy:  -310.20064398045241
    Total Energy =                       -310.2006439804524689
  Basis Set: 6-31G*
  Basis Set:
  @DF-RHF Final Energy:  -310.20059406188551
    Total Energy =                       -310.2005940618853401
  Basis Set: 6-31G*
  Basis Set:
  Basis Set: 6-31G*
  Basis Set:
  @DF-RHF Final Energy:  -310.20067947790136
    Total Energy =                       -310.2006794779015308
  Basis Set: 6-31G*
  Basis Set:
  Basis Set: 6-31G*
  Basis Set:
  @DF-RHF Final Energy:  -310.20068075435279
    Total Energy =                       -310.2006807543527884
  Basis Set: 6-31G*
  Basis Set:
  Charge       = 0
  Multiplicity = 1
  Basis Set: 6-31G*
  Basis Set:

    Orbital Energies (a.u.)
    -----------------------

    Doubly Occupied:

       1A    -20.552073     2A    -11.267139     3A    -11.216964
       4A    -11.214452     5A    -11.213212     6A    -11.210399
       7A    -11.205083     8A     -1.358869     9A     -1.080859
      10A     -1.029401    11A     -0.955476    12A     -0.873610
      13A     -0.819153    14A     -0.765966    15A     -0.688644
      16A     -0.660004    17A     -0.624266    18A     -0.613256
      19A     -0.573726    20A     -0.567124    21A     -0.539593
      22A     -0.526091    23A     -0.503387    24A     -0.494284
      25A     -0.478998    26A     -0.449562    27A     -0.445914
      28A     -0.444693    29A     -0.433927

  @DF-RHF Final Energy:  -310.20068122323681

   => Energetics <=

    Nuclear Repulsion Energy =            318.8060849870284414
    One-Electron Energy =               -1052.4012812030441637
    Two-Electron Energy =                 423.3945149927791363
    DFT Exchange-Correlation Energy =       0.0000000000000000
    Empirical Dispersion Energy =           0.0000000000000000
    PCM Polarization Energy =               0.0000000000000000
    EFP Energy =                            0.0000000000000000
    Total Energy =                       -310.2006812232365291
    Molecular point group: c1
  Basis Set: 6-31G*
  Basis Set:

  -Total Gradient:
     Atom            X                  Y                   Z
    ------   -----------------  -----------------  -----------------
       1       -0.000001314754     0.000007924140     0.000000251622
       2       -0.000004151757    -0.000004647846     0.000003499390
       3        0.000011548561     0.000003722240    -0.000021742167
       4        0.000033470647     0.000293017998    -0.000430143937
       5        0.000020035727     0.000005567373     0.000001341219
       6       -0.000007647603    -0.000001860377     0.000000049249
       7        0.000027826042    -0.000308310796     0.000690119083
       8        0.000014272821     0.000012562485     0.000010968990
       9       -0.000018285970    -0.000010721949    -0.000013664915
      10       -0.000556580959    -0.000561969525    -0.000229408787
      11        0.000009549032     0.000000513571     0.000007604512
      12       -0.000011673002    -0.000015102347    -0.000006497008
      13       -0.000023574906     0.000002224846     0.000009024649
      14        0.000508223908     0.000588901828    -0.000022249467
      15        0.000019980835    -0.000001722987     0.000011739604
      16       -0.000003359049     0.000004690125    -0.000045268023
      17       -0.000028361518    -0.000013459070    -0.000009367166
      18       -0.000006979025     0.000005156716     0.000024860850
      19        0.000004471551     0.000013220758    -0.000003083433
      20        0.000022736347    -0.000013408123     0.000013385526
      21       -0.000010186929    -0.000006299066     0.000008580207

  **** Optimization is complete! (in 10 steps) ****
    Final optimized geometry and variables:
    Molecular point group: c1

    Geometry (in Angstrom), charge = 0, multiplicity = 1:

    H           -2.036796219265     2.836477102941     1.846021506543
    O           -1.285762531107     2.324465524840     1.581920161418
    C           -1.709058108929     1.224457784776     0.817929674125
    C           -0.478690121300     0.430641180128     0.411586573353
    H           -2.386148568902     0.595699466865     1.394458386673
    H           -2.248191954394     1.558206191842    -0.067612143259
    C           -0.850634293604    -0.792472165465    -0.432945870834
    H            0.040670342625     0.136517434043     1.317529011323
    H            0.182035438964     1.097841642061    -0.128956529068
    C            0.292139915058    -1.741709359550    -0.902256298808
    H           -1.565970207392    -1.381015124944     0.136246762529
    H           -1.394112446435    -0.446057281031    -1.308420820621
    C            1.732189089901    -1.463554483766    -0.435718132153
    H            0.300875728081    -1.769871427944    -1.988618192147
    H            0.032754753415    -2.747835459427    -0.587770162235
    C            2.477081798164    -0.408091897962    -1.256697869498
    H            2.286929408392    -2.395449837972    -0.512127342249
    H            1.749993527623    -1.195850027463     0.615968524524
    H            2.538477528234    -0.707828079059    -2.299409294547
    H            1.993826417771     0.561226748609    -1.222772195176
    H            3.491613593932    -0.280557785024    -0.891066882464

  Mulliken Charges: (a.u.)
   Center  Symbol    Alpha    Beta     Spin     Total
       1     H     0.28111  0.28111  0.00000  0.43777
       2     O     4.37222  4.37222  0.00000 -0.74444
       3     C     2.98909  2.98909  0.00000  0.02183
       4     C     3.16393  3.16393  0.00000 -0.32786
       5     H     0.43283  0.43283  0.00000  0.13433
       6     H     0.43289  0.43289  0.00000  0.13423
       7     C     3.16440  3.16440  0.00000 -0.32880
       8     H     0.41343  0.41343  0.00000  0.17313
       9     H     0.41197  0.41197  0.00000  0.17607
      10     C     3.15675  3.15675  0.00000 -0.31349
      11     H     0.42175  0.42175  0.00000  0.15650
      12     H     0.42123  0.42123  0.00000  0.15755
      13     C     3.15621  3.15621  0.00000 -0.31243
      14     H     0.42115  0.42115  0.00000  0.15771
      15     H     0.41941  0.41941  0.00000  0.16118
      16     C     3.24023  3.24023  0.00000 -0.48047
      17     H     0.42091  0.42091  0.00000  0.15819
      18     H     0.41919  0.41919  0.00000  0.16161
      19     H     0.42307  0.42307  0.00000  0.15387
      20     H     0.41851  0.41851  0.00000  0.16298
      21     H     0.41973  0.41973  0.00000  0.16054

   Total alpha = 29.00000, Total beta = 29.00000, Total charge =  0.00000
