  ==> Input File <==

--------------------------------------------------------------------------
set {
	reference rhf
	basis 6-31G*
}

set_num_threads( 1 )
memory 2 gb

molecule MOL {
0 1

H	 -3.161837	 0.500524	 -0.000234
C	 -2.367097	 -0.232926	 -0.000000
O	 -1.158440	 0.455814	 -0.000122
H	 -2.468853	 -0.861886	 -0.882833
H	 -2.468942	 -0.861421	 0.883154
C	 -0.029776	 -0.365156	 0.000148
C	 0.351270	 -0.674170	 1.437498
H	 0.795575	 0.131189	 -0.512041
H	 -0.236696	 -1.287966	 -0.543463
C	 1.583613	 -1.572313	 1.535223
H	 0.528474	 0.263199	 1.955763
H	 -0.496513	 -1.146079	 1.924597
H	 2.450669	 -1.107232	 1.074422
H	 1.832490	 -1.776870	 2.571110
H	 1.418664	 -2.526400	 1.042361

	symmetry c1
}
set optking {
	frozen_dihedral = ("
		6 3 2 4,
		11 7 6 8
	")
}

ee = energy('scf')
oeprop('DIPOLE', 'QUADRUPOLE', 'MULLIKEN_CHARGES')
f=open( 'psi4out.xyz', 'w' )
f.write( "15  " )
f.write( str(ee) + "\n" )
f.write( MOL.save_string_xyz() )
f.close()
--------------------------------------------------------------------------

    Molecular point group: c1

    Geometry (in Angstrom), charge = 0, multiplicity = 1:

       Center              X                  Y                   Z               Mass
    ------------   -----------------  -----------------  -----------------  -----------------
           H         -2.812261853547     0.980925803617    -0.584036526029     1.007825032070
           C         -2.017521853547     0.247475803617    -0.583802526029    12.000000000000
           O         -0.808864853547     0.936215803617    -0.583924526029    15.994914619560
           H         -2.119277853547    -0.381484196383    -1.466635526029     1.007825032070
           H         -2.119366853547    -0.381019196383     0.299351473971     1.007825032070
           C          0.319799146453     0.115245803617    -0.583654526029    12.000000000000
           C          0.700845146453    -0.193768196383     0.853695473971    12.000000000000
           H          1.145150146453     0.611590803617    -1.095843526029     1.007825032070
           H          0.112879146453    -0.807564196383    -1.127265526029     1.007825032070
           C          1.933188146453    -1.091911196383     0.951420473971    12.000000000000
           H          0.878049146453     0.743600803617     1.371960473971     1.007825032070
           H         -0.146937853547    -0.665677196383     1.340794473971     1.007825032070
           H          2.800244146453    -0.626830196383     0.490619473971     1.007825032070
           H          2.182065146453    -1.296468196383     1.987307473971     1.007825032070
           H          1.768239146453    -2.045998196383     0.458558473971     1.007825032070

  Charge       = 0
  Multiplicity = 1
  Basis Set: 6-31G*
  Basis Set:

    Orbital Energies (a.u.)
    -----------------------

    Doubly Occupied:

       1A    -20.551977     2A    -11.266454     3A    -11.264769
       4A    -11.213562     5A    -11.212839     6A     -1.378685
       7A     -1.055747     8A     -0.957342     9A     -0.882592
      10A     -0.807257    11A     -0.671878    12A     -0.656293
      13A     -0.636493    14A     -0.598126    15A     -0.568830
      16A     -0.533568    17A     -0.515138    18A     -0.497297
      19A     -0.483486    20A     -0.460118    21A     -0.404081

  @DF-RHF Final Energy:  -232.13518868832799

   => Energetics <=

    Nuclear Repulsion Energy =            192.3171261372906145
    One-Electron Energy =                -695.6715814786144847
    Two-Electron Energy =                 271.2192666529954863
    DFT Exchange-Correlation Energy =       0.0000000000000000
    Empirical Dispersion Energy =           0.0000000000000000
    PCM Polarization Energy =               0.0000000000000000
    EFP Energy =                            0.0000000000000000
    Total Energy =                       -232.1351886883283555

  Mulliken Charges: (a.u.)
   Center  Symbol    Alpha    Beta     Spin     Total
       1     H     0.41164  0.41164  0.00000  0.17672
       2     C     3.08153  3.08153  0.00000 -0.16306
       3     O     4.30406  4.30406  0.00000 -0.60811
       4     H     0.42904  0.42904  0.00000  0.14191
       5     H     0.43101  0.43101  0.00000  0.13797
       6     C     2.99255  2.99255  0.00000  0.01491
       7     C     3.15918  3.15918  0.00000 -0.31836
       8     H     0.41691  0.41691  0.00000  0.16619
       9     H     0.43258  0.43258  0.00000  0.13484
      10     C     3.24829  3.24829  0.00000 -0.49659
      11     H     0.41368  0.41368  0.00000  0.17264
      12     H     0.42114  0.42114  0.00000  0.15772
      13     H     0.42033  0.42033  0.00000  0.15933
      14     H     0.41631  0.41631  0.00000  0.16739
      15     H     0.42175  0.42175  0.00000  0.15649

   Total alpha = 21.00000, Total beta = 21.00000, Total charge =  0.00000
