  ==> Input File <==

--------------------------------------------------------------------------
set {
	reference rhf
	basis cc-pvtz
}

set_num_threads( 4 )
memory 2 gb

molecule MOL {
0 1

H	 -0.256515	 -1.944617	 0.634049
C	 -0.132204	 -0.932958	 1.003173
N	 0.526300	 -0.128137	 0.000000
H	 0.479920	 -0.981706	 1.894782
H	 -1.119022	 -0.560450	 1.286015
C	 -0.247113	 0.037112	 -1.209233
H	 0.759587	 0.763832	 0.378983
H	 -0.996493	 -0.743733	 -1.271440
H	 0.397975	 -0.057351	 -2.073512
H	 -0.763794	 0.997171	 -1.271673

	symmetry c1
}
set optking {
	frozen_dihedral = ("
		2 3 6 8
	")
}

ee = optimize('scf')
oeprop('DIPOLE', 'QUADRUPOLE', 'MULLIKEN_CHARGES')
f=open( 'psi4out.xyz', 'w' )
f.write( "10  " )
f.write( str(ee) + "\n" )
f.write( MOL.save_string_xyz() )
f.close()
--------------------------------------------------------------------------

    Molecular point group: c1
  Charge       = 0
  Multiplicity = 1
  Basis Set: CC-PVTZ
  Basis Set:
  @DF-RHF Final Energy:  -134.28858010302088
    Total Energy =                       -134.2885801030207915
    Molecular point group: c1
  Basis Set: CC-PVTZ
  Basis Set:
  Basis Set: CC-PVTZ
  Basis Set:
  @DF-RHF Final Energy:  -134.28894834369845
    Total Energy =                       -134.2889483436983653
  Basis Set: CC-PVTZ
  Basis Set:
  Basis Set: CC-PVTZ
  Basis Set:
  @DF-RHF Final Energy:  -134.28901914023007
    Total Energy =                       -134.2890191402301241
  Basis Set: CC-PVTZ
  Basis Set:
  Basis Set: CC-PVTZ
  Basis Set:
  @DF-RHF Final Energy:  -134.28902379934232
    Total Energy =                       -134.2890237993422318
  Basis Set: CC-PVTZ
  Basis Set:
  Charge       = 0
  Multiplicity = 1
  Basis Set: CC-PVTZ
  Basis Set:

    Orbital Energies (a.u.)
    -----------------------

    Doubly Occupied:

       1A    -15.528835     2A    -11.234442     3A    -11.233862
       4A     -1.196328     5A     -0.947965     6A     -0.855454
       7A     -0.661222     8A     -0.609316     9A     -0.589669
      10A     -0.543445    11A     -0.512162    12A     -0.507801
      13A     -0.357308

  @DF-RHF Final Energy:  -134.28902433178166

   => Energetics <=

    Nuclear Repulsion Energy =             84.5198667195432591
    One-Electron Energy =                -348.0621645960687260
    Two-Electron Energy =                 129.2532735447438199
    DFT Exchange-Correlation Energy =       0.0000000000000000
    Empirical Dispersion Energy =           0.0000000000000000
    PCM Polarization Energy =               0.0000000000000000
    EFP Energy =                            0.0000000000000000
    Total Energy =                       -134.2890243317816612
    Molecular point group: c1
  Basis Set: CC-PVTZ
  Basis Set:

  -Total Gradient:
     Atom            X                  Y                   Z
    ------   -----------------  -----------------  -----------------
       1       -0.000004900306    -0.000004577817     0.000008745958
       2        0.000990666217    -0.001966041545    -0.000891487746
       3       -0.001906136664     0.003232411106     0.001666359273
       4       -0.000007275992     0.000000806594    -0.000003082043
       5        0.000012401469     0.000001830497     0.000000840348
       6        0.002913194790    -0.003063590168    -0.002303020799
       7        0.000010455280     0.000019549310    -0.000000126273
       8       -0.001990949848     0.001766961000     0.001468061844
       9       -0.000006091255     0.000003203172     0.000038684212
      10       -0.000011363691     0.000009447851     0.000015025226

  **** Optimization is complete! (in 5 steps) ****
    Final optimized geometry and variables:
    Molecular point group: c1

    Geometry (in Angstrom), charge = 0, multiplicity = 1:

    H           -0.281728083994    -1.612230251537     0.724277399464
    C           -0.162447787963    -0.596244914513     1.081225258747
    N            0.485245202533     0.203059328109     0.067573097235
    H            0.460293168456    -0.632547382635     1.966393872323
    H           -1.147770893667    -0.229870125184     1.377601293474
    C           -0.266143243762     0.372535102508    -1.162231953459
    H            0.765711826186     1.083063433347     0.436997576173
    H           -1.017476224181    -0.402884928918    -1.247717578091
    H            0.382502242640     0.316441893705    -2.028222201656
    H           -0.800538855344     1.320324337632    -1.203681807218

  Mulliken Charges: (a.u.)
   Center  Symbol    Alpha    Beta     Spin     Total
       1     H     0.45679  0.45679  0.00000  0.08643
       2     C     3.08100  3.08100  0.00000 -0.16201
       3     N     3.63531  3.63531  0.00000 -0.27062
       4     H     0.45316  0.45316  0.00000  0.09368
       5     H     0.47504  0.47504  0.00000  0.04992
       6     C     3.07927  3.07927  0.00000 -0.15854
       7     H     0.43881  0.43881  0.00000  0.12239
       8     H     0.46043  0.46043  0.00000  0.07913
       9     H     0.45429  0.45429  0.00000  0.09143
      10     H     0.46590  0.46590  0.00000  0.06820

   Total alpha = 13.00000, Total beta = 13.00000, Total charge = -0.00000
