  ==> Input File <==

--------------------------------------------------------------------------
set {
	reference rhf
	basis 6-31G*
}

set_num_threads( 4 )
memory 2 gb

molecule MOL {
0 1

O	 -2.042549	 -1.228399	 -0.269030
C	 -1.653912	 -0.146171	 0.050137
C	 -0.332303	 0.024011	 0.778412
C	 -2.438579	 1.106236	 -0.272369
C	 0.845713	 -0.001731	 -0.208243
H	 -0.323783	 0.953829	 1.340327
H	 -0.235459	 -0.796807	 1.480410
C	 2.200309	 0.136118	 0.488247
H	 0.733710	 0.800019	 -0.936072
H	 0.811185	 -0.933796	 -0.764304
C	 3.094447	 -1.087070	 0.289420
H	 2.710206	 1.021765	 0.115338
H	 2.040867	 0.298931	 1.551562
H	 3.300181	 -1.256208	 -0.763727
H	 2.624391	 -1.983728	 0.682478
H	 4.046105	 -0.962675	 0.796272
H	 -3.277823	 0.863061	 -0.908988
H	 -1.806773	 1.843019	 -0.759671
H	 -2.802853	 1.554979	 0.648059

	symmetry c1
}
set optking {
	frozen_dihedral = ("
		11 8 5 9
	")
}

ee = optimize('scf')
oeprop('DIPOLE', 'QUADRUPOLE', 'MULLIKEN_CHARGES')
f=open( 'psi4out.xyz', 'w' )
f.write( "19  " )
f.write( str(ee) + "\n" )
f.write( MOL.save_string_xyz() )
f.close()
--------------------------------------------------------------------------

    Molecular point group: c1
  Charge       = 0
  Multiplicity = 1
  Basis Set: 6-31G*
  Basis Set:
  @DF-RHF Final Energy:  -309.05914523724022
    Total Energy =                       -309.0591452372401591
    Molecular point group: c1
  Basis Set: 6-31G*
  Basis Set:
  Basis Set: 6-31G*
  Basis Set:
  @DF-RHF Final Energy:  -309.05935144266164
    Total Energy =                       -309.0593514426616935
  Basis Set: 6-31G*
  Basis Set:
  Basis Set: 6-31G*
  Basis Set:
  @DF-RHF Final Energy:  -309.05941913513999
    Total Energy =                       -309.0594191351398194
  Basis Set: 6-31G*
  Basis Set:
  Basis Set: 6-31G*
  Basis Set:
  @DF-RHF Final Energy:  -309.05911019271872
    Total Energy =                       -309.0591101927185491
  Basis Set: 6-31G*
  Basis Set:
  @DF-RHF Final Energy:  -309.05906465543768
    Total Energy =                       -309.0590646554376235
  @DF-RHF Final Energy:  -309.05940339037028
    Total Energy =                       -309.0594033903701643
  Basis Set: 6-31G*
  Basis Set:
  @DF-RHF Final Energy:  -309.05946218367114
    Total Energy =                       -309.0594621836712008
  Basis Set: 6-31G*
  Basis Set:
  Basis Set: 6-31G*
  Basis Set:
  @DF-RHF Final Energy:  -309.05946672445168
    Total Energy =                       -309.0594667244516245
  Basis Set: 6-31G*
  Basis Set:
  Basis Set: 6-31G*
  Basis Set:
  @DF-RHF Final Energy:  -309.05946789221593
    Total Energy =                       -309.0594678922160483
  Basis Set: 6-31G*
  Basis Set:
  Charge       = 0
  Multiplicity = 1
  Basis Set: 6-31G*
  Basis Set:

    Orbital Energies (a.u.)
    -----------------------

    Doubly Occupied:

       1A    -20.547671     2A    -11.324450     3A    -11.230234
       4A    -11.229655     5A    -11.228316     6A    -11.224307
       7A    -11.213838     8A     -1.393306     9A     -1.088592
      10A     -1.028130    11A     -0.983099    12A     -0.890235
      13A     -0.805881    14A     -0.734961    15A     -0.654755
      16A     -0.650907    17A     -0.616278    18A     -0.611209
      19A     -0.590603    20A     -0.576758    21A     -0.544407
      22A     -0.532331    23A     -0.524492    24A     -0.495805
      25A     -0.480460    26A     -0.472841    27A     -0.463796
      28A     -0.396589

  @DF-RHF Final Energy:  -309.05946796512353

   => Energetics <=

    Nuclear Repulsion Energy =            301.9349080334018254
    One-Electron Energy =               -1016.9209348471199519
    Two-Electron Energy =                 405.9265588485948228
    DFT Exchange-Correlation Energy =       0.0000000000000000
    Empirical Dispersion Energy =           0.0000000000000000
    PCM Polarization Energy =               0.0000000000000000
    EFP Energy =                            0.0000000000000000
    Total Energy =                       -309.0594679651233037
    Molecular point group: c1
  Basis Set: 6-31G*
  Basis Set:

  -Total Gradient:
     Atom            X                  Y                   Z
    ------   -----------------  -----------------  -----------------
       1       -0.000004755138     0.000002571656     0.000006629400
       2        0.000005232293    -0.000011459488     0.000008379386
       3       -0.000008933823    -0.000002990360     0.000003917502
       4        0.000010595273     0.000009315977    -0.000010376449
       5       -0.000132418830     0.000281427123     0.000218545833
       6       -0.000004460812     0.000001223168    -0.000000159358
       7        0.000003147048     0.000000164731    -0.000007837772
       8       -0.000096445775    -0.000183697005     0.000208598729
       9        0.000140847363    -0.000192854499    -0.000231139837
      10        0.000001448122    -0.000002929103    -0.000001951272
      11        0.000091652448     0.000098967430    -0.000196081395
      12        0.000002229733     0.000003230042    -0.000000901422
      13       -0.000002343387    -0.000002846266    -0.000001160858
      14        0.000000130738     0.000002739991     0.000001765234
      15        0.000000130145    -0.000000673433    -0.000001342208
      16        0.000000090562    -0.000001227867     0.000000690140
      17        0.000000269080    -0.000000235201    -0.000000181802
      18       -0.000004123213     0.000002295528     0.000001675048
      19       -0.000002291825    -0.000003022422     0.000000931101

  **** Optimization is complete! (in 10 steps) ****
    Final optimized geometry and variables:
    Molecular point group: c1

    Geometry (in Angstrom), charge = 0, multiplicity = 1:

    O           -1.997573825042    -1.050595303575    -0.390788435657
    C           -1.616804727223     0.033667800152    -0.068725218345
    C           -0.296545833155     0.211067117706     0.660032932833
    C           -2.410267160739     1.281274474315    -0.388240265582
    C            0.883830640179     0.184489633704    -0.325116545268
    H           -0.290461064518     1.143075478948     1.218215801328
    H           -0.196243382279    -0.606718222046     1.365504984961
    C            2.256793127303     0.310457423893     0.373985059572
    H            0.763927711355     0.981732000837    -1.054028705712
    H            0.834191201665    -0.744695103262    -0.883175090605
    C            3.147164684405    -0.916771431192     0.176555468312
    H            2.778046573088     1.188923604214     0.005379141650
    H            2.113385027236     0.475276914555     1.438519704834
    H            3.356793474733    -1.081768429359    -0.876166612502
    H            2.668879290058    -1.812786983591     0.561766279171
    H            4.096458637974    -0.799351156867     0.690011453978
    H           -3.247241682770     1.033943231948    -1.026260129575
    H           -1.783313211776     2.024000169983    -0.872820931219
    H           -2.778520764541     1.724736509287     0.533176098174

  Mulliken Charges: (a.u.)
   Center  Symbol    Alpha    Beta     Spin     Total
       1     O     4.26213  4.26213  0.00000 -0.52427
       2     C     2.73769  2.73769  0.00000  0.52463
       3     C     3.20188  3.20188  0.00000 -0.40376
       4     C     3.28951  3.28951  0.00000 -0.57903
       5     C     3.16599  3.16599  0.00000 -0.33199
       6     H     0.41632  0.41632  0.00000  0.16737
       7     H     0.40108  0.40108  0.00000  0.19785
       8     C     3.15530  3.15530  0.00000 -0.31060
       9     H     0.41812  0.41812  0.00000  0.16376
      10     H     0.40339  0.40339  0.00000  0.19321
      11     C     3.24072  3.24072  0.00000 -0.48143
      12     H     0.41822  0.41822  0.00000  0.16357
      13     H     0.41885  0.41885  0.00000  0.16230
      14     H     0.41943  0.41943  0.00000  0.16113
      15     H     0.41863  0.41863  0.00000  0.16275
      16     H     0.41913  0.41913  0.00000  0.16173
      17     H     0.39702  0.39702  0.00000  0.20596
      18     H     0.40986  0.40986  0.00000  0.18029
      19     H     0.40673  0.40673  0.00000  0.18654

   Total alpha = 28.00000, Total beta = 28.00000, Total charge = -0.00000
