  ==> Input File <==

--------------------------------------------------------------------------
set {
	reference rhf
	basis 6-31G*
}

set_num_threads( 4 )
memory 2 gb

molecule MOL {
0 1

O	 0.815087	 0.788594	 -0.935175
C	 1.122059	 0.121804	 -0.000188
C	 0.395129	 0.075162	 1.321663
O	 2.172624	 -0.688929	 0.000216
C	 -0.823534	 0.991266	 1.376036
H	 0.118101	 -0.959709	 1.503464
H	 1.113475	 0.329125	 2.096412
C	 -1.540877	 0.925097	 2.725261
H	 -1.510703	 0.721186	 0.580198
H	 -0.513945	 2.011873	 1.173501
C	 -2.762435	 1.840932	 2.788865
H	 -1.848211	 -0.099734	 2.923618
H	 -0.847171	 1.194088	 3.519293
H	 -3.491031	 1.575073	 2.028522
H	 -3.252620	 1.774928	 3.755115
H	 -2.482757	 2.878181	 2.629074
C	 3.452279	 -0.082609	 0.000533
H	 3.583069	 0.529321	 -0.880332
H	 4.163299	 -0.894027	 0.001117
H	 3.582335	 0.529955	 0.881077

	symmetry c1
}
set optking {
	frozen_dihedral = ("
		1 2 4 17
	")
}

ee = optimize('scf')
oeprop('DIPOLE', 'QUADRUPOLE', 'MULLIKEN_CHARGES')
f=open( 'psi4out.xyz', 'w' )
f.write( "20  " )
f.write( str(ee) + "\n" )
f.write( MOL.save_string_xyz() )
f.close()
--------------------------------------------------------------------------

    Molecular point group: c1
  Charge       = 0
  Multiplicity = 1
  Basis Set: 6-31G*
  Basis Set:
  @DF-RHF Final Energy:  -383.92375941973813
    Total Energy =                       -383.9237594197378485
    Molecular point group: c1
  Basis Set: 6-31G*
  Basis Set:
  Basis Set: 6-31G*
  Basis Set:
  @DF-RHF Final Energy:  -383.92143360788174
    Total Energy =                       -383.9214336078814540
  Basis Set: 6-31G*
  Basis Set:
  Basis Set: 6-31G*
  Basis Set:
  @DF-RHF Final Energy:  -383.92472608062258
    Total Energy =                       -383.9247260806225768
  Basis Set: 6-31G*
  Basis Set:
  Basis Set: 6-31G*
  Basis Set:
  @DF-RHF Final Energy:  -383.92488139696104
    Total Energy =                       -383.9248813969606999
  Basis Set: 6-31G*
  Basis Set:
  Basis Set: 6-31G*
  Basis Set:
  @DF-RHF Final Energy:  -383.92488677275077
    Total Energy =                       -383.9248867727504830
  Basis Set: 6-31G*
  Basis Set:
  Charge       = 0
  Multiplicity = 1
  Basis Set: 6-31G*
  Basis Set:

    Orbital Energies (a.u.)
    -----------------------

    Doubly Occupied:

       1A    -20.587156     2A    -20.555905     3A    -11.374920
       4A    -11.289082     5A    -11.238403     6A    -11.222025
       7A    -11.221180     8A    -11.211934     9A     -1.459980
      10A     -1.366231    11A     -1.089648    12A     -1.020662
      13A     -0.969446    14A     -0.892943    15A     -0.806429
      16A     -0.765520    17A     -0.695745    18A     -0.678295
      19A     -0.673305    20A     -0.643187    21A     -0.612211
      22A     -0.592084    23A     -0.585935    24A     -0.547556
      25A     -0.536327    26A     -0.512521    27A     -0.500976
      28A     -0.485093    29A     -0.478109    30A     -0.471629
      31A     -0.451579    32A     -0.433657

  @DF-RHF Final Energy:  -383.92488732456195

   => Energetics <=

    Nuclear Repulsion Energy =            380.7034571496668605
    One-Electron Energy =               -1277.3173455911369274
    Two-Electron Energy =                 512.6890011169084573
    DFT Exchange-Correlation Energy =       0.0000000000000000
    Empirical Dispersion Energy =           0.0000000000000000
    PCM Polarization Energy =               0.0000000000000000
    EFP Energy =                            0.0000000000000000
    Total Energy =                       -383.9248873245616096
    Molecular point group: c1
  Basis Set: 6-31G*
  Basis Set:

  -Total Gradient:
     Atom            X                  Y                   Z
    ------   -----------------  -----------------  -----------------
       1       -0.004316995463    -0.005180689293    -0.002118294834
       2        0.006552244736     0.007572559566     0.005671486269
       3        0.000125858578    -0.000046285943    -0.000020293230
       4       -0.002550635918    -0.002497779923    -0.009173708365
       5       -0.000025198546    -0.000010808613     0.000024589190
       6       -0.000017955982     0.000009617224    -0.000012284532
       7       -0.000006688510     0.000009293760     0.000003275817
       8       -0.000024053449     0.000013685577     0.000002987621
       9        0.000012223475    -0.000005822385     0.000005157920
      10       -0.000003694976     0.000003371205     0.000000885512
      11        0.000002488506     0.000002256881     0.000008396166
      12       -0.000003397795    -0.000002295803    -0.000005013038
      13        0.000002130093    -0.000002193559     0.000000869564
      14       -0.000001208268    -0.000003128777     0.000000270864
      15        0.000002700725     0.000001629432    -0.000000357481
      16       -0.000000311692     0.000004141877    -0.000001822230
      17        0.000244508840     0.000141154804     0.005607910782
      18        0.000008528051    -0.000019532591    -0.000016595496
      19       -0.000009011056     0.000019564594    -0.000000169430
      20        0.000008468646    -0.000008738033     0.000022708937

  **** Optimization is complete! (in 6 steps) ****
    Final optimized geometry and variables:
    Molecular point group: c1

    Geometry (in Angstrom), charge = 0, multiplicity = 1:

    O            0.452423602750     0.303513697096    -1.803462537413
    C            0.763890599343    -0.338842196059    -0.860289825531
    C            0.014710926546    -0.386143979164     0.447377165906
    O            1.804997058392    -1.198636871450    -0.886062266393
    C           -1.220774227571     0.507141622447     0.486490792182
    H           -0.242162450457    -1.426939306205     0.626900275782
    H            0.718000987825    -0.121461522787     1.234524246937
    C           -1.955532363741     0.429141665705     1.825703199378
    H           -1.891323701257     0.222875988660    -0.318529902744
    H           -0.928169017077     1.533584182773     0.286724119060
    C           -3.194916558829     1.321773998776     1.871114470330
    H           -2.246080229383    -0.601094062532     2.020886260895
    H           -1.278232546447     0.712059767290     2.629133843797
    H           -3.907927033408     1.040746611943     1.101579930669
    H           -3.696696178761     1.247975945183     2.830796180084
    H           -2.932903546369     2.363936442703     1.713142065414
    C            3.096983886542    -0.630839212975    -0.958371190719
    H            3.186135306931     0.013519503232    -1.822730541679
    H            3.790308349906    -1.453013154688    -1.043134487146
    H            3.317276995833    -0.068656694847    -0.056876918615

  Mulliken Charges: (a.u.)
   Center  Symbol    Alpha    Beta     Spin     Total
       1     O     4.25906  4.25906  0.00000 -0.51812
       2     C     2.61012  2.61012  0.00000  0.77977
       3     C     3.21160  3.21160  0.00000 -0.42320
       4     O     4.31602  4.31602  0.00000 -0.63205
       5     C     3.15184  3.15184  0.00000 -0.30369
       6     H     0.39776  0.39776  0.00000  0.20449
       7     H     0.40684  0.40684  0.00000  0.18633
       8     C     3.15411  3.15411  0.00000 -0.30823
       9     H     0.41062  0.41062  0.00000  0.17877
      10     H     0.41308  0.41308  0.00000  0.17385
      11     C     3.23938  3.23938  0.00000 -0.47876
      12     H     0.42228  0.42228  0.00000  0.15544
      13     H     0.42356  0.42356  0.00000  0.15288
      14     H     0.41946  0.41946  0.00000  0.16107
      15     H     0.41852  0.41852  0.00000  0.16297
      16     H     0.42012  0.42012  0.00000  0.15975
      17     C     3.09393  3.09393  0.00000 -0.18786
      18     H     0.40576  0.40576  0.00000  0.18848
      19     H     0.40415  0.40415  0.00000  0.19170
      20     H     0.42179  0.42179  0.00000  0.15642

   Total alpha = 32.00000, Total beta = 32.00000, Total charge = -0.00000
