                              Psi4 1.0.54 Driver

  ==> Input File <==

--------------------------------------------------------------------------
set {
	reference rhf
	basis cc-pvtz
}

set_num_threads( 4 )
memory 2 gb

molecule MOL {
0 1

H	 -2.212629	 0.736953	 -1.945582
C	 -1.612132	 -0.143989	 -1.730574
O	 -1.401606	 -0.295183	 -0.366624
H	 -2.139493	 -1.018505	 -2.082711
H	 -0.672415	 -0.060414	 -2.273559
C	 -0.718530	 0.758693	 0.228682
C	 0.718529	 0.758687	 -0.228709
H	 -1.176498	 1.708665	 -0.046615
H	 -0.748705	 0.673525	 1.312779
O	 1.401606	 -0.295166	 0.366636
H	 0.748705	 0.673477	 -1.312803
H	 1.176496	 1.708671	 0.046552
C	 2.714315	 -0.441627	 -0.061017
H	 2.765292	 -0.641548	 -1.128869
H	 3.305661	 0.447341	 0.150952
H	 3.143725	 -1.278506	 0.470147

	symmetry c1
}
set optking {
	frozen_dihedral = ("
		2 3 6 7
	")
}

ee,wfn = optimize('scf', return_wfn=True)
oeprop( wfn, 'DIPOLE', 'QUADRUPOLE', 'MULLIKEN_CHARGES')
f=open( 'psi4out.xyz', 'w' )
f.write( "16  " )
f.write( str(ee) + "\n" )
f.write( MOL.save_string_xyz() )
f.close()
--------------------------------------------------------------------------

    Molecular point group: c1
  Charge       = 0
  Multiplicity = 1
  Basis Set: CC-PVTZ
  Basis Set:
  @DF-RHF Final Energy:  -307.09052022964858
    Total Energy =                       -307.0905202296486891
    Molecular point group: c1
  Basis Set: CC-PVTZ
  Basis Set:
  Basis Set: CC-PVTZ
  Basis Set:
  @DF-RHF Final Energy:  -307.03307230252079
    Total Energy =                       -307.0330723025207931
  Basis Set: CC-PVTZ
  Basis Set:
  Basis Set: CC-PVTZ
  Basis Set:
  @DF-RHF Final Energy:  -307.09092344143892
    Total Energy =                       -307.0909234414388607
  Basis Set: CC-PVTZ
  Basis Set:
  Basis Set: CC-PVTZ
  Basis Set:
  @DF-RHF Final Energy:  -307.09448800924804
    Total Energy =                       -307.0944880092479821
  Basis Set: CC-PVTZ
  Basis Set:
  Basis Set: CC-PVTZ
  Basis Set:
  @DF-RHF Final Energy:  -307.09478134857790
    Total Energy =                       -307.0947813485777260
  Basis Set: CC-PVTZ
  Basis Set:
  Basis Set: CC-PVTZ
  Basis Set:
  @DF-RHF Final Energy:  -307.09480561733858
    Total Energy =                       -307.0948056173384657
  Basis Set: CC-PVTZ
  Basis Set:
  Charge       = 0
  Multiplicity = 1
  Basis Set: CC-PVTZ
  Basis Set:

    Orbital Energies (a.u.)
    -----------------------

    Doubly Occupied:

       1A    -20.551135     2A    -20.546689     3A    -11.269840
       4A    -11.267625     5A    -11.264748     6A    -11.261567
       7A     -1.392657     8A     -1.374202     9A     -1.029316
      10A     -0.946760    11A     -0.899753    12A     -0.815927
      13A     -0.691101    14A     -0.682210    15A     -0.661282
      16A     -0.639728    17A     -0.631122    18A     -0.600916
      19A     -0.556478    20A     -0.529759    21A     -0.517214
      22A     -0.490943    23A     -0.460108    24A     -0.422725
      25A     -0.412650

  @DF-RHF Final Energy:  -307.09480723256729

   => Energetics <=

    Nuclear Repulsion Energy =            262.2095138297211179
    One-Electron Energy =                -938.7757350831549275
    Two-Electron Energy =                 369.4714140208664617
    DFT Exchange-Correlation Energy =       0.0000000000000000
    Empirical Dispersion Energy =           0.0000000000000000
    PCM Polarization Energy =               0.0000000000000000
    EFP Energy =                            0.0000000000000000
    Total Energy =                       -307.0948072325673479
    Molecular point group: c1
  Basis Set: CC-PVTZ
  Basis Set:

  -Total Gradient:
     Atom            X                  Y                   Z
    ------   -----------------  -----------------  -----------------
       1        0.000003169953    -0.000031856596    -0.000015646032
       2        0.000295428433    -0.000111963532     0.000063242720
       3       -0.000366694068     0.000291898764    -0.000144188271
       4        0.000032485575     0.000020682844     0.000025345475
       5       -0.000041346738     0.000006264606     0.000019038058
       6        0.000167710730    -0.000182340124     0.000373290395
       7       -0.000034452620     0.000146805640    -0.000411595919
       8        0.000003035217    -0.000046249033     0.000029172223
       9       -0.000040758767    -0.000040956967    -0.000053454849
      10        0.000007550044    -0.000051070802     0.000074083308
      11       -0.000007805909     0.000024497000     0.000046170572
      12       -0.000006231513    -0.000048560378     0.000009692306
      13       -0.000014687070    -0.000005015942    -0.000035216932
      14        0.000002331489     0.000005311870     0.000031831106
      15        0.000012853448    -0.000004285192     0.000004030566
      16       -0.000012588205     0.000026837845    -0.000015794724

  **** Optimization is complete! (in 7 steps) ****
    Final optimized geometry and variables:
    Molecular point group: c1

    Geometry (in Angstrom), charge = 0, multiplicity = 1:

    H           -2.112577604758     0.467298492263    -1.971121542896
    C           -1.851815900041    -0.411590953797    -1.384138886275
    O           -1.657862539815    -0.091461547829    -0.046140718149
    H           -2.671216553917    -1.113949119052    -1.432681294739
    H           -0.977477467038    -0.877201829880    -1.828213608234
    C           -0.785898948535     0.958877510923     0.220609721847
    C            0.675086122139     0.670122136667    -0.059640148672
    H           -1.072947049172     1.843580808290    -0.347929685398
    H           -0.898675268474     1.183771327328     1.271998144714
    O            1.118788478101    -0.357187000581     0.762641257687
    H            0.828992903205     0.412758443476    -1.105968496514
    H            1.239135750824     1.583841606386     0.130572246944
    C            2.449200025482    -0.708634894228     0.577006136082
    H            2.632646635834    -1.055530347866    -0.437776275413
    H            3.115634172818     0.127585090236     0.779195883480
    H            2.678459936368    -1.509658901855     1.264295364415

  Mulliken Charges: (a.u.)
   Center  Symbol    Alpha    Beta     Spin     Total
       1     H     0.47345  0.47345  0.00000  0.05311
       2     C     3.03489  3.03489  0.00000 -0.06978
       3     O     4.17248  4.17248  0.00000 -0.34496
       4     H     0.44379  0.44379  0.00000  0.11241
       5     H     0.46892  0.46892  0.00000  0.06217
       6     C     2.97636  2.97636  0.00000  0.04728
       7     C     2.97513  2.97513  0.00000  0.04974
       8     H     0.47176  0.47176  0.00000  0.05649
       9     H     0.44931  0.44931  0.00000  0.10138
      10     O     4.16845  4.16845  0.00000 -0.33691
      11     H     0.47560  0.47560  0.00000  0.04879
      12     H     0.46773  0.46773  0.00000  0.06453
      13     C     3.03215  3.03215  0.00000 -0.06430
      14     H     0.47240  0.47240  0.00000  0.05520
      15     H     0.47205  0.47205  0.00000  0.05591
      16     H     0.44553  0.44553  0.00000  0.10893

   Total alpha = 25.00000, Total beta = 25.00000, Total charge = -0.00000

*** Psi4 exiting successfully. Buy a developer a beer!
