                              Psi4 1.0.54 Driver

  ==> Input File <==

--------------------------------------------------------------------------
set {
	reference rhf
	basis cc-pvtz
}

set_num_threads( 4 )
memory 2 gb

molecule MOL {
0 1

H	 -2.644180	 -0.653737	 1.272255
C	 -2.092774	 -0.380414	 0.391915
O	 -0.808934	 -0.154049	 0.752536
F	 -2.163230	 -1.351640	 -0.507133
F	 -2.627232	 0.691260	 -0.169301
C	 0.085006	 0.250800	 -0.215074
C	 1.152327	 1.097676	 0.474059
Cl	 -0.722425	 1.198512	 -1.478179
H	 0.574628	 -0.576717	 -0.697913
F	 2.045069	 1.503804	 -0.392597
F	 1.765567	 0.363815	 1.372224
F	 0.646116	 2.140057	 1.073594

	symmetry c1
}
set optking {
	frozen_dihedral = ("
		9 6 3 2
	")
}

ee,wfn = optimize('scf', return_wfn=True)
oeprop( wfn, 'DIPOLE', 'QUADRUPOLE', 'MULLIKEN_CHARGES')
f=open( 'psi4out.xyz', 'w' )
f.write( "12  " )
f.write( str(ee) + "\n" )
f.write( MOL.save_string_xyz() )
f.close()
--------------------------------------------------------------------------

    Molecular point group: c1
  Charge       = 0
  Multiplicity = 1
  Basis Set: CC-PVTZ
  Basis Set:
  @DF-RHF Final Energy: -1146.59169323964352
    Total Energy =                      -1146.5916932396435186
    Molecular point group: c1
  Basis Set: CC-PVTZ
  Basis Set:
  Basis Set: CC-PVTZ
  Basis Set:
  @DF-RHF Final Energy: -1146.60569075229068
    Total Energy =                      -1146.6056907522900019
  Basis Set: CC-PVTZ
  Basis Set:
  Basis Set: CC-PVTZ
  Basis Set:
  @DF-RHF Final Energy: -1146.61067258889580
    Total Energy =                      -1146.6106725888967048
  Basis Set: CC-PVTZ
  Basis Set:
  Basis Set: CC-PVTZ
  Basis Set:
  @DF-RHF Final Energy: -1146.61222084260999
    Total Energy =                      -1146.6122208426090765
  Basis Set: CC-PVTZ
  Basis Set:
  @DF-RHF Final Energy: -1146.61265278662427
    Total Energy =                      -1146.6126527866247216
  @DF-RHF Final Energy: -1146.61276173312990
    Total Energy =                      -1146.6127617331308102
  @DF-RHF Final Energy: -1146.61270892951961
    Total Energy =                      -1146.6127089295196129
  Basis Set: CC-PVTZ
  Basis Set:
  @DF-RHF Final Energy: -1146.61280017774834
    Total Energy =                      -1146.6128001777483405
  Basis Set: CC-PVTZ
  Basis Set:
  Basis Set: CC-PVTZ
  Basis Set:
  @DF-RHF Final Energy: -1146.61280533247736
    Total Energy =                      -1146.6128053324778193
  Basis Set: CC-PVTZ
  Basis Set:
  Basis Set: CC-PVTZ
  Basis Set:
  @DF-RHF Final Energy: -1146.61280652568917
    Total Energy =                      -1146.6128065256891659
  Basis Set: CC-PVTZ
  Basis Set:
  Charge       = 0
  Multiplicity = 1
  Basis Set: CC-PVTZ
  Basis Set:

    Orbital Energies (a.u.)
    -----------------------

    Doubly Occupied:

       1A   -104.860748     2A    -26.353846     3A    -26.352404
       4A    -26.352090     5A    -26.339052     6A    -26.333795
       7A    -20.636223     8A    -11.518630     9A    -11.480581
      10A    -11.402158    11A    -10.586286    12A     -8.053114
      13A     -8.051075    14A     -8.050982    15A     -1.766686
      16A     -1.717757    17A     -1.661730    18A     -1.659900
      19A     -1.639707    20A     -1.479453    21A     -1.181099
      22A     -1.059510    23A     -0.987249    24A     -0.920411
      25A     -0.858823    26A     -0.854449    27A     -0.848646
      28A     -0.824790    29A     -0.812854    30A     -0.787422
      31A     -0.736579    32A     -0.730072    33A     -0.711717
      34A     -0.697866    35A     -0.685249    36A     -0.679662
      37A     -0.663854    38A     -0.662553    39A     -0.652998
      40A     -0.637350    41A     -0.596352    42A     -0.558009
      43A     -0.535483    44A     -0.479686    45A     -0.469120

  @DF-RHF Final Energy: -1146.61280668684549

   => Energetics <=

    Nuclear Repulsion Energy =            742.6013708675101270
    One-Electron Energy =               -3068.5723257726176598
    Two-Electron Energy =                1179.3581482182626132
    DFT Exchange-Correlation Energy =       0.0000000000000000
    Empirical Dispersion Energy =           0.0000000000000000
    PCM Polarization Energy =               0.0000000000000000
    EFP Energy =                            0.0000000000000000
    Total Energy =                      -1146.6128066868450333
    Molecular point group: c1
  Basis Set: CC-PVTZ
  Basis Set:

  -Total Gradient:
     Atom            X                  Y                   Z
    ------   -----------------  -----------------  -----------------
       1       -0.000007754487    -0.000006877272     0.000012538379
       2       -0.001083939339     0.004013612126     0.000174231716
       3        0.002521216688    -0.006153225915     0.000644222873
       4        0.000007168960     0.000037502763    -0.000003841435
       5        0.000010294598     0.000023514124    -0.000035175386
       6       -0.004626237719     0.001272720639    -0.004073140092
       7       -0.000009890890    -0.000000044095    -0.000068328869
       8       -0.000021154321     0.000037776288    -0.000021518406
       9        0.003180129657     0.000744644085     0.003314551213
      10       -0.000012544240     0.000017112346     0.000036795915
      11        0.000024923649     0.000005131105     0.000017225743
      12        0.000017787418     0.000008133818     0.000002438299

  **** Optimization is complete! (in 11 steps) ****
    Final optimized geometry and variables:
    Molecular point group: c1

    Geometry (in Angstrom), charge = 0, multiplicity = 1:

    H           -2.228047201046    -1.376577085929     1.461279822320
    C           -1.824853149931    -0.983789260870     0.545249137725
    O           -0.535657639041    -0.650699634517     0.784964790698
    F           -1.910472241921    -1.897648887705    -0.409652446943
    F           -2.538733740362     0.057004624341     0.164797850185
    C            0.403781250455    -0.378944279816    -0.193834201625
    C            1.442477192226     0.518511600542     0.481765434971
    CL          -0.188210707728     0.405488742344    -1.663457815006
    H            0.914819801386    -1.282239322998    -0.483156121631
    F            2.441004199723     0.749220243495    -0.333433466570
    F            1.921686694460    -0.093456023485     1.538969210504
    F            0.940057907223     1.660640764381     0.862094380741

  Mulliken Charges: (a.u.)
   Center  Symbol    Alpha    Beta     Spin     Total
       1     H     0.45127  0.45127  0.00000  0.09747
       2     C     2.73984  2.73984  0.00000  0.52032
       3     O     4.16209  4.16209  0.00000 -0.32418
       4     F     4.61873  4.61873  0.00000 -0.23745
       5     F     4.61081  4.61081  0.00000 -0.22162
       6     C     2.94330  2.94330  0.00000  0.11341
       7     C     2.67183  2.67183  0.00000  0.65634
       8    CL     8.56719  8.56719  0.00000 -0.13437
       9     H     0.42635  0.42635  0.00000  0.14730
      10     F     4.60294  4.60294  0.00000 -0.20588
      11     F     4.60500  4.60500  0.00000 -0.21001
      12     F     4.60066  4.60066  0.00000 -0.20131

   Total alpha = 45.00000, Total beta = 45.00000, Total charge = -0.00000

*** Psi4 exiting successfully. Buy a developer a beer!
