                              Psi4 1.0.54 Driver

  ==> Input File <==

--------------------------------------------------------------------------
set {
	reference rhf
	basis cc-pvtz
}

set_num_threads( 4 )
memory 2 gb

molecule MOL {
0 1

O	 -2.081319	 -0.951530	 -0.502732
N	 -1.613558	 0.006676	 0.014756
C	 -0.329345	 -0.171618	 0.743966
O	 -2.068523	 1.100482	 -0.024385
C	 -0.135189	 -1.643953	 1.083998
H	 -0.401636	 0.437834	 1.629269
H	 0.441186	 0.192793	 0.085392
C	 1.174684	 -1.873648	 1.833424
H	 -0.970999	 -1.979038	 1.687071
H	 -0.143307	 -2.220947	 0.166530
C	 1.397186	 -3.341640	 2.179796
H	 1.177654	 -1.282740	 2.744608
H	 2.003402	 -1.515030	 1.230077
H	 0.600521	 -3.719279	 2.810994
H	 1.430122	 -3.953567	 1.285271
H	 2.332420	 -3.477028	 2.709107

	symmetry c1
}
set optking {
	frozen_dihedral = ("
		5 3 2 1
	")
}

ee,wfn = optimize('scf', return_wfn=True)
oeprop( wfn, 'DIPOLE', 'QUADRUPOLE', 'MULLIKEN_CHARGES')
f=open( 'psi4out.xyz', 'w' )
f.write( "16  " )
f.write( str(ee) + "\n" )
f.write( MOL.save_string_xyz() )
f.close()
--------------------------------------------------------------------------

    Molecular point group: c1
  Charge       = 0
  Multiplicity = 1
  Basis Set: CC-PVTZ
  Basis Set:
  @DF-RHF Final Energy:  -360.90681743945817
    Total Energy =                       -360.9068174394581661
    Molecular point group: c1
  Basis Set: CC-PVTZ
  Basis Set:
  Basis Set: CC-PVTZ
  Basis Set:
  @DF-RHF Final Energy:  -360.90736718471641
    Total Energy =                       -360.9073671847162359
  Basis Set: CC-PVTZ
  Basis Set:
  Basis Set: CC-PVTZ
  Basis Set:
  @DF-RHF Final Energy:  -360.90244171481004
    Total Energy =                       -360.9024417148102089
  Basis Set: CC-PVTZ
  Basis Set:
  Basis Set: CC-PVTZ
  Basis Set:
  @DF-RHF Final Energy:  -360.90379212170592
    Total Energy =                       -360.9037921217056919
  Basis Set: CC-PVTZ
  Basis Set:
  Basis Set: CC-PVTZ
  Basis Set:
  @DF-RHF Final Energy:  -360.90849919006706
    Total Energy =                       -360.9084991900667774
  Basis Set: CC-PVTZ
  Basis Set:
  Basis Set: CC-PVTZ
  Basis Set:
  @DF-RHF Final Energy:  -360.90852969972480
    Total Energy =                       -360.9085296997252499
  Basis Set: CC-PVTZ
  Basis Set:
  Basis Set: CC-PVTZ
  Basis Set:
  @DF-RHF Final Energy:  -360.90853229118710
    Total Energy =                       -360.9085322911874414
  Basis Set: CC-PVTZ
  Basis Set:
  Charge       = 0
  Multiplicity = 1
  Basis Set: CC-PVTZ
  Basis Set:

    Orbital Energies (a.u.)
    -----------------------

    Doubly Occupied:

       1A    -20.592203     2A    -20.587891     3A    -15.837762
       4A    -11.298068     5A    -11.243918     6A    -11.239822
       7A    -11.224291     8A     -1.636457     9A     -1.420536
      10A     -1.134101    11A     -1.058676    12A     -0.948851
      13A     -0.843464    14A     -0.821756    15A     -0.759537
      16A     -0.750528    17A     -0.730519    18A     -0.667809
      19A     -0.615327    20A     -0.603109    21A     -0.565742
      22A     -0.535475    23A     -0.522637    24A     -0.501999
      25A     -0.494930    26A     -0.485947    27A     -0.469231
      28A     -0.453204

  @DF-RHF Final Energy:  -360.90853253083844

   => Energetics <=

    Nuclear Repulsion Energy =            312.4993579657392502
    One-Electron Energy =               -1110.7281994940899494
    Two-Electron Energy =                 437.3203089975118019
    DFT Exchange-Correlation Energy =       0.0000000000000000
    Empirical Dispersion Energy =           0.0000000000000000
    PCM Polarization Energy =               0.0000000000000000
    EFP Energy =                            0.0000000000000000
    Total Energy =                       -360.9085325308388974
    Molecular point group: c1
  Basis Set: CC-PVTZ
  Basis Set:

  -Total Gradient:
     Atom            X                  Y                   Z
    ------   -----------------  -----------------  -----------------
       1       -0.000153812571    -0.000100456364     0.000240345691
       2        0.000240452894     0.000051089421    -0.000455191385
       3       -0.000176603083    -0.000016289271     0.000391147559
       4        0.000005304243     0.000050874366     0.000022632353
       5        0.000102435154    -0.000020786362    -0.000195750662
       6        0.000004298600     0.000002696688    -0.000005169354
       7        0.000019984764     0.000020158053    -0.000021682838
       8       -0.000002014656     0.000005110631     0.000022102569
       9       -0.000013245288    -0.000028637826     0.000017292227
      10       -0.000004071651     0.000018746638     0.000007695671
      11       -0.000016559098     0.000004954258    -0.000023156374
      12        0.000000818680     0.000000108986     0.000013993929
      13       -0.000006499440     0.000008365543    -0.000005981324
      14       -0.000000536058     0.000001140412     0.000005008236
      15       -0.000001081431    -0.000010709227    -0.000004790062
      16        0.000001128949     0.000013634051    -0.000008496240

  **** Optimization is complete! (in 8 steps) ****
    Final optimized geometry and variables:
    Molecular point group: c1

    Geometry (in Angstrom), charge = 0, multiplicity = 1:

    O           -1.655801880215     0.206952638224    -1.206888902416
    N           -1.065054630726     1.060041922186    -0.637466773331
    C            0.233721622434     0.715681618213     0.016114434672
    O           -1.405642916847     2.192732075059    -0.557288621085
    C            0.411085142377    -0.765467418942     0.280408603676
    H            0.257119118683     1.311048779997     0.914124518638
    H            0.982302045819     1.101130188862    -0.662729329772
    C            1.743929419063    -1.037246486586     0.976042439196
    H           -0.406381233395    -1.122093205971     0.896416172063
    H            0.360048760184    -1.309415079169    -0.652636377935
    C            1.961415783724    -2.520024013452     1.256083540626
    H            1.788226043580    -0.483901253062     1.909727307537
    H            2.557221610105    -0.664238534619     0.359757735877
    H            1.182141212115    -2.914546088367     1.898673691559
    H            1.955960438218    -3.095901263454     0.337375201458
    H            2.912440437809    -2.686813692608     1.747064583171

  Mulliken Charges: (a.u.)
   Center  Symbol    Alpha    Beta     Spin     Total
       1     O     4.16945  4.16945  0.00000 -0.33891
       2     N     3.27272  3.27272  0.00000  0.45455
       3     C     3.05054  3.05054  0.00000 -0.10108
       4     O     4.17386  4.17386  0.00000 -0.34773
       5     C     3.09443  3.09443  0.00000 -0.18886
       6     H     0.43122  0.43122  0.00000  0.13756
       7     H     0.43439  0.43439  0.00000  0.13122
       8     C     3.09430  3.09430  0.00000 -0.18859
       9     H     0.44215  0.44215  0.00000  0.11569
      10     H     0.43610  0.43610  0.00000  0.12780
      11     C     3.14802  3.14802  0.00000 -0.29604
      12     H     0.45141  0.45141  0.00000  0.09717
      13     H     0.45186  0.45186  0.00000  0.09627
      14     H     0.45211  0.45211  0.00000  0.09579
      15     H     0.45182  0.45182  0.00000  0.09635
      16     H     0.44560  0.44560  0.00000  0.10880

   Total alpha = 28.00000, Total beta = 28.00000, Total charge =  0.00000

*** Psi4 exiting successfully. Buy a developer a beer!
