                              Psi4 1.0.54 Driver

  ==> Input File <==

--------------------------------------------------------------------------
set {
	reference rhf
	basis cc-pvtz
}

set_num_threads( 4 )
memory 2 gb

molecule MOL {
0 1

H	 -3.436473	 1.252944	 -1.023892
O	 -3.458596	 0.315260	 -0.960865
C	 -3.176635	 -0.080824	 0.355601
C	 -1.763371	 0.265266	 0.799691
H	 -3.321825	 -1.153438	 0.379502
H	 -3.895468	 0.357385	 1.043382
C	 -0.673390	 -0.426948	 -0.013392
H	 -1.631049	 1.344913	 0.747560
H	 -1.664587	 -0.001624	 1.849167
C	 0.737842	 -0.043159	 0.423759
H	 -0.806103	 -0.190518	 -1.063345
H	 -0.797221	 -1.503753	 0.074146
C	 1.824000	 -0.743224	 -0.390623
H	 0.850588	 1.033777	 0.343840
H	 0.868587	 -0.286314	 1.476203
C	 1.566248	 -0.794792	 -1.897525
H	 1.956537	 -1.755539	 -0.015786
H	 2.767955	 -0.232668	 -0.220621
C	 0.371075	 -1.649815	 -2.311821
H	 2.455782	 -1.182686	 -2.384395
H	 1.432977	 0.216416	 -2.273182
H	 0.473781	 -2.666028	 -1.944615
H	 0.288032	 -1.696881	 -3.391696
H	 -0.562739	 -1.253738	 -1.931401

	symmetry c1
}
set optking {
	frozen_dihedral = ("
		17 13 10 7
	")
}

ee,wfn = optimize('scf', return_wfn=True)
oeprop( wfn, 'DIPOLE', 'QUADRUPOLE', 'MULLIKEN_CHARGES')
f=open( 'psi4out.xyz', 'w' )
f.write( "24  " )
f.write( str(ee) + "\n" )
f.write( MOL.save_string_xyz() )
f.close()
--------------------------------------------------------------------------

    Molecular point group: c1
  Charge       = 0
  Multiplicity = 1
  Basis Set: CC-PVTZ
  Basis Set:
  @DF-RHF Final Energy:  -349.35027460098252
    Total Energy =                       -349.3502746009822886
    Molecular point group: c1
  Basis Set: CC-PVTZ
  Basis Set:
  Basis Set: CC-PVTZ
  Basis Set:
  @DF-RHF Final Energy:  -349.36703860835945
    Total Energy =                       -349.3670386083597350
  Basis Set: CC-PVTZ
  Basis Set:
  Basis Set: CC-PVTZ
  Basis Set:
  @DF-RHF Final Energy:  -349.37211441963228
    Total Energy =                       -349.3721144196324531
  Basis Set: CC-PVTZ
  Basis Set:
  Basis Set: CC-PVTZ
  Basis Set:
  @DF-RHF Final Energy:  -349.37330569507122
    Total Energy =                       -349.3733056950709397
  Basis Set: CC-PVTZ
  Basis Set:
  @DF-RHF Final Energy:  -349.37374359409353
    Total Energy =                       -349.3737435940930709
  @DF-RHF Final Energy:  -349.37419525029514
    Total Energy =                       -349.3741952502956565
  @DF-RHF Final Energy:  -349.37429478732889
    Total Energy =                       -349.3742947873284947
  Basis Set: CC-PVTZ
  Basis Set:
  @DF-RHF Final Energy:  -349.37432570366184
    Total Energy =                       -349.3743257036613272
  Basis Set: CC-PVTZ
  Basis Set:
  Basis Set: CC-PVTZ
  Basis Set:
  @DF-RHF Final Energy:  -349.37433160655479
    Total Energy =                       -349.3743316065551312
  Basis Set: CC-PVTZ
  Basis Set:
  Basis Set: CC-PVTZ
  Basis Set:
  @DF-RHF Final Energy:  -349.37433326329148
    Total Energy =                       -349.3743332632910210
  Basis Set: CC-PVTZ
  Basis Set:
  Charge       = 0
  Multiplicity = 1
  Basis Set: CC-PVTZ
  Basis Set:

    Orbital Energies (a.u.)
    -----------------------

    Doubly Occupied:

       1A    -20.546788     2A    -11.265757     3A    -11.215209
       4A    -11.211453     5A    -11.211305     6A    -11.209868
       7A    -11.208620     8A    -11.201771     9A     -1.364531
      10A     -1.088136    11A     -1.046041    12A     -0.985514
      13A     -0.919937    14A     -0.848775    15A     -0.807884
      16A     -0.768775    17A     -0.683172    18A     -0.653364
      19A     -0.621612    20A     -0.614788    21A     -0.603621
      22A     -0.587484    23A     -0.555787    24A     -0.542097
      25A     -0.521746    26A     -0.505047    27A     -0.499008
      28A     -0.478168    29A     -0.471617    30A     -0.457083
      31A     -0.451331    32A     -0.443190    33A     -0.421618

  @DF-RHF Final Energy:  -349.37433337347125

   => Energetics <=

    Nuclear Repulsion Energy =            394.3582085247248870
    One-Electron Energy =               -1255.4428803390942448
    Two-Electron Energy =                 511.7103384408979423
    DFT Exchange-Correlation Energy =       0.0000000000000000
    Empirical Dispersion Energy =           0.0000000000000000
    PCM Polarization Energy =               0.0000000000000000
    EFP Energy =                            0.0000000000000000
    Total Energy =                       -349.3743333734714156
    Molecular point group: c1
  Basis Set: CC-PVTZ
  Basis Set:

  -Total Gradient:
     Atom            X                  Y                   Z
    ------   -----------------  -----------------  -----------------
       1        0.000001641564    -0.000002491848     0.000008527979
       2       -0.000006188549    -0.000018403927     0.000001318520
       3       -0.000001507853     0.000022075511    -0.000000490801
       4        0.000002395770     0.000004337491     0.000006605897
       5       -0.000004687706     0.000002733853    -0.000012006176
       6       -0.000005300450    -0.000002440556    -0.000000369269
       7        0.000026579839     0.002581759658    -0.002154026159
       8        0.000001067837     0.000004804290     0.000000496173
       9        0.000002909329    -0.000000693190     0.000000578340
      10        0.000726952352    -0.003451964003     0.003829147316
      11       -0.000002214089     0.000007474499     0.000002579610
      12       -0.000002879337    -0.000006087808    -0.000001632043
      13       -0.003946808358    -0.000463985639    -0.004488358970
      14        0.000004204746    -0.000001720720    -0.000004102231
      15       -0.000001559288     0.000003377588     0.000001684811
      16        0.000012316340    -0.000007857714    -0.000013344773
      17        0.003193585220     0.001333558058     0.002833653612
      18       -0.000002159881     0.000001525013    -0.000005596984
      19       -0.000008069431    -0.000007656169     0.000001079268
      20        0.000004173344    -0.000001201551     0.000002663453
      21        0.000001420487     0.000002604210    -0.000000450081
      22       -0.000003189750     0.000005333917    -0.000010233762
      23       -0.000002264648    -0.000001022761     0.000008274673
      24        0.000009582509    -0.000004058201    -0.000005998408

  **** Optimization is complete! (in 11 steps) ****
    Final optimized geometry and variables:
    Molecular point group: c1

    Geometry (in Angstrom), charge = 0, multiplicity = 1:

    H           -2.837190678575     1.920117740641    -0.175047594729
    O           -2.930922350702     0.985036886742    -0.152110010661
    C           -2.575065838927     0.501398176593     1.116418120213
    C           -1.104625603897     0.706175919171     1.448444314777
    H           -2.810869050073    -0.555220490490     1.106621824899
    H           -3.192892451909     0.962548806714     1.882826790859
    C           -0.152225717602    -0.030006670050     0.509579269623
    H           -0.884016680905     1.772526136328     1.432964499906
    H           -0.940390406805     0.377836503706     2.471862136370
    C            1.313753355637     0.236367478701     0.843725124435
    H           -0.363875475469     0.268896111596    -0.508477678369
    H           -0.358092849376    -1.096146301030     0.568830364753
    C            2.370004533490    -0.482303187031    -0.009056918052
    H            1.483264608935     1.307736115620     0.756971260538
    H            1.496042655667    -0.009393304753     1.886174437589
    C            2.190036240733    -0.451804631268    -1.533107315173
    H            2.487799773357    -1.506308184157     0.336977651986
    H            3.318895829025    -0.007974871944     0.224749646017
    C            1.374184072337    -1.603530089712    -2.118126383066
    H            3.173835105314    -0.477762171443    -1.990471016075
    H            1.751411473122     0.497114613315    -1.829299182915
    H            1.833338687701    -2.556802844292    -1.877611410491
    H            1.324743225494    -1.526742022531    -3.198686927978
    H            0.359407260676    -1.623936898364    -1.744776436555

  Mulliken Charges: (a.u.)
   Center  Symbol    Alpha    Beta     Spin     Total
       1     H     0.39529  0.39529  0.00000  0.20942
       2     O     4.20311  4.20311  0.00000 -0.40622
       3     C     2.97831  2.97831  0.00000  0.04338
       4     C     3.10351  3.10351  0.00000 -0.20702
       5     H     0.45862  0.45862  0.00000  0.08277
       6     H     0.45971  0.45971  0.00000  0.08059
       7     C     3.09613  3.09613  0.00000 -0.19226
       8     H     0.45904  0.45904  0.00000  0.08192
       9     H     0.45248  0.45248  0.00000  0.09503
      10     C     3.09398  3.09398  0.00000 -0.18796
      11     H     0.44247  0.44247  0.00000  0.11507
      12     H     0.45354  0.45354  0.00000  0.09291
      13     C     3.09784  3.09784  0.00000 -0.19569
      14     H     0.45466  0.45466  0.00000  0.09069
      15     H     0.45009  0.45009  0.00000  0.09981
      16     C     3.10020  3.10020  0.00000 -0.20040
      17     H     0.45416  0.45416  0.00000  0.09168
      18     H     0.44698  0.44698  0.00000  0.10605
      19     C     3.14866  3.14866  0.00000 -0.29733
      20     H     0.44545  0.44545  0.00000  0.10909
      21     H     0.45216  0.45216  0.00000  0.09569
      22     H     0.45554  0.45554  0.00000  0.08892
      23     H     0.44845  0.44845  0.00000  0.10309
      24     H     0.44962  0.44962  0.00000  0.10076

   Total alpha = 33.00000, Total beta = 33.00000, Total charge =  0.00000

*** Psi4 exiting successfully. Buy a developer a beer!
