  ==> Input File <==

--------------------------------------------------------------------------
set {
	reference rhf
	basis 6-31G*
}

set_num_threads( 1 )
memory 2 gb

molecule MOL {
0 1

H	 -4.236494	 0.538104	 0.039757
O	 -3.517110	 -0.026191	 -0.205115
C	 -2.306886	 0.532354	 0.237577
C	 -1.177863	 -0.397191	 -0.171080
H	 -2.156308	 1.517575	 -0.201710
H	 -2.315015	 0.655684	 1.319734
C	 0.198102	 0.111031	 0.262842
H	 -1.208843	 -0.518759	 -1.250427
H	 -1.368741	 -1.376554	 0.258909
C	 1.331804	 -0.827780	 -0.158768
H	 0.361943	 1.100838	 -0.156218
H	 0.217265	 0.229072	 1.345532
C	 2.723619	 -0.410569	 0.329459
H	 1.342964	 -0.912588	 -1.244120
H	 1.116806	 -1.824343	 0.220779
C	 3.843734	 -1.388079	 -0.031305
H	 2.690296	 -0.302960	 1.410846
H	 2.962782	 0.574834	 -0.065444
H	 3.625570	 -2.385740	 0.340334
H	 3.991447	 -1.459569	 -1.103800
H	 4.786078	 -1.072499	 0.405903

	symmetry c1
}
set optking {
	frozen_dihedral = ("
		2 3 4 8,
		8 4 7 10,
		4 7 10 14,
		1 2 3 5
	")
}

ee = energy('scf')
oeprop('DIPOLE', 'QUADRUPOLE', 'MULLIKEN_CHARGES')
f=open( 'psi4out.xyz', 'w' )
f.write( "21  " )
f.write( str(ee) + "\n" )
f.write( MOL.save_string_xyz() )
f.close()
--------------------------------------------------------------------------

    Molecular point group: c1

    Geometry (in Angstrom), charge = 0, multiplicity = 1:

       Center              X                  Y                   Z               Mass
    ------------   -----------------  -----------------  -----------------  -----------------
           H         -4.324450559439     0.873638932144     0.003771230773     1.007825032070
           O         -3.605066559439     0.309343932144    -0.241100769227    15.994914619560
           C         -2.394842559439     0.867888932144     0.201591230773    12.000000000000
           C         -1.265819559439    -0.061656067856    -0.207065769227    12.000000000000
           H         -2.244264559439     1.853109932144    -0.237695769227     1.007825032070
           H         -2.402971559439     0.991218932144     1.283748230773     1.007825032070
           C          0.110145440561     0.446565932144     0.226856230773    12.000000000000
           H         -1.296799559439    -0.183224067856    -1.286412769227     1.007825032070
           H         -1.456697559439    -1.041019067856     0.222923230773     1.007825032070
           C          1.243847440561    -0.492245067856    -0.194753769227    12.000000000000
           H          0.273986440561     1.436372932144    -0.192203769227     1.007825032070
           H          0.129308440561     0.564606932144     1.309546230773     1.007825032070
           C          2.635662440561    -0.075034067856     0.293473230773    12.000000000000
           H          1.255007440561    -0.577053067856    -1.280105769227     1.007825032070
           H          1.028849440561    -1.488808067856     0.184793230773     1.007825032070
           C          3.755777440561    -1.052544067856    -0.067290769227    12.000000000000
           H          2.602339440561     0.032574932144     1.374860230773     1.007825032070
           H          2.874825440561     0.910368932144    -0.101429769227     1.007825032070
           H          3.537613440561    -2.050205067856     0.304348230773     1.007825032070
           H          3.903490440561    -1.124034067856    -1.139785769227     1.007825032070
           H          4.698121440561    -0.736964067856     0.369917230773     1.007825032070

  Charge       = 0
  Multiplicity = 1
  Basis Set: 6-31G*
  Basis Set:

    Orbital Energies (a.u.)
    -----------------------

    Doubly Occupied:

       1A    -20.551999     2A    -11.267258     3A    -11.216613
       4A    -11.215127     5A    -11.213619     6A    -11.210953
       7A    -11.208583     8A     -1.358820     9A     -1.085432
      10A     -1.034360    11A     -0.957144    12A     -0.868308
      13A     -0.802352    14A     -0.789824    15A     -0.691903
      16A     -0.664020    17A     -0.632015    18A     -0.595966
      19A     -0.580884    20A     -0.561796    21A     -0.547966
      22A     -0.521698    23A     -0.507861    24A     -0.483591
      25A     -0.478051    26A     -0.460998    27A     -0.459910
      28A     -0.444811    29A     -0.434130

  @DF-RHF Final Energy:  -310.21401309295118

   => Energetics <=

    Nuclear Repulsion Energy =            308.4378064311076741
    One-Electron Energy =               -1031.6116389414282821
    Two-Electron Energy =                 412.9598194173693742
    DFT Exchange-Correlation Energy =       0.0000000000000000
    Empirical Dispersion Energy =           0.0000000000000000
    PCM Polarization Energy =               0.0000000000000000
    EFP Energy =                            0.0000000000000000
    Total Energy =                       -310.2140130929512338

  Mulliken Charges: (a.u.)
   Center  Symbol    Alpha    Beta     Spin     Total
       1     H     0.28114  0.28114  0.00000  0.43772
       2     O     4.37179  4.37179  0.00000 -0.74358
       3     C     2.98972  2.98972  0.00000  0.02056
       4     C     3.15951  3.15951  0.00000 -0.31902
       5     H     0.43284  0.43284  0.00000  0.13433
       6     H     0.43279  0.43279  0.00000  0.13443
       7     C     3.16012  3.16012  0.00000 -0.32024
       8     H     0.41464  0.41464  0.00000  0.17071
       9     H     0.41460  0.41460  0.00000  0.17080
      10     C     3.14994  3.14994  0.00000 -0.29987
      11     H     0.42319  0.42319  0.00000  0.15362
      12     H     0.42368  0.42368  0.00000  0.15263
      13     C     3.15120  3.15120  0.00000 -0.30240
      14     H     0.42284  0.42284  0.00000  0.15432
      15     H     0.42327  0.42327  0.00000  0.15346
      16     C     3.23935  3.23935  0.00000 -0.47871
      17     H     0.42394  0.42394  0.00000  0.15213
      18     H     0.42351  0.42351  0.00000  0.15298
      19     H     0.42159  0.42159  0.00000  0.15682
      20     H     0.42103  0.42103  0.00000  0.15794
      21     H     0.41931  0.41931  0.00000  0.16138

   Total alpha = 29.00000, Total beta = 29.00000, Total charge =  0.00000
