  ==> Input File <==

--------------------------------------------------------------------------
set {
	reference rhf
	basis 6-31G*
}

set_num_threads( 1 )
memory 2 gb

molecule MOL {
0 1

H	 -2.499100	 -0.730091	 -0.745082
O	 -2.347518	 -0.290803	 0.079804
C	 -1.184022	 0.487508	 -0.006784
C	 0.062599	 -0.378592	 0.031606
H	 -1.176523	 1.099369	 -0.904519
H	 -1.187323	 1.153111	 0.844927
O	 1.171513	 0.459272	 -0.058250
H	 0.050699	 -1.089204	 -0.797170
H	 0.078739	 -0.954914	 0.954740
C	 1.742183	 0.527642	 -1.326636
H	 1.035664	 0.910557	 -2.060690
H	 2.586647	 1.200306	 -1.269121
H	 2.090035	 -0.448310	 -1.658762

	symmetry c1
}
set optking {
	frozen_dihedral = ("
		8 4 3 5,
		1 2 3 5,
		4 7 10 13
	")
}

ee = energy('scf')
oeprop('DIPOLE', 'QUADRUPOLE', 'MULLIKEN_CHARGES')
f=open( 'psi4out.xyz', 'w' )
f.write( "13  " )
f.write( str(ee) + "\n" )
f.write( MOL.save_string_xyz() )
f.close()
--------------------------------------------------------------------------

    Molecular point group: c1

    Geometry (in Angstrom), charge = 0, multiplicity = 1:

       Center              X                  Y                   Z               Mass
    ------------   -----------------  -----------------  -----------------  -----------------
           H         -2.362687761795    -0.881080183798    -0.469524859978     1.007825032070
           O         -2.211105761795    -0.441792183798     0.355361140022    15.994914619560
           C         -1.047609761795     0.336518816202     0.268773140022    12.000000000000
           C          0.199011238205    -0.529581183798     0.307163140022    12.000000000000
           H         -1.040110761795     0.948379816202    -0.628961859978     1.007825032070
           H         -1.050910761795     1.002121816202     1.120484140022     1.007825032070
           O          1.307925238205     0.308282816202     0.217307140022    15.994914619560
           H          0.187111238205    -1.240193183798    -0.521612859978     1.007825032070
           H          0.215151238205    -1.105903183798     1.230297140022     1.007825032070
           C          1.878595238205     0.376652816202    -1.051078859978    12.000000000000
           H          1.172076238205     0.759567816202    -1.785132859978     1.007825032070
           H          2.723059238205     1.049316816202    -0.993563859978     1.007825032070
           H          2.226447238205    -0.599299183798    -1.383204859978     1.007825032070

  Charge       = 0
  Multiplicity = 1
  Basis Set: 6-31G*
  Basis Set:

    Orbital Energies (a.u.)
    -----------------------

    Doubly Occupied:

       1A    -20.561628     2A    -20.559677     3A    -11.273133
       4A    -11.270969     5A    -11.267936     6A     -1.390098
       7A     -1.365011     8A     -1.015687     9A     -0.922716
      10A     -0.840050    11A     -0.712208    12A     -0.670156
      13A     -0.662405    14A     -0.640794    15A     -0.589658
      16A     -0.577206    17A     -0.543639    18A     -0.491628
      19A     -0.474628    20A     -0.466780    21A     -0.404655

  @DF-RHF Final Energy:  -267.94629873204292

   => Energetics <=

    Nuclear Repulsion Energy =            192.3856173908150708
    One-Electron Energy =                -747.2624888923751314
    Two-Electron Energy =                 286.9305727695173118
    DFT Exchange-Correlation Energy =       0.0000000000000000
    Empirical Dispersion Energy =           0.0000000000000000
    PCM Polarization Energy =               0.0000000000000000
    EFP Energy =                            0.0000000000000000
    Total Energy =                       -267.9462987320428056

  Mulliken Charges: (a.u.)
   Center  Symbol    Alpha    Beta     Spin     Total
       1     H     0.28205  0.28205  0.00000  0.43591
       2     O     4.37075  4.37075  0.00000 -0.74151
       3     C     3.00270  3.00270  0.00000 -0.00540
       4     C     3.00762  3.00762  0.00000 -0.01525
       5     H     0.42910  0.42910  0.00000  0.14179
       6     H     0.40771  0.40771  0.00000  0.18458
       7     O     4.30458  4.30458  0.00000 -0.60917
       8     H     0.43635  0.43635  0.00000  0.12731
       9     H     0.40916  0.40916  0.00000  0.18167
      10     C     3.08189  3.08189  0.00000 -0.16378
      11     H     0.43172  0.43172  0.00000  0.13656
      12     H     0.40971  0.40971  0.00000  0.18059
      13     H     0.42665  0.42665  0.00000  0.14670

   Total alpha = 21.00000, Total beta = 21.00000, Total charge =  0.00000
