  ==> Input File <==

--------------------------------------------------------------------------
set {
	reference rhf
	basis 6-31G*
}

set_num_threads( 4 )
memory 2 gb

molecule MOL {
0 1

H	 5.268524	 0.192471	 1.070992
C	 4.673736	 -0.214914	 0.259335
C	 3.185378	 -0.203514	 0.605509
H	 4.871837	 0.380453	 -0.627026
H	 5.025590	 -1.224632	 0.065769
C	 2.317601	 -0.778379	 -0.516234
H	 2.874655	 0.814325	 0.817774
H	 3.023650	 -0.778480	 1.515976
C	 2.983926	 -0.739145	 -1.891639
H	 2.052800	 -1.803446	 -0.282222
H	 1.388410	 -0.215613	 -0.570463
C	 4.132863	 -1.722465	 -2.059773
H	 2.252850	 -0.982324	 -2.661160
H	 3.334008	 0.263828	 -2.125441
C	 5.090504	 -1.492487	 -3.215951
O	 4.272201	 -2.653536	 -1.324860
C	 4.424581	 -1.581704	 -4.597164
H	 5.875043	 -2.234647	 -3.129865
H	 5.545453	 -0.510732	 -3.098210
C	 5.433609	 -1.442826	 -5.738735
H	 3.910293	 -2.536270	 -4.686196
H	 3.666467	 -0.809201	 -4.697031
C	 4.782950	 -1.529978	 -7.118572
H	 6.189742	 -2.218442	 -5.645215
H	 5.955312	 -0.493005	 -5.643539
H	 4.280343	 -2.483060	 -7.255493
H	 4.045263	 -0.744390	 -7.255619
H	 5.522373	 -1.430008	 -7.906696

	symmetry c1
}
set optking {
	frozen_dihedral = ("
		10 6 3 2
	")
}

ee = optimize('scf')
oeprop('DIPOLE', 'QUADRUPOLE', 'MULLIKEN_CHARGES')
f=open( 'psi4out.xyz', 'w' )
f.write( "28  " )
f.write( str(ee) + "\n" )
f.write( MOL.save_string_xyz() )
f.close()
--------------------------------------------------------------------------

    Molecular point group: c1
  Charge       = 0
  Multiplicity = 1
  Basis Set: 6-31G*
  Basis Set:
  @DF-RHF Final Energy:  -426.15157336014295
    Total Energy =                       -426.1515733601424927
    Molecular point group: c1
  Basis Set: 6-31G*
  Basis Set:
  Basis Set: 6-31G*
  Basis Set:
  @DF-RHF Final Energy:  -426.15802999338757
    Total Energy =                       -426.1580299933873448
  Basis Set: 6-31G*
  Basis Set:
  Basis Set: 6-31G*
  Basis Set:
  @DF-RHF Final Energy:  -426.15967652477707
    Total Energy =                       -426.1596765247769554
  Basis Set: 6-31G*
  Basis Set:
  Basis Set: 6-31G*
  Basis Set:
  @DF-RHF Final Energy:  -426.16042190457904
    Total Energy =                       -426.1604219045791524
  Basis Set: 6-31G*
  Basis Set:
  @DF-RHF Final Energy:  -426.16004390195349
    Total Energy =                       -426.1600439019530313
  @DF-RHF Final Energy:  -426.16105645260609
    Total Energy =                       -426.1610564526062035
  Basis Set: 6-31G*
  Basis Set:
  @DF-RHF Final Energy:  -426.16109656964818
    Total Energy =                       -426.1610965696476114
  Basis Set: 6-31G*
  Basis Set:
  Basis Set: 6-31G*
  Basis Set:
  @DF-RHF Final Energy:  -426.16107506730248
    Total Energy =                       -426.1610750673028178
  Basis Set: 6-31G*
  Basis Set:
  Basis Set: 6-31G*
  Basis Set:
  @DF-RHF Final Energy:  -426.16112308062566
    Total Energy =                       -426.1611230806256572
  Basis Set: 6-31G*
  Basis Set:
  Charge       = 0
  Multiplicity = 1
  Basis Set: 6-31G*
  Basis Set:

    Orbital Energies (a.u.)
    -----------------------

    Doubly Occupied:

       1A    -20.546778     2A    -11.321622     3A    -11.232278
       4A    -11.230146     5A    -11.228473     6A    -11.225940
       7A    -11.217209     8A    -11.216205     9A    -11.215790
      10A    -11.206746    11A     -1.392298    12A     -1.094823
      13A     -1.074946    14A     -1.020744    15A     -0.988896
      16A     -0.912953    17A     -0.881525    18A     -0.808695
      19A     -0.790401    20A     -0.720508    21A     -0.667820
      22A     -0.649995    23A     -0.637089    24A     -0.623855
      25A     -0.604401    26A     -0.594124    27A     -0.578371
      28A     -0.552638    29A     -0.549564    30A     -0.535759
      31A     -0.526221    32A     -0.509607    33A     -0.506170
      34A     -0.484454    35A     -0.477871    36A     -0.473973
      37A     -0.470487    38A     -0.457057    39A     -0.452364
      40A     -0.391787

  @DF-RHF Final Energy:  -426.16112293881429

   => Energetics <=

    Nuclear Repulsion Energy =            541.9381203544787695
    One-Electron Energy =               -1652.0573273094969409
    Two-Electron Energy =                 683.9580840162045661
    DFT Exchange-Correlation Energy =       0.0000000000000000
    Empirical Dispersion Energy =           0.0000000000000000
    PCM Polarization Energy =               0.0000000000000000
    EFP Energy =                            0.0000000000000000
    Total Energy =                       -426.1611229388136053
    Molecular point group: c1
  Basis Set: 6-31G*
  Basis Set:

  -Total Gradient:
     Atom            X                  Y                   Z
    ------   -----------------  -----------------  -----------------
       1        0.000018993812     0.000026123673     0.000010244168
       2       -0.000377023282     0.003437331485    -0.001688239318
       3       -0.000552261337    -0.004560393397     0.002990097714
       4       -0.000016422363    -0.000030806941     0.000001537116
       5        0.000019278083    -0.000055175829    -0.000029126851
       6        0.005361302247    -0.000382545956    -0.003305618669
       7       -0.000008240648    -0.000003862449     0.000000546613
       8        0.000004900042    -0.000012632287     0.000011153871
       9        0.000007036878    -0.000015071931     0.000019577171
      10       -0.004417833289     0.001572630872     0.002025493646
      11       -0.000002179962    -0.000002998315    -0.000026811295
      12       -0.000105578662    -0.000024592217    -0.000039077910
      13        0.000012338145    -0.000005175457    -0.000027591842
      14        0.000008390227     0.000025156243     0.000006563322
      15        0.000005907188     0.000074069936    -0.000039944460
      16        0.000056790545     0.000015998754     0.000058145344
      17       -0.000009323676    -0.000040803992    -0.000004087109
      18       -0.000027912664     0.000000149551     0.000008025533
      19        0.000017737095     0.000017270583     0.000015149669
      20        0.000015552048    -0.000043822400     0.000005971764
      21        0.000005837809    -0.000013555022     0.000013167645
      22       -0.000009567065    -0.000010205047    -0.000014774243
      23       -0.000014095310     0.000051405657     0.000010316360
      24       -0.000012597491    -0.000019870731    -0.000019798972
      25        0.000017401660    -0.000013700557     0.000012721034
      26        0.000016855235     0.000000314839     0.000007892148
      27       -0.000016054282    -0.000002045650    -0.000007818759
      28        0.000000769016     0.000016806586     0.000006286315

  **** Optimization is complete! (in 10 steps) ****
    Final optimized geometry and variables:
    Molecular point group: c1

    Geometry (in Angstrom), charge = 0, multiplicity = 1:

    H            0.967427897233     1.712346452662     3.958855878021
    C            0.552173388100     1.205448864350     3.093149006406
    C           -0.970378525139     1.114695919809     3.223277586567
    H            0.849237073351     1.775922338868     2.218160269306
    H            1.012691094730     0.226255854194     3.031680968981
    C           -1.744011076854     0.441136589984     2.063222837669
    H           -1.346582814544     2.128283649531     3.341233592650
    H           -1.216479284527     0.598001133744     4.145443636303
    C           -1.097833423219     0.467427115209     0.677003294967
    H           -1.989879957236    -0.580524249989     2.324811550386
    H           -2.702327957957     0.947097749221     1.979662866830
    C           -0.010818505064    -0.573789441010     0.454476234493
    H           -1.864046608800     0.256926121911    -0.067909701693
    H           -0.717953273118     1.454733806752     0.430108271813
    C            0.954079415545    -0.344828573477    -0.695540435195
    O            0.065233205560    -1.553488954353     1.133184015352
    C            0.276043819245    -0.350429502646    -2.073990285680
    H            1.701564169813    -1.127250517666    -0.643672545898
    H            1.456464041105     0.608651762231    -0.544582893572
    C            1.282763547936    -0.210202240690    -3.217394593457
    H           -0.279894494009    -1.277545789855    -2.195826056825
    H           -0.448358286629     0.457606023080    -2.137100308855
    C            0.619001369279    -0.204147889790    -4.593722627558
    H            2.000644301067    -1.025034585022    -3.164959519003
    H            1.850929388033     0.708014441469    -3.085212173695
    H            0.070987022320    -1.125440529498    -4.768644943057
    H           -0.081697019034     0.620558591090    -4.688618005523
    H            1.356787330818    -0.103356663632    -5.383304251082

  Mulliken Charges: (a.u.)
   Center  Symbol    Alpha    Beta     Spin     Total
       1     H     0.41848  0.41848  0.00000  0.16304
       2     C     3.25104  3.25104  0.00000 -0.50209
       3     C     3.15069  3.15069  0.00000 -0.30138
       4     H     0.42773  0.42773  0.00000  0.14454
       5     H     0.40728  0.40728  0.00000  0.18543
       6     C     3.15539  3.15539  0.00000 -0.31078
       7     H     0.42419  0.42419  0.00000  0.15163
       8     H     0.41657  0.41657  0.00000  0.16685
       9     C     3.21464  3.21464  0.00000 -0.42928
      10     H     0.40282  0.40282  0.00000  0.19437
      11     H     0.42027  0.42027  0.00000  0.15947
      12     C     2.72738  2.72738  0.00000  0.54524
      13     H     0.40250  0.40250  0.00000  0.19500
      14     H     0.41173  0.41173  0.00000  0.17655
      15     C     3.20206  3.20206  0.00000 -0.40412
      16     O     4.26870  4.26870  0.00000 -0.53740
      17     C     3.16405  3.16405  0.00000 -0.32809
      18     H     0.39989  0.39989  0.00000  0.20022
      19     H     0.41285  0.41285  0.00000  0.17430
      20     C     3.15175  3.15175  0.00000 -0.30351
      21     H     0.41344  0.41344  0.00000  0.17312
      22     H     0.41868  0.41868  0.00000  0.16264
      23     C     3.24033  3.24033  0.00000 -0.48067
      24     H     0.41833  0.41833  0.00000  0.16334
      25     H     0.42149  0.42149  0.00000  0.15703
      26     H     0.41959  0.41959  0.00000  0.16083
      27     H     0.42124  0.42124  0.00000  0.15753
      28     H     0.41691  0.41691  0.00000  0.16619

   Total alpha = 40.00000, Total beta = 40.00000, Total charge =  0.00000
