                              Psi4 1.0.54 Driver

  ==> Input File <==

--------------------------------------------------------------------------
set {
	reference rhf
	basis cc-pvtz
}

set_num_threads( 4 )
memory 2 gb

molecule MOL {
0 1

O	 1.847685	 1.294399	 -0.000201
C	 1.704209	 0.119472	 -0.000093
C	 0.380337	 -0.600947	 -0.000218
O	 2.715427	 -0.733672	 0.000025
C	 -0.824290	 0.329213	 -0.000098
H	 0.371449	 -1.255483	 -0.865638
H	 0.371416	 -1.255779	 0.864974
C	 -2.146151	 -0.432825	 -0.000035
H	 -0.773942	 0.979151	 -0.866308
H	 -0.773832	 0.979042	 0.866197
C	 -3.366283	 0.483552	 0.000591
H	 -2.189292	 -1.084457	 -0.869957
H	 -2.188861	 -1.085075	 0.869438
C	 -4.687436	 -0.278003	 0.000158
H	 -3.325156	 1.134812	 -0.867929
H	 -3.325081	 1.133738	 0.869913
H	 -4.773789	 -0.912105	 -0.876022
H	 -5.531922	 0.401392	 0.000413
H	 -4.773895	 -0.912890	 0.875759
C	 4.020999	 -0.192556	 0.000019
H	 4.182809	 0.412891	 -0.879449
H	 4.692590	 -1.035653	 0.000152
H	 4.182726	 0.413087	 0.879368

	symmetry c1
}
set optking {
	frozen_dihedral = ("
		1 2 4 20
	")
}

ee,wfn = optimize('scf', return_wfn=True)
oeprop( wfn, 'DIPOLE', 'QUADRUPOLE', 'MULLIKEN_CHARGES')
f=open( 'psi4out.xyz', 'w' )
f.write( "23  " )
f.write( str(ee) + "\n" )
f.write( MOL.save_string_xyz() )
f.close()
--------------------------------------------------------------------------

    Molecular point group: c1
  Charge       = 0
  Multiplicity = 1
  Basis Set: CC-PVTZ
  Basis Set:

    Orbital Energies (a.u.)
    -----------------------

    Doubly Occupied:

       1A    -20.596286     2A    -20.534092     3A    -11.364532
       4A    -11.278473     5A    -11.233767     6A    -11.217166
       7A    -11.215819     8A    -11.214508     9A    -11.207760
      10A     -1.472180    11A     -1.365750    12A     -1.094510
      13A     -1.044789    14A     -0.988053    15A     -0.932718
      16A     -0.844091    17A     -0.795575    18A     -0.769279
      19A     -0.699101    20A     -0.686909    21A     -0.675348
      22A     -0.652877    23A     -0.609739    24A     -0.601002
      25A     -0.573656    26A     -0.559479    27A     -0.558164
      28A     -0.525263    29A     -0.522189    30A     -0.508286
      31A     -0.484857    32A     -0.470175    33A     -0.467235
      34A     -0.463329    35A     -0.459073    36A     -0.438392

  @DF-RHF Final Energy:  -423.13110022926492

   => Energetics <=

    Nuclear Repulsion Energy =            452.8915219065008841
    One-Electron Energy =               -1473.7963980491299480
    Two-Electron Energy =                 597.7737759133641475
    DFT Exchange-Correlation Energy =       0.0000000000000000
    Empirical Dispersion Energy =           0.0000000000000000
    PCM Polarization Energy =               0.0000000000000000
    EFP Energy =                            0.0000000000000000
    Total Energy =                       -423.1311002292649164
    Molecular point group: c1
  Basis Set: CC-PVTZ
  Basis Set:

  -Total Gradient:
     Atom            X                  Y                   Z
    ------   -----------------  -----------------  -----------------
       1       -0.000003424426    -0.000021695378    -0.000005918353
       2        0.000052854095     0.000021190427     0.000017104914
       3        0.000016441343     0.000004811940    -0.000002707264
       4       -0.000069681394     0.000002092285    -0.000003008128
       5       -0.000008483011    -0.000006498027    -0.000010765387
       6       -0.000011187858    -0.000006412260     0.000004091424
       7       -0.000009060480    -0.000007369323    -0.000004558934
       8        0.000012403010    -0.000003399661     0.000004773683
       9        0.000001153617    -0.000001168456     0.000006059059
      10       -0.000000598249     0.000000874196    -0.000003800775
      11       -0.000011677761     0.000004049240     0.000005786859
      12        0.000000128370    -0.000003545891     0.000003044699
      13        0.000001968391    -0.000001895442    -0.000006211944
      14       -0.000008210451    -0.000003448250    -0.000004422225
      15       -0.000000285067     0.000004909847     0.000004340860
      16        0.000000313640     0.000004776286    -0.000002192308
      17       -0.000002310546     0.000001162742     0.000003943364
      18        0.000003946526    -0.000005241997    -0.000001029488
      19       -0.000001453375     0.000003940864    -0.000003002018
      20        0.000069472515     0.000018968095    -0.000003323207
      21       -0.000010044804    -0.000003977148     0.000004062870
      22       -0.000011481668     0.000002428020     0.000000858901
      23       -0.000010782408    -0.000004552113    -0.000003126603

  **** Optimization is complete! (in 1 steps) ****
    Final optimized geometry and variables:
    Molecular point group: c1

    Geometry (in Angstrom), charge = 0, multiplicity = 1:

    O            1.847684902062     1.294399076299    -0.000216303867
    C            1.704208902062     0.119472076299    -0.000108303867
    C            0.380336902062    -0.600946923701    -0.000233303867
    O            2.715426902062    -0.733671923701     0.000009696133
    C           -0.824290097938     0.329213076299    -0.000113303867
    H            0.371448902062    -1.255482923701    -0.865653303867
    H            0.371415902062    -1.255778923701     0.864958696133
    C           -2.146151097938    -0.432824923701    -0.000050303867
    H           -0.773942097938     0.979151076299    -0.866323303867
    H           -0.773832097938     0.979042076299     0.866181696133
    C           -3.366283097938     0.483552076299     0.000575696133
    H           -2.189292097938    -1.084456923701    -0.869972303867
    H           -2.188861097938    -1.085074923701     0.869422696133
    C           -4.687436097938    -0.278002923701     0.000142696133
    H           -3.325156097938     1.134812076299    -0.867944303867
    H           -3.325081097938     1.133738076299     0.869897696133
    H           -4.773789097938    -0.912104923701    -0.876037303867
    H           -5.531922097938     0.401392076299     0.000397696133
    H           -4.773895097938    -0.912889923701     0.875743696133
    C            4.020998902062    -0.192555923701     0.000003696133
    H            4.182808902062     0.412891076299    -0.879464303867
    H            4.692589902062    -1.035652923701     0.000136696133
    H            4.182725902062     0.413087076299     0.879352696133

  Mulliken Charges: (a.u.)
   Center  Symbol    Alpha    Beta     Spin     Total
       1     O     4.19703  4.19703  0.00000 -0.39406
       2     C     2.80691  2.80691  0.00000  0.38617
       3     C     3.10118  3.10118  0.00000 -0.20236
       4     O     4.14647  4.14647  0.00000 -0.29293
       5     C     3.08327  3.08327  0.00000 -0.16654
       6     H     0.44014  0.44014  0.00000  0.11971
       7     H     0.44014  0.44014  0.00000  0.11971
       8     C     3.08934  3.08934  0.00000 -0.17867
       9     H     0.44638  0.44638  0.00000  0.10725
      10     H     0.44638  0.44638  0.00000  0.10723
      11     C     3.08401  3.08401  0.00000 -0.16801
      12     H     0.45580  0.45580  0.00000  0.08839
      13     H     0.45580  0.45580  0.00000  0.08839
      14     C     3.15039  3.15039  0.00000 -0.30079
      15     H     0.45327  0.45327  0.00000  0.09345
      16     H     0.45327  0.45327  0.00000  0.09345
      17     H     0.45532  0.45532  0.00000  0.08935
      18     H     0.44773  0.44773  0.00000  0.10455
      19     H     0.45532  0.45532  0.00000  0.08936
      20     C     3.03781  3.03781  0.00000 -0.07562
      21     H     0.45434  0.45434  0.00000  0.09131
      22     H     0.44533  0.44533  0.00000  0.10934
      23     H     0.45434  0.45434  0.00000  0.09131

   Total alpha = 36.00000, Total beta = 36.00000, Total charge = -0.00000

*** Psi4 exiting successfully. Buy a developer a beer!
