  ==> Input File <==

--------------------------------------------------------------------------
set {
	reference rhf
	basis 6-31G*
}

set_num_threads( 4 )
memory 2 gb

molecule MOL {
0 1

H	 -2.365627	 -1.312883	 -0.379134
C	 -1.358347	 -1.274295	 0.019669
C	 -0.681945	 0.000119	 -0.470601
H	 -0.826096	 -2.155117	 -0.321105
H	 -1.409554	 -1.292283	 1.100109
C	 -1.357790	 1.274691	 0.020220
N	 0.739525	 -0.000142	 0.006128
H	 -0.594190	 0.000341	 -1.545128
H	 -2.364980	 1.313977	 -0.378631
H	 -0.825080	 2.155361	 -0.320114
H	 -1.409060	 1.292170	 1.100671
O	 1.477089	 -0.810095	 -0.463506
O	 1.042408	 0.812270	 0.826890

	symmetry c1
}
set optking {
	frozen_dihedral = ("
		12 7 3 8
	")
}

ee = optimize('scf')
oeprop('DIPOLE', 'QUADRUPOLE', 'MULLIKEN_CHARGES')
f=open( 'psi4out.xyz', 'w' )
f.write( "13  " )
f.write( str(ee) + "\n" )
f.write( MOL.save_string_xyz() )
f.close()
--------------------------------------------------------------------------

    Molecular point group: c1
  Charge       = 0
  Multiplicity = 1
  Basis Set: 6-31G*
  Basis Set:
  @DF-RHF Final Energy:  -321.73737545714476
    Total Energy =                       -321.7373754571448217
    Molecular point group: c1
  Basis Set: 6-31G*
  Basis Set:
  Basis Set: 6-31G*
  Basis Set:
  @DF-RHF Final Energy:  -321.73533226705268
    Total Energy =                       -321.7353322670526268
  Basis Set: 6-31G*
  Basis Set:
  Basis Set: 6-31G*
  Basis Set:
  @DF-RHF Final Energy:  -321.73603341820080
    Total Energy =                       -321.7360334182007477
  Basis Set: 6-31G*
  Basis Set:
  Basis Set: 6-31G*
  Basis Set:
  @DF-RHF Final Energy:  -321.73801153275286
    Total Energy =                       -321.7380115327529211
  Basis Set: 6-31G*
  Basis Set:
  Basis Set: 6-31G*
  Basis Set:
  @DF-RHF Final Energy:  -321.73828276266727
    Total Energy =                       -321.7382827626670405
  Basis Set: 6-31G*
  Basis Set:
  Basis Set: 6-31G*
  Basis Set:
  @DF-RHF Final Energy:  -321.73830128795259
    Total Energy =                       -321.7383012879522539
  Basis Set: 6-31G*
  Basis Set:
  Basis Set: 6-31G*
  Basis Set:
  @DF-RHF Final Energy:  -321.73830267112078
    Total Energy =                       -321.7383026711206639
  Basis Set: 6-31G*
  Basis Set:
  Charge       = 0
  Multiplicity = 1
  Basis Set: 6-31G*
  Basis Set:

    Orbital Energies (a.u.)
    -----------------------

    Doubly Occupied:

       1A    -20.602476     2A    -20.596516     3A    -15.843851
       4A    -11.307323     5A    -11.246870     6A    -11.240616
       7A     -1.629131     8A     -1.414355     9A     -1.142651
      10A     -0.971225    11A     -0.958468    12A     -0.813165
      13A     -0.757646    14A     -0.725680    15A     -0.721487
      16A     -0.644670    17A     -0.593004    18A     -0.587632
      19A     -0.571640    20A     -0.527216    21A     -0.521960
      22A     -0.481506    23A     -0.471143    24A     -0.446731

  @DF-RHF Final Energy:  -321.73830272642709

   => Energetics <=

    Nuclear Repulsion Energy =            256.8130817468627924
    One-Electron Energy =                -947.4688465666918091
    Two-Electron Energy =                 368.9174620934021505
    DFT Exchange-Correlation Energy =       0.0000000000000000
    Empirical Dispersion Energy =           0.0000000000000000
    PCM Polarization Energy =               0.0000000000000000
    EFP Energy =                            0.0000000000000000
    Total Energy =                       -321.7383027264269231
    Molecular point group: c1
  Basis Set: 6-31G*
  Basis Set:

  -Total Gradient:
     Atom            X                  Y                   Z
    ------   -----------------  -----------------  -----------------
       1       -0.000000781965    -0.000004678902     0.000004518770
       2       -0.000022470347    -0.000001920715    -0.000001360842
       3       -0.000106324708    -0.001439459228     0.000271929086
       4       -0.000005052983     0.000005743978    -0.000004593364
       5        0.000000275664     0.000000092654     0.000002492191
       6       -0.000006603159    -0.000010689789    -0.000007222520
       7        0.000335183464     0.001050298002    -0.001019242995
       8        0.000015211627     0.001052462534    -0.000002764854
       9       -0.000002312681    -0.000001763334    -0.000000898733
      10        0.000003704274     0.000000073655    -0.000003960744
      11        0.000002089353    -0.000004286574    -0.000001365091
      12       -0.000239208096    -0.000623413082     0.000775344309
      13        0.000026289552    -0.000022459202    -0.000012875212

  **** Optimization is complete! (in 8 steps) ****
    Final optimized geometry and variables:
    Molecular point group: c1

    Geometry (in Angstrom), charge = 0, multiplicity = 1:

    H           -2.370829408027    -1.282223833007    -0.352566060895
    C           -1.353096019327    -1.256348006231     0.018719592318
    C           -0.682764864905     0.029836068997    -0.457992890921
    H           -0.827398216995    -2.127250084429    -0.346774845658
    H           -1.385468005291    -1.291161036701     1.102334611808
    C           -1.385541428238     1.293231767232     0.007823511958
    N            0.745915610944    -0.000385767350     0.010930443291
    H           -0.588562474181     0.021591730998    -1.534679842429
    H           -2.381327769867     1.307057214735    -0.421797154833
    H           -0.860793037229     2.182149509372    -0.316443566279
    H           -1.472637530118     1.322456225868     1.085637880307
    O            1.441739214048    -0.840259443337    -0.474764997264
    O            1.095073258906     0.782185140737     0.838303274030

  Mulliken Charges: (a.u.)
   Center  Symbol    Alpha    Beta     Spin     Total
       1     H     0.40710  0.40710  0.00000  0.18581
       2     C     3.24981  3.24981  0.00000 -0.49961
       3     C     3.02436  3.02436  0.00000 -0.04873
       4     H     0.39235  0.39235  0.00000  0.21531
       5     H     0.40540  0.40540  0.00000  0.18920
       6     C     3.24228  3.24228  0.00000 -0.48455
       7     N     3.21824  3.21824  0.00000  0.56353
       8     H     0.38681  0.38681  0.00000  0.22639
       9     H     0.41242  0.41242  0.00000  0.17515
      10     H     0.40151  0.40151  0.00000  0.19698
      11     H     0.40164  0.40164  0.00000  0.19673
      12     O     4.23068  4.23068  0.00000 -0.46136
      13     O     4.22742  4.22742  0.00000 -0.45484

   Total alpha = 24.00000, Total beta = 24.00000, Total charge =  0.00000
