                              Psi4 1.0.54 Driver

  ==> Input File <==

--------------------------------------------------------------------------
set {
	reference rhf
	basis cc-pvtz
}

set_num_threads( 4 )
memory 2 gb

molecule MOL {
0 1

H	 2.614283	 2.028610	 0.296620
O	 3.358864	 1.662087	 -0.142800
C	 3.565468	 0.338079	 0.273842
C	 2.533667	 -0.637565	 -0.272227
H	 4.548038	 0.064914	 -0.086598
H	 3.593945	 0.282242	 1.360360
C	 1.948693	 -1.582931	 0.774644
H	 1.734685	 -0.069687	 -0.739453
H	 3.008106	 -1.220425	 -1.058089
C	 0.941801	 -2.568850	 0.183907
H	 1.469602	 -1.001364	 1.555192
H	 2.755742	 -2.138727	 1.249038
C	 0.378578	 -3.589105	 1.174925
H	 0.121423	 -2.014749	 -0.265735
H	 1.422403	 -3.108012	 -0.627755
C	 -0.511241	 -3.003675	 2.270021
H	 -0.197030	 -4.323333	 0.618048
H	 1.200198	 -4.135295	 1.632935
C	 -1.127900	 -4.069696	 3.172098
H	 -1.306549	 -2.420289	 1.811093
H	 0.057816	 -2.312187	 2.884041
C	 -2.013919	 -3.488391	 4.268887
H	 -1.710258	 -4.758812	 2.566660
H	 -0.334828	 -4.658899	 3.624800
H	 -2.836095	 -2.919533	 3.847383
H	 -2.437121	 -4.270887	 4.888329
H	 -1.451277	 -2.823190	 4.915643

	symmetry c1
}
set optking {
	frozen_dihedral = ("
		8 4 3 2
	")
}

ee,wfn = optimize('scf', return_wfn=True)
oeprop( wfn, 'DIPOLE', 'QUADRUPOLE', 'MULLIKEN_CHARGES')
f=open( 'psi4out.xyz', 'w' )
f.write( "27  " )
f.write( str(ee) + "\n" )
f.write( MOL.save_string_xyz() )
f.close()
--------------------------------------------------------------------------

    Molecular point group: c1
  Charge       = 0
  Multiplicity = 1
  Basis Set: CC-PVTZ
  Basis Set:
  @DF-RHF Final Energy:  -388.42197103117087
    Total Energy =                       -388.4219710311708695
    Molecular point group: c1
  Basis Set: CC-PVTZ
  Basis Set:
  Basis Set: CC-PVTZ
  Basis Set:
  @DF-RHF Final Energy:  -388.42242311714466
    Total Energy =                       -388.4224231171444899
  Basis Set: CC-PVTZ
  Basis Set:
  Basis Set: CC-PVTZ
  Basis Set:
  @DF-RHF Final Energy:  -388.42249301555864
    Total Energy =                       -388.4224930155581887
  Basis Set: CC-PVTZ
  Basis Set:
  Basis Set: CC-PVTZ
  Basis Set:
  @DF-RHF Final Energy:  -388.42249925571576
    Total Energy =                       -388.4224992557160476
  Basis Set: CC-PVTZ
  Basis Set:
  Charge       = 0
  Multiplicity = 1
  Basis Set: CC-PVTZ
  Basis Set:

    Orbital Energies (a.u.)
    -----------------------

    Doubly Occupied:

       1A    -20.544488     2A    -11.264918     3A    -11.216871
       4A    -11.214529     5A    -11.214018     6A    -11.213816
       7A    -11.213223     8A    -11.212008     9A    -11.207569
      10A     -1.362371    11A     -1.096371    12A     -1.062677
      13A     -1.011385    14A     -0.946175    15A     -0.885705
      16A     -0.824617    17A     -0.805141    18A     -0.779335
      19A     -0.689392    20A     -0.652535    21A     -0.644254
      22A     -0.608714    23A     -0.604836    24A     -0.586516
      25A     -0.574479    26A     -0.554728    27A     -0.545522
      28A     -0.525570    29A     -0.510360    30A     -0.501852
      31A     -0.482878    32A     -0.475674    33A     -0.464362
      34A     -0.460336    35A     -0.450881    36A     -0.442991
      37A     -0.424789

  @DF-RHF Final Energy:  -388.42249854126533

   => Energetics <=

    Nuclear Repulsion Energy =            454.7027038146295581
    One-Electron Energy =               -1427.6986347688111891
    Two-Electron Energy =                 584.5734324129159631
    DFT Exchange-Correlation Energy =       0.0000000000000000
    Empirical Dispersion Energy =           0.0000000000000000
    PCM Polarization Energy =               0.0000000000000000
    EFP Energy =                            0.0000000000000000
    Total Energy =                       -388.4224985412656679
    Molecular point group: c1
  Basis Set: CC-PVTZ
  Basis Set:

  -Total Gradient:
     Atom            X                  Y                   Z
    ------   -----------------  -----------------  -----------------
       1       -0.000018446539     0.000004822686    -0.000005685362
       2       -0.001194043467     0.000320711026     0.001746982725
       3        0.002053770365    -0.000608571393    -0.002837940943
       4       -0.002142455597     0.000201706338     0.003545193606
       5       -0.000009085999     0.000046585501    -0.000033819447
       6       -0.000007314755     0.000073584347    -0.000016416264
       7       -0.000070689137     0.000074115285    -0.000091693596
       8        0.001322680096    -0.000115609005    -0.002283151277
       9        0.000039467395    -0.000001039907    -0.000026004946
      10       -0.000013569641     0.000008549209     0.000041348021
      11        0.000012191655     0.000005683512    -0.000065320731
      12        0.000027272728     0.000022604136    -0.000008065786
      13        0.000039703678    -0.000006480670     0.000016217880
      14        0.000004395513     0.000017321739     0.000029773497
      15       -0.000013365189     0.000001457458    -0.000024631247
      16       -0.000007643536    -0.000006481132     0.000011048077
      17        0.000018316948    -0.000006874734    -0.000004095807
      18        0.000007352397     0.000000903339     0.000017846719
      19       -0.000008524706    -0.000001606687    -0.000012448181
      20       -0.000006265571     0.000011322592     0.000001761935
      21       -0.000031282746    -0.000044028959     0.000002019698
      22       -0.000002039370     0.000001793501    -0.000003275370
      23       -0.000000475153    -0.000004269672     0.000001832705
      24        0.000001527301     0.000003384720    -0.000002549817
      25       -0.000001043624     0.000000548878     0.000001833478
      26       -0.000000701610    -0.000000409671    -0.000000534654
      27        0.000000268569     0.000000277562    -0.000000224910

  **** Optimization is complete! (in 5 steps) ****
    Final optimized geometry and variables:
    Molecular point group: c1

    Geometry (in Angstrom), charge = 0, multiplicity = 1:

    H            1.513829396149     3.809338424062    -1.135601504731
    O            2.339639237041     3.487182708540    -1.447630455081
    C            2.530508411821     2.167135689484    -1.011553595459
    C            1.496446799593     1.178132354679    -1.573288677146
    H            3.528656487460     1.896525630281    -1.324852528378
    H            2.519025802105     2.135520329279     0.075392367395
    C            0.902695170703     0.243540305912    -0.523132451694
    H            0.711365342142     1.745483642416    -2.063744290121
    H            1.952439434379     0.586366289071    -2.361077864044
    C           -0.092312142269    -0.755875721618    -1.108982523706
    H            0.424324979892     0.839158069877     0.248480750684
    H            1.706798598544    -0.300462468486    -0.031852241528
    C           -0.649259976657    -1.773743516726    -0.111878223010
    H           -0.916665372126    -0.213940141415    -1.566870927826
    H            0.396126196582    -1.296817147328    -1.914635874606
    C           -1.548637284468    -1.188415571132     0.975358049789
    H           -1.215552458697    -2.518166427671    -0.664653618943
    H            0.176115835395    -2.307739228547     0.353427359390
    C           -2.158819987207    -2.253041529356     1.883348287540
    H           -2.347982060589    -0.616518572283     0.508779240709
    H           -0.988260691337    -0.486992194054     1.585902726953
    C           -3.054318481732    -1.671639559783     2.972287710967
    H           -2.732342121269    -2.952379735971     1.281239482319
    H           -1.361942998816    -2.830986547146     2.343593348880
    H           -3.880737139731    -1.114556071057     2.543364775966
    H           -3.471909724884    -2.453121511423     3.596717920165
    H           -2.500486931725    -0.995649830270     3.615391883957

  Mulliken Charges: (a.u.)
   Center  Symbol    Alpha    Beta     Spin     Total
       1     H     0.39509  0.39509  0.00000  0.20983
       2     O     4.20192  4.20192  0.00000 -0.40383
       3     C     2.97104  2.97104  0.00000  0.05792
       4     C     3.10297  3.10297  0.00000 -0.20594
       5     H     0.45296  0.45296  0.00000  0.09407
       6     H     0.47048  0.47048  0.00000  0.05904
       7     C     3.09827  3.09827  0.00000 -0.19654
       8     H     0.45102  0.45102  0.00000  0.09796
       9     H     0.45137  0.45137  0.00000  0.09726
      10     C     3.10041  3.10041  0.00000 -0.20081
      11     H     0.45389  0.45389  0.00000  0.09222
      12     H     0.45281  0.45281  0.00000  0.09438
      13     C     3.09785  3.09785  0.00000 -0.19571
      14     H     0.45286  0.45286  0.00000  0.09428
      15     H     0.44709  0.44709  0.00000  0.10582
      16     C     3.08792  3.08792  0.00000 -0.17584
      17     H     0.44809  0.44809  0.00000  0.10383
      18     H     0.45349  0.45349  0.00000  0.09303
      19     C     3.08401  3.08401  0.00000 -0.16802
      20     H     0.45535  0.45535  0.00000  0.08930
      21     H     0.45401  0.45401  0.00000  0.09199
      22     C     3.14975  3.14975  0.00000 -0.29951
      23     H     0.45385  0.45385  0.00000  0.09230
      24     H     0.45444  0.45444  0.00000  0.09112
      25     H     0.45527  0.45527  0.00000  0.08946
      26     H     0.44820  0.44820  0.00000  0.10361
      27     H     0.45560  0.45560  0.00000  0.08881

   Total alpha = 37.00000, Total beta = 37.00000, Total charge = -0.00000

*** Psi4 exiting successfully. Buy a developer a beer!
