                              Psi4 1.0.54 Driver

  ==> Input File <==

--------------------------------------------------------------------------
set {
	reference rhf
	basis cc-pvtz
}

set_num_threads( 4 )
memory 2 gb

molecule MOL {
0 1

O	 -2.081319	 -0.951530	 -0.502732
N	 -1.613558	 0.006676	 0.014756
C	 -0.329345	 -0.171618	 0.743966
O	 -2.068523	 1.100482	 -0.024385
C	 0.835904	 0.041968	 -0.213982
H	 -0.346048	 -1.174374	 1.137184
H	 -0.333613	 0.555559	 1.538590
C	 0.934828	 1.500625	 -0.652960
H	 1.754086	 -0.260882	 0.275691
H	 0.701832	 -0.597088	 -1.079066
C	 2.089787	 1.740539	 -1.618876
H	 1.057351	 2.133178	 0.221283
H	 0.002630	 1.800207	 -1.122708
H	 3.039504	 1.481244	 -1.164452
H	 1.978059	 1.144045	 -2.517445
H	 2.136808	 2.781294	 -1.915154

	symmetry c1
}
set optking {
	frozen_dihedral = ("
		9 5 3 2
	")
}

ee,wfn = optimize('scf', return_wfn=True)
oeprop( wfn, 'DIPOLE', 'QUADRUPOLE', 'MULLIKEN_CHARGES')
f=open( 'psi4out.xyz', 'w' )
f.write( "16  " )
f.write( str(ee) + "\n" )
f.write( MOL.save_string_xyz() )
f.close()
--------------------------------------------------------------------------

    Molecular point group: c1
  Charge       = 0
  Multiplicity = 1
  Basis Set: CC-PVTZ
  Basis Set:
  @DF-RHF Final Energy:  -360.90698245247410
    Total Energy =                       -360.9069824524739261
    Molecular point group: c1
  Basis Set: CC-PVTZ
  Basis Set:
  Basis Set: CC-PVTZ
  Basis Set:
  @DF-RHF Final Energy:  -360.90743822418330
    Total Energy =                       -360.9074382241833518
  Basis Set: CC-PVTZ
  Basis Set:
  Basis Set: CC-PVTZ
  Basis Set:
  @DF-RHF Final Energy:  -360.90827363348768
    Total Energy =                       -360.9082736334875108
  Basis Set: CC-PVTZ
  Basis Set:
  Basis Set: CC-PVTZ
  Basis Set:
  @DF-RHF Final Energy:  -360.90808213612166
    Total Energy =                       -360.9080821361218909
  Basis Set: CC-PVTZ
  Basis Set:
  @DF-RHF Final Energy:  -360.90863039396015
    Total Energy =                       -360.9086303939601521
  @DF-RHF Final Energy:  -360.90856749328714
    Total Energy =                       -360.9085674932866823
  @DF-RHF Final Energy:  -360.90892384203710
    Total Energy =                       -360.9089238420373249
  @DF-RHF Final Energy:  -360.90909572142044
    Total Energy =                       -360.9090957214205559
  @DF-RHF Final Energy:  -360.90913391489971
    Total Energy =                       -360.9091339148997122
  @DF-RHF Final Energy:  -360.90914011944767
    Total Energy =                       -360.9091401194473292
  @DF-RHF Final Energy:  -360.90914434285759
    Total Energy =                       -360.9091443428572461
  @DF-RHF Final Energy:  -360.90915421067814
    Total Energy =                       -360.9091542106783663
  Basis Set: CC-PVTZ
  Basis Set:
  @DF-RHF Final Energy:  -360.90916113117953
    Total Energy =                       -360.9091611311795873
  Basis Set: CC-PVTZ
  Basis Set:
  Basis Set: CC-PVTZ
  Basis Set:
  @DF-RHF Final Energy:  -360.90916516201088
    Total Energy =                       -360.9091651620105949
  Basis Set: CC-PVTZ
  Basis Set:
  Basis Set: CC-PVTZ
  Basis Set:
  @DF-RHF Final Energy:  -360.90916641959836
    Total Energy =                       -360.9091664195983640
  Basis Set: CC-PVTZ
  Basis Set:
  Charge       = 0
  Multiplicity = 1
  Basis Set: CC-PVTZ
  Basis Set:

    Orbital Energies (a.u.)
    -----------------------

    Doubly Occupied:

       1A    -20.592342     2A    -20.588668     3A    -15.836725
       4A    -11.296983     5A    -11.248043     6A    -11.234692
       7A    -11.221642     8A     -1.636055     9A     -1.420226
      10A     -1.134725    11A     -1.054834    12A     -0.947985
      13A     -0.853582    14A     -0.816032    15A     -0.760396
      16A     -0.740390    17A     -0.729486    18A     -0.656401
      19A     -0.625903    20A     -0.603350    21A     -0.571763
      22A     -0.547144    23A     -0.507557    24A     -0.493513
      25A     -0.491064    26A     -0.486558    27A     -0.473277
      28A     -0.453701

  @DF-RHF Final Energy:  -360.90916643860896

   => Energetics <=

    Nuclear Repulsion Energy =            319.6568753826106786
    One-Electron Energy =               -1125.0860085899878413
    Two-Electron Energy =                 444.5199667687684837
    DFT Exchange-Correlation Energy =       0.0000000000000000
    Empirical Dispersion Energy =           0.0000000000000000
    PCM Polarization Energy =               0.0000000000000000
    EFP Energy =                            0.0000000000000000
    Total Energy =                       -360.9091664386086791
    Molecular point group: c1
  Basis Set: CC-PVTZ
  Basis Set:

  -Total Gradient:
     Atom            X                  Y                   Z
    ------   -----------------  -----------------  -----------------
       1       -0.000005855329    -0.000003361365    -0.000005679527
       2        0.000045848892    -0.000878333059    -0.000265249078
       3       -0.000081038429     0.000976907554     0.000271179384
       4        0.000002911215    -0.000006706268    -0.000006238441
       5        0.000130239599     0.001042281772     0.000515760557
       6        0.000001262481    -0.000000277088     0.000000401354
       7       -0.000000603983     0.000001246790     0.000002176681
       8       -0.000005009077    -0.000000078941    -0.000003376368
       9       -0.000089851084    -0.001133164760    -0.000510576877
      10        0.000000638045     0.000001574469    -0.000000753966
      11        0.000001820012    -0.000001255368     0.000002621884
      12        0.000000605663    -0.000000987608     0.000000250967
      13       -0.000001199533     0.000001616039    -0.000000634329
      14        0.000001399188    -0.000000141047    -0.000000522198
      15       -0.000000725872    -0.000000441625     0.000000091259
      16       -0.000000441790     0.000001120502     0.000000548698

  **** Optimization is complete! (in 16 steps) ****
    Final optimized geometry and variables:
    Molecular point group: c1

    Geometry (in Angstrom), charge = 0, multiplicity = 1:

    O           -1.454811562218    -1.237898288736    -0.534020711348
    N           -1.220244576255    -0.568962069283     0.416494229323
    C            0.147947978869    -0.677775390621     1.002609008662
    O           -1.984432428752     0.169510053497     0.939530376936
    C            1.218431975755    -0.306092468000    -0.012434194387
    H            0.237763420121    -1.711213042308     1.301433889446
    H            0.149166964011    -0.037770943570     1.867853581102
    C            1.222593147549     1.170461517283    -0.398314904743
    H            2.171858248100    -0.580869028475     0.427140057770
    H            1.093622168799    -0.925477897184    -0.891101633898
    C            2.321729581881     1.504137450585    -1.400695604465
    H            1.347230499117     1.776138793362     0.494421771684
    H            0.259408419815     1.439787391807    -0.819647284589
    H            3.302788724828     1.276254804444    -0.997582664847
    H            2.199589782828     0.937196286701    -2.316909266690
    H            2.305479686868     2.556162850720    -1.657589768109

  Mulliken Charges: (a.u.)
   Center  Symbol    Alpha    Beta     Spin     Total
       1     O     4.17431  4.17431  0.00000 -0.34862
       2     N     3.27876  3.27876  0.00000  0.44248
       3     C     3.05210  3.05210  0.00000 -0.10420
       4     O     4.16879  4.16879  0.00000 -0.33758
       5     C     3.10663  3.10663  0.00000 -0.21326
       6     H     0.42698  0.42698  0.00000  0.14605
       7     H     0.43095  0.43095  0.00000  0.13810
       8     C     3.08518  3.08518  0.00000 -0.17037
       9     H     0.44449  0.44449  0.00000  0.11101
      10     H     0.43600  0.43600  0.00000  0.12799
      11     C     3.14977  3.14977  0.00000 -0.29955
      12     H     0.45117  0.45117  0.00000  0.09767
      13     H     0.44408  0.44408  0.00000  0.11184
      14     H     0.45507  0.45507  0.00000  0.08986
      15     H     0.45111  0.45111  0.00000  0.09778
      16     H     0.44460  0.44460  0.00000  0.11080

   Total alpha = 28.00000, Total beta = 28.00000, Total charge = -0.00000

*** Psi4 exiting successfully. Buy a developer a beer!
