  ==> Input File <==

--------------------------------------------------------------------------
set {
	reference rhf
	basis 6-31G*
}

set_num_threads( 4 )
memory 2 gb

molecule MOL {
0 1

H	 -0.996781	 -0.602022	 -0.844341
N	 -0.712432	 0.000013	 -0.096310
C	 0.734192	 -0.000004	 0.040609
H	 -1.146463	 -0.346849	 0.736854
H	 1.139899	 -0.873598	 -0.456463
H	 1.139939	 0.873831	 -0.456100
H	 1.096456	 -0.000300	 1.069655

	symmetry c1
}
set optking {
	frozen_dihedral = ("
		1 2 3 7
	")
}

ee = optimize('scf')
oeprop('DIPOLE', 'QUADRUPOLE', 'MULLIKEN_CHARGES')
f=open( 'psi4out.xyz', 'w' )
f.write( "7  " )
f.write( str(ee) + "\n" )
f.write( MOL.save_string_xyz() )
f.close()
--------------------------------------------------------------------------

    Molecular point group: c1
  Charge       = 0
  Multiplicity = 1
  Basis Set: 6-31G*
  Basis Set:
  @DF-RHF Final Energy:   -95.20551949182254
    Total Energy =                        -95.2055194918224572
    Molecular point group: c1
  Basis Set: 6-31G*
  Basis Set:
  Basis Set: 6-31G*
  Basis Set:
  @DF-RHF Final Energy:   -95.20676621910951
    Total Energy =                        -95.2067662191095394
  Basis Set: 6-31G*
  Basis Set:
  Basis Set: 6-31G*
  Basis Set:
  @DF-RHF Final Energy:   -95.20697412632796
    Total Energy =                        -95.2069741263279496
  Basis Set: 6-31G*
  Basis Set:
  Charge       = 0
  Multiplicity = 1
  Basis Set: 6-31G*
  Basis Set:

    Orbital Energies (a.u.)
    -----------------------

    Doubly Occupied:

       1A    -15.533640     2A    -11.237665     3A     -1.168957
       4A     -0.897507     5A     -0.662834     6A     -0.601416
       7A     -0.558227     8A     -0.517265     9A     -0.382759

  @DF-RHF Final Energy:   -95.20697626386891

   => Energetics <=

    Nuclear Repulsion Energy =             42.2569766882628812
    One-Electron Energy =                -211.8073675726085412
    Two-Electron Energy =                  74.3434146204767217
    DFT Exchange-Correlation Energy =       0.0000000000000000
    Empirical Dispersion Energy =           0.0000000000000000
    PCM Polarization Energy =               0.0000000000000000
    EFP Energy =                            0.0000000000000000
    Total Energy =                        -95.2069762638689383
    Molecular point group: c1
  Basis Set: 6-31G*
  Basis Set:

  -Total Gradient:
     Atom            X                  Y                   Z
    ------   -----------------  -----------------  -----------------
       1       -0.000072373628    -0.002156300745     0.001867580723
       2        0.000267882920     0.002015519557    -0.002239177343
       3       -0.000174958197     0.002683015944     0.000359905921
       4        0.000015605990     0.000050073956    -0.000021545640
       5        0.000017758401     0.000009289573    -0.000009365673
       6       -0.000019482426     0.000016039844     0.000012720046
       7       -0.000034433061    -0.002617638129     0.000029881966

  **** Optimization is complete! (in 4 steps) ****
    Final optimized geometry and variables:
    Molecular point group: c1

    Geometry (in Angstrom), charge = 0, multiplicity = 1:

    H           -1.030586594914    -0.561830546080    -0.796423568340
    N           -0.719289895236     0.035437682317    -0.056754755284
    C            0.736507517249     0.025894546954     0.046497041450
    H           -1.133033776176    -0.322071289829     0.780765127098
    H            1.194444523228    -0.847551572113    -0.414286129803
    H            1.156805743107     0.908124270376    -0.423251286345
    H            1.036967021498     0.022623632420     1.088133999852

  Mulliken Charges: (a.u.)
   Center  Symbol    Alpha    Beta     Spin     Total
       1     H     0.33243  0.33243  0.00000  0.33514
       2     N     3.92090  3.92090  0.00000 -0.84180
       3     C     3.14708  3.14708  0.00000 -0.29416
       4     H     0.33268  0.33268  0.00000  0.33463
       5     H     0.42944  0.42944  0.00000  0.14111
       6     H     0.41582  0.41582  0.00000  0.16837
       7     H     0.42165  0.42165  0.00000  0.15671

   Total alpha =  9.00000, Total beta =  9.00000, Total charge =  0.00000
