  ==> Input File <==

--------------------------------------------------------------------------
set {
	reference rhf
	basis 6-31G*
}

set_num_threads( 4 )
memory 2 gb

molecule MOL {
0 1

H	 -1.428552	 -1.690074	 1.451382
N	 -0.640156	 -1.077097	 1.372830
C	 -0.563778	 -0.502042	 0.037919
H	 0.175080	 -1.627616	 1.565378
C	 0.575259	 0.508231	 -0.048326
H	 -1.504883	 0.002733	 -0.158851
H	 -0.441111	 -1.252395	 -0.747363
C	 1.954651	 -0.143624	 0.035137
H	 0.475158	 1.060484	 -0.977307
H	 0.469181	 1.234488	 0.755973
H	 2.103292	 -0.853109	 -0.774172
H	 2.742821	 0.599562	 -0.030094
H	 2.083613	 -0.679371	 0.971560

	symmetry c1
}
set optking {
	frozen_dihedral = ("
		6 3 5 9
	")
}

ee = optimize('scf')
oeprop('DIPOLE', 'QUADRUPOLE', 'MULLIKEN_CHARGES')
f=open( 'psi4out.xyz', 'w' )
f.write( "13  " )
f.write( str(ee) + "\n" )
f.write( MOL.save_string_xyz() )
f.close()
--------------------------------------------------------------------------

    Molecular point group: c1
  Charge       = 0
  Multiplicity = 1
  Basis Set: 6-31G*
  Basis Set:
  @DF-RHF Final Energy:  -173.28103390761976
    Total Energy =                       -173.2810339076197010
    Molecular point group: c1
  Basis Set: 6-31G*
  Basis Set:
  Basis Set: 6-31G*
  Basis Set:
  @DF-RHF Final Energy:  -173.28129121557518
    Total Energy =                       -173.2812912155751519
  Basis Set: 6-31G*
  Basis Set:
  Basis Set: 6-31G*
  Basis Set:
  @DF-RHF Final Energy:  -173.28137727775763
    Total Energy =                       -173.2813772777576560
  Basis Set: 6-31G*
  Basis Set:
  Basis Set: 6-31G*
  Basis Set:
  @DF-RHF Final Energy:  -173.28138075402231
    Total Energy =                       -173.2813807540223934
  Basis Set: 6-31G*
  Basis Set:
  Charge       = 0
  Multiplicity = 1
  Basis Set: 6-31G*
  Basis Set:

    Orbital Energies (a.u.)
    -----------------------

    Doubly Occupied:

       1A    -15.532903     2A    -11.240321     3A    -11.211264
       4A    -11.209025     5A     -1.177050     6A     -1.031601
       7A     -0.907251     8A     -0.789371     9A     -0.667856
      10A     -0.639614    11A     -0.570234    12A     -0.564771
      13A     -0.559935    14A     -0.481549    15A     -0.477968
      16A     -0.469126    17A     -0.381223

  @DF-RHF Final Energy:  -173.28138128594230

   => Energetics <=

    Nuclear Repulsion Energy =            133.5816226078758859
    One-Electron Energy =                -497.9038835150523710
    Two-Electron Energy =                 191.0408796212341827
    DFT Exchange-Correlation Energy =       0.0000000000000000
    Empirical Dispersion Energy =           0.0000000000000000
    PCM Polarization Energy =               0.0000000000000000
    EFP Energy =                            0.0000000000000000
    Total Energy =                       -173.2813812859423024
    Molecular point group: c1
  Basis Set: 6-31G*
  Basis Set:

  -Total Gradient:
     Atom            X                  Y                   Z
    ------   -----------------  -----------------  -----------------
       1       -0.000003195636    -0.000029454945     0.000042203178
       2       -0.000054438457    -0.000003105008    -0.000013708704
       3       -0.000302680539     0.000564014221     0.001787524027
       4        0.000017644038    -0.000001294333    -0.000007240224
       5        0.000980027171    -0.001208450254    -0.001099674681
       6        0.000124489399    -0.000276730096    -0.001324502868
       7       -0.000017557184    -0.000010133172    -0.000009879586
       8       -0.000005161643     0.000020463958    -0.000021007446
       9       -0.000732791401     0.000932522278     0.000630666285
      10       -0.000001034658     0.000015974471     0.000005507399
      11        0.000006142757    -0.000001890593     0.000007202121
      12        0.000005036422     0.000007860036     0.000002513325
      13       -0.000016480267    -0.000009776563     0.000000397176

  **** Optimization is complete! (in 5 steps) ****
    Final optimized geometry and variables:
    Molecular point group: c1

    Geometry (in Angstrom), charge = 0, multiplicity = 1:

    H           -1.813116087257    -1.306935490246     1.092892023013
    N           -0.979946920002    -0.757376967498     1.008324641567
    C           -0.891472773599    -0.165267269331    -0.319500404829
    H           -0.211374228328    -1.377482378530     1.175119803265
    C            0.251336414824     0.843305368674    -0.411706183228
    H           -1.827212489563     0.347424636368    -0.516665594823
    H           -0.776408318253    -0.909664207450    -1.112236660962
    C            1.643508673476     0.215430395515    -0.338495658301
    H            0.151211195256     1.394463532733    -1.343921952175
    H            0.133634008615     1.563660063308     0.392214662396
    H            1.784080588420    -0.524440338462    -1.122439106015
    H            2.415370898791     0.969549752954    -0.455225610233
    H            1.812557926088    -0.271691001647     0.617008071362

  Mulliken Charges: (a.u.)
   Center  Symbol    Alpha    Beta     Spin     Total
       1     H     0.33208  0.33208  0.00000  0.33583
       2     N     3.92208  3.92208  0.00000 -0.84416
       3     C     3.06451  3.06451  0.00000 -0.12902
       4     H     0.33289  0.33289  0.00000  0.33421
       5     C     3.14975  3.14975  0.00000 -0.29950
       6     H     0.41922  0.41922  0.00000  0.16156
       7     H     0.43529  0.43529  0.00000  0.12943
       8     C     3.24569  3.24569  0.00000 -0.49138
       9     H     0.42384  0.42384  0.00000  0.15231
      10     H     0.41337  0.41337  0.00000  0.17326
      11     H     0.42347  0.42347  0.00000  0.15305
      12     H     0.41715  0.41715  0.00000  0.16569
      13     H     0.42064  0.42064  0.00000  0.15871

   Total alpha = 17.00000, Total beta = 17.00000, Total charge = -0.00000
