  ==> Input File <==

--------------------------------------------------------------------------
set {
	reference rhf
	basis 6-31G*
}

set_num_threads( 4 )
memory 2 gb

molecule MOL {
0 1

H	 -3.650283	 0.221984	 0.000000
C	 -2.577024	 0.154109	 0.000000
C	 -1.960329	 -1.089307	 0.000000
C	 -1.811733	 1.307557	 0.000000
H	 -2.554473	 -1.985285	 0.000000
C	 -0.581547	 -1.175855	 0.000000
H	 -2.287118	 2.271701	 0.000000
C	 -0.428719	 1.219221	 0.000000
H	 -0.090826	 -2.129898	 0.000000
C	 0.198341	 -0.021559	 0.000000
H	 0.149947	 2.124040	 0.000000
C	 1.691355	 -0.173192	 0.000000
C	 2.400851	 -0.476221	 -1.303200
O	 2.313887	 -0.056697	 1.014030
H	 2.048539	 -1.410644	 -1.728065
H	 3.461036	 -0.549272	 -1.107849
H	 2.223034	 0.307472	 -2.032574

	symmetry c1
}
set optking {
	frozen_dihedral = ("
		13 12 10 8
	")
}

ee = optimize('scf')
oeprop('DIPOLE', 'QUADRUPOLE', 'MULLIKEN_CHARGES')
f=open( 'psi4out.xyz', 'w' )
f.write( "17  " )
f.write( str(ee) + "\n" )
f.write( MOL.save_string_xyz() )
f.close()
--------------------------------------------------------------------------

    Molecular point group: c1
  Charge       = 0
  Multiplicity = 1
  Basis Set: 6-31G*
  Basis Set:
  @DF-RHF Final Energy:  -382.46541223657874
    Total Energy =                       -382.4654122365785724
    Molecular point group: c1
  Basis Set: 6-31G*
  Basis Set:
  Basis Set: 6-31G*
  Basis Set:
  @DF-RHF Final Energy:  -382.46613547359198
    Total Energy =                       -382.4661354735922032
  Basis Set: 6-31G*
  Basis Set:
  Basis Set: 6-31G*
  Basis Set:
  @DF-RHF Final Energy:  -382.46629180641031
    Total Energy =                       -382.4662918064103678
  Basis Set: 6-31G*
  Basis Set:
  Basis Set: 6-31G*
  Basis Set:
  @DF-RHF Final Energy:  -382.46638802035676
    Total Energy =                       -382.4663880203565895
  Basis Set: 6-31G*
  Basis Set:
  Basis Set: 6-31G*
  Basis Set:
  @DF-RHF Final Energy:  -382.46639886015140
    Total Energy =                       -382.4663988601514575
  Basis Set: 6-31G*
  Basis Set:
  Basis Set: 6-31G*
  Basis Set:
  @DF-RHF Final Energy:  -382.46640247527864
    Total Energy =                       -382.4664024752785281
  Basis Set: 6-31G*
  Basis Set:
  Basis Set: 6-31G*
  Basis Set:
  @DF-RHF Final Energy:  -382.46640463926394
    Total Energy =                       -382.4664046392639420
  Basis Set: 6-31G*
  Basis Set:
  Charge       = 0
  Multiplicity = 1
  Basis Set: 6-31G*
  Basis Set:

    Orbital Energies (a.u.)
    -----------------------

    Doubly Occupied:

       1A    -20.557841     2A    -11.334285     3A    -11.247727
       4A    -11.244145     5A    -11.242953     6A    -11.241408
       7A    -11.240754     8A    -11.239230     9A    -11.231459
      10A     -1.402599    11A     -1.165919    12A     -1.050681
      13A     -1.025763    14A     -0.998401    15A     -0.858981
      16A     -0.837621    17A     -0.761762    18A     -0.702358
      19A     -0.663459    20A     -0.642531    21A     -0.627467
      22A     -0.620250    23A     -0.599050    24A     -0.589944
      25A     -0.562324    26A     -0.522030    27A     -0.512144
      28A     -0.506287    29A     -0.491836    30A     -0.409519
      31A     -0.343885    32A     -0.341427

  @DF-RHF Final Energy:  -382.46640518193669

   => Energetics <=

    Nuclear Repulsion Energy =            402.5896334691407219
    One-Electron Energy =               -1316.4799973361518823
    Two-Electron Energy =                 531.4239586850740125
    DFT Exchange-Correlation Energy =       0.0000000000000000
    Empirical Dispersion Energy =           0.0000000000000000
    PCM Polarization Energy =               0.0000000000000000
    EFP Energy =                            0.0000000000000000
    Total Energy =                       -382.4664051819371480
    Molecular point group: c1
  Basis Set: 6-31G*
  Basis Set:

  -Total Gradient:
     Atom            X                  Y                   Z
    ------   -----------------  -----------------  -----------------
       1       -0.000000330961     0.000002761351     0.000003681370
       2       -0.000010128124    -0.000097399346    -0.000011671687
       3       -0.000072823828     0.000050040548     0.000007869128
       4        0.000086793840     0.000036173537    -0.000001945018
       5        0.000002898765    -0.000002192438     0.000002171649
       6        0.000048979125     0.000040509630     0.000024800988
       7       -0.000004370337    -0.000004989551     0.000001883093
       8       -0.000065591559     0.000029774073    -0.002256882607
       9       -0.000003964020    -0.000002692652     0.000005260048
      10        0.000092374325     0.000832408556     0.003057809463
      11        0.000009499950    -0.000003876605     0.000006940181
      12       -0.000261734110    -0.002871675919    -0.000475192662
      13        0.000142277041     0.002022224257    -0.000411272659
      14        0.000035925206    -0.000005670264     0.000033268172
      15        0.000002012551    -0.000002642742    -0.000000421148
      16       -0.000000140076    -0.000008737890     0.000014009523
      17       -0.000001677792    -0.000014014546    -0.000000307833

  **** Optimization is complete! (in 8 steps) ****
    Final optimized geometry and variables:
    Molecular point group: c1

    Geometry (in Angstrom), charge = 0, multiplicity = 1:

    H           -3.641560267989     0.273118813144    -0.009074188617
    C           -2.569656197221     0.190981953529     0.007740541331
    C           -1.969092797633    -1.057183381299     0.024526864347
    C           -1.785474849869     1.333496192471     0.012823439909
    H           -2.573192457182    -1.946645233431     0.023672926248
    C           -0.587801023396    -1.163224293241     0.039730220211
    H           -2.247350445603     2.304360605755    -0.000140759945
    C           -0.404767462350     1.228950525484     0.039574678006
    H           -0.127701451807    -2.136158277487     0.049611096651
    C            0.199980629908    -0.020600404823     0.058520473728
    H            0.201185150268     2.117570491833     0.057090198859
    C            1.705464936173    -0.121362262237     0.063827372238
    C            2.367342481906    -0.419310840382    -1.262381881394
    O            2.336120559035     0.074568467248     1.055797264935
    H            1.979758446528    -1.339704181718    -1.688064229590
    H            3.438019331174    -0.495766069273    -1.130481299098
    H            2.139350645763     0.376165965327    -1.965851369250

  Mulliken Charges: (a.u.)
   Center  Symbol    Alpha    Beta     Spin     Total
       1     H     0.39673  0.39673  0.00000  0.20654
       2     C     3.09934  3.09934  0.00000 -0.19868
       3     C     3.09788  3.09788  0.00000 -0.19575
       4     C     3.09792  3.09792  0.00000 -0.19583
       5     H     0.39625  0.39625  0.00000  0.20749
       6     C     3.10519  3.10519  0.00000 -0.21038
       7     H     0.39602  0.39602  0.00000  0.20795
       8     C     3.10311  3.10311  0.00000 -0.20623
       9     H     0.39500  0.39500  0.00000  0.21000
      10     C     3.02804  3.02804  0.00000 -0.05608
      11     H     0.39155  0.39155  0.00000  0.21690
      12     C     2.75198  2.75198  0.00000  0.49605
      13     C     3.28639  3.28639  0.00000 -0.57278
      14     O     4.24676  4.24676  0.00000 -0.49353
      15     H     0.40652  0.40652  0.00000  0.18696
      16     H     0.39756  0.39756  0.00000  0.20489
      17     H     0.40377  0.40377  0.00000  0.19247

   Total alpha = 32.00000, Total beta = 32.00000, Total charge =  0.00000
