  ==> Input File <==

--------------------------------------------------------------------------
set {
	reference rhf
	basis cc-pvtz
}

set_num_threads( 4 )
memory 2 gb

molecule MOL {
0 1

H	 0.893146	 1.454680	 -0.560638
O	 0.057669	 1.301365	 -0.158528
C	 0.004145	 -0.005141	 0.363049
C	 1.199168	 -0.827145	 -0.096690
C	 -1.316386	 -0.602081	 -0.083515
H	 0.012026	 0.043363	 1.450619
H	 1.216685	 -0.896776	 -1.178167
H	 2.129940	 -0.372354	 0.228035
H	 1.160783	 -1.829622	 0.314294
H	 -1.357882	 -0.655920	 -1.165207
H	 -2.140147	 0.011735	 0.257253
H	 -1.440790	 -1.601175	 0.317669

	symmetry c1
}
set optking {
	frozen_dihedral = ("
		1 2 3 4
	")
}

ee = optimize('scf')
oeprop('DIPOLE', 'QUADRUPOLE', 'MULLIKEN_CHARGES')
f=open( 'psi4out.xyz', 'w' )
f.write( "12  " )
f.write( str(ee) + "\n" )
f.write( MOL.save_string_xyz() )
f.close()
--------------------------------------------------------------------------

    Molecular point group: c1
  Charge       = 0
  Multiplicity = 1
  Basis Set: CC-PVTZ
  Basis Set:
  @DF-RHF Final Energy:  -193.19383024825493
    Total Energy =                       -193.1938302482549261
    Molecular point group: c1
  Basis Set: CC-PVTZ
  Basis Set:
  Basis Set: CC-PVTZ
  Basis Set:
  @DF-RHF Final Energy:  -193.19404240762361
    Total Energy =                       -193.1940424076237832
  Basis Set: CC-PVTZ
  Basis Set:
  Basis Set: CC-PVTZ
  Basis Set:
  @DF-RHF Final Energy:  -193.19414793417550
    Total Energy =                       -193.1941479341755041
  Basis Set: CC-PVTZ
  Basis Set:
  Charge       = 0
  Multiplicity = 1
  Basis Set: CC-PVTZ
  Basis Set:

    Orbital Energies (a.u.)
    -----------------------

    Doubly Occupied:

       1A    -20.542280     2A    -11.274010     3A    -11.217726
       4A    -11.204901     5A     -1.362940     6A     -1.044243
       7A     -0.943997     8A     -0.811645     9A     -0.678256
      10A     -0.646536    11A     -0.608720    12A     -0.551161
      13A     -0.544340    14A     -0.521418    15A     -0.515455
      16A     -0.469286    17A     -0.430777

  @DF-RHF Final Energy:  -193.19414844015972

   => Energetics <=

    Nuclear Repulsion Energy =            135.6912977600637760
    One-Electron Energy =                -531.0355078990862694
    Two-Electron Energy =                 202.1500616988627428
    DFT Exchange-Correlation Energy =       0.0000000000000000
    Empirical Dispersion Energy =           0.0000000000000000
    PCM Polarization Energy =               0.0000000000000000
    EFP Energy =                            0.0000000000000000
    Total Energy =                       -193.1941484401597506
    Molecular point group: c1
  Basis Set: CC-PVTZ
  Basis Set:

  -Total Gradient:
     Atom            X                  Y                   Z
    ------   -----------------  -----------------  -----------------
       1       -0.000426279977    -0.000377143877    -0.001104650362
       2        0.000712714014     0.000569206553     0.001592606580
       3       -0.000669912432    -0.000377714878    -0.001147495997
       4        0.000398387917     0.000228173251     0.000652909871
       5       -0.000042382770    -0.000027772291     0.000000928230
       6        0.000026915537    -0.000038300551    -0.000014475405
       7       -0.000018225581     0.000011819439     0.000025813582
       8        0.000029456843     0.000000342153    -0.000006760092
       9       -0.000010500774     0.000008444688     0.000003252584
      10        0.000003318771     0.000004182716     0.000002301098
      11       -0.000002968840    -0.000003007689    -0.000002001210
      12       -0.000000522708     0.000001770485    -0.000002428880

  **** Optimization is complete! (in 4 steps) ****
    Final optimized geometry and variables:
    Molecular point group: c1

    Geometry (in Angstrom), charge = 0, multiplicity = 1:

    H            0.901354838971     1.489011054234    -0.517629895926
    O            0.064223868621     1.317582904892    -0.130016469052
    C            0.001059133559    -0.003178740180     0.360773512418
    C            1.197108808262    -0.823548779848    -0.094731510356
    C           -1.322052471973    -0.608198549508    -0.072601193146
    H            0.017933882848     0.047299038015     1.446557523648
    H            1.221925132622    -0.898385531392    -1.177420512887
    H            2.125079873451    -0.371109268408     0.240353513860
    H            1.152959069910    -1.826591444682     0.311674295780
    H           -1.362573752828    -0.701324864238    -1.152075431254
    H           -2.141125137201     0.025717115805     0.242277526428
    H           -1.459761431812    -1.590194062595     0.366452122650

  Mulliken Charges: (a.u.)
   Center  Symbol    Alpha    Beta     Spin     Total
       1     H     0.39174  0.39174  0.00000  0.21652
       2     O     4.21032  4.21032  0.00000 -0.42063
       3     C     2.91925  2.91925  0.00000  0.16149
       4     C     3.15870  3.15870  0.00000 -0.31740
       5     C     3.13723  3.13723  0.00000 -0.27447
       6     H     0.46386  0.46386  0.00000  0.07228
       7     H     0.45229  0.45229  0.00000  0.09543
       8     H     0.45118  0.45118  0.00000  0.09764
       9     H     0.45137  0.45137  0.00000  0.09727
      10     H     0.45767  0.45767  0.00000  0.08466
      11     H     0.44639  0.44639  0.00000  0.10722
      12     H     0.46001  0.46001  0.00000  0.07998

   Total alpha = 17.00000, Total beta = 17.00000, Total charge = -0.00000
