                              Psi4 1.0.54 Driver

  ==> Input File <==

--------------------------------------------------------------------------
set {
	reference rhf
	basis cc-pvtz
}

set_num_threads( 4 )
memory 2 gb

molecule MOL {
0 1

H	 -2.215496	 -1.120587	 -0.337497
O	 -2.346257	 -0.289210	 0.080372
C	 -1.183935	 0.486039	 -0.009831
C	 0.062853	 -0.375310	 0.027457
H	 -1.178881	 1.094526	 -0.908634
H	 -1.184406	 1.155156	 0.838676
O	 1.172093	 0.457955	 -0.054438
H	 0.052476	 -1.081302	 -0.804627
H	 0.076323	 -0.955658	 0.947560
C	 2.395478	 -0.199028	 -0.000366
H	 2.505946	 -0.901710	 -0.823354
H	 3.174616	 0.545641	 -0.071768
H	 2.513730	 -0.742241	 0.934223

	symmetry c1
}
set optking {
	frozen_dihedral = ("
		1 2 3 5
	")
}

ee,wfn = optimize('scf', return_wfn=True)
oeprop( wfn, 'DIPOLE', 'QUADRUPOLE', 'MULLIKEN_CHARGES')
f=open( 'psi4out.xyz', 'w' )
f.write( "13  " )
f.write( str(ee) + "\n" )
f.write( MOL.save_string_xyz() )
f.close()
--------------------------------------------------------------------------

    Molecular point group: c1
  Charge       = 0
  Multiplicity = 1
  Basis Set: CC-PVTZ
  Basis Set:
  @DF-RHF Final Energy:  -268.06031813800155
    Total Energy =                       -268.0603181380015485
    Molecular point group: c1
  Basis Set: CC-PVTZ
  Basis Set:
  Basis Set: CC-PVTZ
  Basis Set:
  @DF-RHF Final Energy:  -268.06038420260120
    Total Energy =                       -268.0603842026009715
  Basis Set: CC-PVTZ
  Basis Set:
  Charge       = 0
  Multiplicity = 1
  Basis Set: CC-PVTZ
  Basis Set:

    Orbital Energies (a.u.)
    -----------------------

    Doubly Occupied:

       1A    -20.560147     2A    -20.551595     3A    -11.276203
       4A    -11.270806     5A    -11.267040     6A     -1.396283
       7A     -1.368262     8A     -1.022127     9A     -0.915991
      10A     -0.850493    11A     -0.702873    12A     -0.683129
      13A     -0.671032    14A     -0.631666    15A     -0.603753
      16A     -0.580890    17A     -0.546287    18A     -0.498687
      19A     -0.475653    20A     -0.443266    21A     -0.428807

  @DF-RHF Final Energy:  -268.06039707476623

   => Energetics <=

    Nuclear Repulsion Energy =            190.6651188310937641
    One-Electron Energy =                -743.9610514066023370
    Two-Electron Energy =                 285.2355355007423441
    DFT Exchange-Correlation Energy =       0.0000000000000000
    Empirical Dispersion Energy =           0.0000000000000000
    PCM Polarization Energy =               0.0000000000000000
    EFP Energy =                            0.0000000000000000
    Total Energy =                       -268.0603970747662288
    Molecular point group: c1
  Basis Set: CC-PVTZ
  Basis Set:

  -Total Gradient:
     Atom            X                  Y                   Z
    ------   -----------------  -----------------  -----------------
       1        0.000871763795    -0.001044930224     0.002338883329
       2       -0.001372863001     0.001824709785    -0.002552539377
       3        0.001724510044    -0.002411725898    -0.001021252801
       4        0.000033237405    -0.000204747662    -0.000025645235
       5       -0.001118218080     0.001708495151     0.001206612724
       6       -0.000072047207    -0.000028543894     0.000000407203
       7        0.000058737235     0.000073075875     0.000042532780
       8       -0.000049159954     0.000024795509    -0.000041022185
       9        0.000066837279     0.000074543419     0.000028775386
      10       -0.000151062327    -0.000010373427     0.000034031823
      11        0.000003037162    -0.000008297885    -0.000012816566
      12       -0.000016264312     0.000012734117    -0.000003997257
      13        0.000021491961    -0.000009734867     0.000006030176

  **** Optimization is complete! (in 3 steps) ****
    Final optimized geometry and variables:
    Molecular point group: c1

    Geometry (in Angstrom), charge = 0, multiplicity = 1:

    H           -2.237859209358    -1.122713599730    -0.349994971183
    O           -2.355554667106    -0.291215768886     0.071691008152
    C           -1.188191223127     0.478775603073    -0.014972230336
    C            0.065084062513    -0.370669130968     0.029260332055
    H           -1.192770939097     1.088207180587    -0.912806794764
    H           -1.190105218879     1.153738993995     0.829944527765
    O            1.166843489310     0.468276591009    -0.059710917128
    H            0.060532053486    -1.082357475888    -0.799570760201
    H            0.086563335039    -0.944121129577     0.954677864074
    C            2.394989366093    -0.180928495349    -0.008074268108
    H            2.506804965260    -0.885208504885    -0.829384018425
    H            3.168013024249     0.569216941544    -0.085069385122
    H            2.520447480888    -0.719766787852     0.928083747298

  Mulliken Charges: (a.u.)
   Center  Symbol    Alpha    Beta     Spin     Total
       1     H     0.39427  0.39427  0.00000  0.21147
       2     O     4.20256  4.20256  0.00000 -0.40512
       3     C     2.95755  2.95755  0.00000  0.08490
       4     C     2.97415  2.97415  0.00000  0.05170
       5     H     0.46948  0.46948  0.00000  0.06103
       6     H     0.45910  0.45910  0.00000  0.08180
       7     O     4.17251  4.17251  0.00000 -0.34502
       8     H     0.48285  0.48285  0.00000  0.03429
       9     H     0.46896  0.46896  0.00000  0.06207
      10     C     3.03292  3.03292  0.00000 -0.06583
      11     H     0.47087  0.47087  0.00000  0.05827
      12     H     0.44495  0.44495  0.00000  0.11009
      13     H     0.46983  0.46983  0.00000  0.06033

   Total alpha = 21.00000, Total beta = 21.00000, Total charge = -0.00000

*** Psi4 exiting successfully. Buy a developer a beer!
