  ==> Input File <==

--------------------------------------------------------------------------
set {
	reference rhf
	basis 6-31G*
}

set_num_threads( 4 )
memory 2 gb

molecule MOL {
0 1

H	 -2.421521	 1.263602	 2.183376
C	 -2.069970	 0.240925	 2.062203
O	 -0.798221	 0.203235	 1.499556
H	 -2.009924	 -0.226204	 3.035510
H	 -2.792893	 -0.302773	 1.455406
C	 -0.719715	 0.768384	 0.229244
C	 0.719720	 0.768376	 -0.229267
H	 -1.321027	 0.195073	 -0.477462
H	 -1.093752	 1.790172	 0.236370
O	 1.392611	 -0.295398	 0.366430
H	 0.750534	 0.687200	 -1.313918
H	 1.185043	 1.714359	 0.050526
C	 2.706965	 -0.449871	 -0.062409
H	 2.756559	 -0.644779	 -1.131878
H	 3.305899	 0.433456	 0.155466
H	 3.125548	 -1.294566	 0.467107

	symmetry c1
}
set optking {
	frozen_dihedral = ("
		3 6 7 11
	")
}

ee = optimize('scf')
oeprop('DIPOLE', 'QUADRUPOLE', 'MULLIKEN_CHARGES')
f=open( 'psi4out.xyz', 'w' )
f.write( "16  " )
f.write( str(ee) + "\n" )
f.write( MOL.save_string_xyz() )
f.close()
--------------------------------------------------------------------------

    Molecular point group: c1
  Charge       = 0
  Multiplicity = 1
  Basis Set: 6-31G*
  Basis Set:
  @DF-RHF Final Energy:  -306.96807257711851
    Total Energy =                       -306.9680725771187326
    Molecular point group: c1
  Basis Set: 6-31G*
  Basis Set:
  Basis Set: 6-31G*
  Basis Set:
  @DF-RHF Final Energy:  -306.96887728460740
    Total Energy =                       -306.9688772846072879
  Basis Set: 6-31G*
  Basis Set:
  Basis Set: 6-31G*
  Basis Set:
  @DF-RHF Final Energy:  -306.96941261583549
    Total Energy =                       -306.9694126158354948
  Basis Set: 6-31G*
  Basis Set:
  Basis Set: 6-31G*
  Basis Set:
  @DF-RHF Final Energy:  -306.96942132466637
    Total Energy =                       -306.9694213246662002
  Basis Set: 6-31G*
  Basis Set:
  Charge       = 0
  Multiplicity = 1
  Basis Set: 6-31G*
  Basis Set:

    Orbital Energies (a.u.)
    -----------------------

    Doubly Occupied:

       1A    -20.551740     2A    -20.550385     3A    -11.271268
       4A    -11.270664     5A    -11.262529     6A    -11.261990
       7A     -1.388785     8A     -1.367636     9A     -1.026598
      10A     -0.933415    11A     -0.895923    12A     -0.819582
      13A     -0.688009    14A     -0.674279    15A     -0.657399
      16A     -0.642602    17A     -0.618379    18A     -0.591223
      19A     -0.570011    20A     -0.522193    21A     -0.507441
      22A     -0.469308    23A     -0.466758    24A     -0.418411
      25A     -0.404552

  @DF-RHF Final Energy:  -306.96942191279146

   => Energetics <=

    Nuclear Repulsion Energy =            260.0632691211563383
    One-Electron Energy =                -934.4032277945666465
    Two-Electron Energy =                 367.3705367606187338
    DFT Exchange-Correlation Energy =       0.0000000000000000
    Empirical Dispersion Energy =           0.0000000000000000
    PCM Polarization Energy =               0.0000000000000000
    EFP Energy =                            0.0000000000000000
    Total Energy =                       -306.9694219127916313
    Molecular point group: c1
  Basis Set: 6-31G*
  Basis Set:

  -Total Gradient:
     Atom            X                  Y                   Z
    ------   -----------------  -----------------  -----------------
       1        0.000005269191     0.000001388101     0.000001799329
       2        0.000000292263     0.000000446006    -0.000020942486
       3       -0.001000452151    -0.006633611610    -0.002693316083
       4        0.000007617950    -0.000000235078     0.000000139364
       5       -0.000005148255    -0.000004262505     0.000000384617
       6        0.001360079553     0.006793290209     0.003767914639
       7       -0.000517007095     0.008814093360    -0.002009680964
       8        0.000006985816     0.000000169157     0.000001696731
       9        0.000011102944    -0.000010136783     0.000026962749
      10       -0.000066319656     0.000055419089    -0.000045052513
      11        0.000211593658    -0.009034154441     0.000995254455
      12       -0.000022674363     0.000021807833    -0.000020015115
      13        0.000034008840    -0.000010146325    -0.000019706456
      14       -0.000002858043    -0.000001773280     0.000006062064
      15       -0.000008774119     0.000004617615     0.000005810105
      16       -0.000013716529     0.000003088654     0.000002689564

  **** Optimization is complete! (in 5 steps) ****
    Final optimized geometry and variables:
    Molecular point group: c1

    Geometry (in Angstrom), charge = 0, multiplicity = 1:

    H           -2.732255203355     1.045997094500     1.470398371444
    C           -2.312259630693     0.043302379144     1.403710899726
    O           -1.015169038501     0.061543751944     0.903070804618
    H           -2.271602552541    -0.385490570463     2.395364769621
    H           -2.970047961141    -0.564168506135     0.784053765174
    C           -0.919832116172     0.574475304847    -0.383431290350
    C            0.528568383639     0.554230378150    -0.871361815198
    H           -1.531315419562    -0.028202451645    -1.054594481289
    H           -1.299738503617     1.595165240419    -0.431870820631
    O            1.195830171987    -0.540542003003    -0.327616594936
    H            0.520086006281     0.434431025243    -1.954528043588
    H            1.043343971970     1.477380295230    -0.613717792315
    C            2.514945277679    -0.657450613260    -0.750102530662
    H            2.581710168214    -0.785548005731    -1.829967917922
    H            3.103303910106     0.215426464725    -0.471461813285
    H            2.934659250776    -1.529688133127    -0.268348277131

  Mulliken Charges: (a.u.)
   Center  Symbol    Alpha    Beta     Spin     Total
       1     H     0.43197  0.43197  0.00000  0.13607
       2     C     3.08012  3.08012  0.00000 -0.16024
       3     O     4.29220  4.29220  0.00000 -0.58439
       4     H     0.41034  0.41034  0.00000  0.17932
       5     H     0.43027  0.43027  0.00000  0.13945
       6     C     2.99350  2.99350  0.00000  0.01300
       7     C     2.99493  2.99493  0.00000  0.01014
       8     H     0.42944  0.42944  0.00000  0.14111
       9     H     0.43141  0.43141  0.00000  0.13717
      10     O     4.29379  4.29379  0.00000 -0.58758
      11     H     0.43093  0.43093  0.00000  0.13815
      12     H     0.42752  0.42752  0.00000  0.14496
      13     C     3.07970  3.07970  0.00000 -0.15940
      14     H     0.43274  0.43274  0.00000  0.13453
      15     H     0.43057  0.43057  0.00000  0.13885
      16     H     0.41057  0.41057  0.00000  0.17886

   Total alpha = 25.00000, Total beta = 25.00000, Total charge = -0.00000
