                              Psi4 1.0.54 Driver

  ==> Input File <==

--------------------------------------------------------------------------
set {
	reference rhf
	basis cc-pvtz
}

set_num_threads( 4 )
memory 2 gb

molecule MOL {
0 1

H	 -2.823222	 1.440929	 1.866634
O	 -2.134898	 0.865248	 1.589151
C	 -2.302264	 0.528872	 0.237390
C	 -1.175688	 -0.398187	 -0.171891
H	 -3.260809	 0.037772	 0.083166
H	 -2.289294	 1.423368	 -0.381914
C	 0.196029	 0.106276	 0.266738
H	 -1.201873	 -0.515469	 -1.250677
H	 -1.365975	 -1.378728	 0.252664
C	 1.330220	 -0.826136	 -0.155230
H	 0.359542	 1.097229	 -0.145561
H	 0.212134	 0.218135	 1.348778
C	 2.719700	 -0.407669	 0.328325
H	 1.339388	 -0.911200	 -1.239363
H	 1.119001	 -1.821953	 0.224128
C	 3.241564	 0.893452	 -0.276737
H	 3.418299	 -1.204729	 0.093035
H	 2.711776	 -0.323368	 1.411960
H	 3.254204	 0.841071	 -1.360784
H	 2.634460	 1.745075	 0.005842
H	 4.254264	 1.092401	 0.054971

	symmetry c1
}
set optking {
	frozen_dihedral = ("
		2 3 4 8
	")
}

ee,wfn = optimize('scf', return_wfn=True)
oeprop( wfn, 'DIPOLE', 'QUADRUPOLE', 'MULLIKEN_CHARGES')
f=open( 'psi4out.xyz', 'w' )
f.write( "21  " )
f.write( str(ee) + "\n" )
f.write( MOL.save_string_xyz() )
f.close()
--------------------------------------------------------------------------

    Molecular point group: c1
  Charge       = 0
  Multiplicity = 1
  Basis Set: CC-PVTZ
  Basis Set:
  @DF-RHF Final Energy:  -310.33141208597959
    Total Energy =                       -310.3314120859794230
    Molecular point group: c1
  Basis Set: CC-PVTZ
  Basis Set:
  Basis Set: CC-PVTZ
  Basis Set:
  @DF-RHF Final Energy:  -310.33177396906774
    Total Energy =                       -310.3317739690675694
  Basis Set: CC-PVTZ
  Basis Set:
  Basis Set: CC-PVTZ
  Basis Set:
  @DF-RHF Final Energy:  -310.33190114699971
    Total Energy =                       -310.3319011469998259
  Basis Set: CC-PVTZ
  Basis Set:
  Basis Set: CC-PVTZ
  Basis Set:
  @DF-RHF Final Energy:  -310.33190445201052
    Total Energy =                       -310.3319044520102352
  Basis Set: CC-PVTZ
  Basis Set:
  Charge       = 0
  Multiplicity = 1
  Basis Set: CC-PVTZ
  Basis Set:

    Orbital Energies (a.u.)
    -----------------------

    Doubly Occupied:

       1A    -20.546245     2A    -11.266143     3A    -11.210762
       4A    -11.208477     5A    -11.206243     6A    -11.202828
       7A    -11.201994     8A     -1.364418     9A     -1.081583
      10A     -1.030578    11A     -0.953921    12A     -0.875863
      13A     -0.801356    14A     -0.772940    15A     -0.705375
      16A     -0.651068    17A     -0.619805    18A     -0.604815
      19A     -0.586003    20A     -0.568642    21A     -0.532649
      22A     -0.526939    23A     -0.501879    24A     -0.491597
      25A     -0.478654    26A     -0.455178    27A     -0.453641
      28A     -0.439407    29A     -0.431008

  @DF-RHF Final Energy:  -310.33190448614283

   => Energetics <=

    Nuclear Repulsion Energy =            317.9718281827541091
    One-Electron Energy =               -1051.0674412629145991
    Two-Electron Energy =                 422.7637085940175439
    DFT Exchange-Correlation Energy =       0.0000000000000000
    Empirical Dispersion Energy =           0.0000000000000000
    PCM Polarization Energy =               0.0000000000000000
    EFP Energy =                            0.0000000000000000
    Total Energy =                       -310.3319044861430029
    Molecular point group: c1
  Basis Set: CC-PVTZ
  Basis Set:

  -Total Gradient:
     Atom            X                  Y                   Z
    ------   -----------------  -----------------  -----------------
       1       -0.000006559353     0.000026349188     0.000032523298
       2        0.001636833745     0.002385305571    -0.000879312019
       3       -0.001628401062    -0.002521822729     0.000983355720
       4       -0.002337890169    -0.002987690986     0.000203834958
       5       -0.000006905887     0.000014885862     0.000052219632
       6       -0.000020256969     0.000016366372     0.000019503486
       7       -0.000050198415    -0.000009690744    -0.000074981540
       8        0.002376316415     0.003041054279    -0.000375191067
       9       -0.000001285548     0.000004073785    -0.000012511439
      10        0.000015378619     0.000029169332    -0.000019607508
      11        0.000001078269    -0.000018121227     0.000001527525
      12       -0.000008865333     0.000006968465     0.000044564963
      13       -0.000001296572    -0.000003913819     0.000033468196
      14       -0.000005950496     0.000015355689     0.000004736775
      15        0.000001442205     0.000008884719    -0.000009992778
      16        0.000008681384     0.000005189782    -0.000011671736
      17       -0.000000332350    -0.000004611406     0.000012128822
      18        0.000000163037     0.000005924341     0.000008216108
      19        0.000000567667     0.000006737116    -0.000009493600
      20        0.000028399504    -0.000011575558    -0.000000211882
      21       -0.000000918692    -0.000008838032    -0.000003105914

  **** Optimization is complete! (in 5 steps) ****
    Final optimized geometry and variables:
    Molecular point group: c1

    Geometry (in Angstrom), charge = 0, multiplicity = 1:

    H           -3.122601176520     1.264577547123     1.602102395796
    O           -2.401285932399     0.719518296982     1.348229574207
    C           -2.524344821681     0.357932969335    -0.002528316045
    C           -1.383301743091    -0.566013140169    -0.392386569011
    H           -3.474634214316    -0.137979093340    -0.181982245591
    H           -2.495932598248     1.249025818250    -0.626899941201
    C           -0.003639584647    -0.039538901858     0.000746694876
    H           -1.409913066394    -0.677971810452    -1.473239917166
    H           -1.541443601190    -1.546007891549     0.046086324871
    C            1.123887129355    -0.952618906538    -0.477158484936
    H            0.122246370717     0.956636913349    -0.413095390846
    H            0.046970076542     0.067226060013     1.077450596039
    C            2.524007204636    -0.529576041501    -0.029270299375
    H            1.102084877119    -1.019662459925    -1.563021259962
    H            0.935822887865    -1.957744749251    -0.109045993119
    C            3.013381591996     0.788076792487    -0.625463458631
    H            3.223481973713    -1.314559178375    -0.300685695532
    H            2.547616307900    -0.464596706575     1.055198433872
    H            2.991789718740     0.756517219293    -1.710343541707
    H            2.406700361712     1.626943194116    -0.306782375039
    H            4.034305248286     0.991421464410    -0.322582981020

  Mulliken Charges: (a.u.)
   Center  Symbol    Alpha    Beta     Spin     Total
       1     H     0.39612  0.39612  0.00000  0.20777
       2     O     4.19724  4.19724  0.00000 -0.39448
       3     C     2.97415  2.97415  0.00000  0.05171
       4     C     3.09202  3.09202  0.00000 -0.18405
       5     H     0.46554  0.46554  0.00000  0.06891
       6     H     0.47348  0.47348  0.00000  0.05303
       7     C     3.09010  3.09010  0.00000 -0.18020
       8     H     0.45586  0.45586  0.00000  0.08828
       9     H     0.45241  0.45241  0.00000  0.09517
      10     C     3.09477  3.09477  0.00000 -0.18954
      11     H     0.45694  0.45694  0.00000  0.08612
      12     H     0.44237  0.44237  0.00000  0.11527
      13     C     3.08935  3.08935  0.00000 -0.17871
      14     H     0.45625  0.45625  0.00000  0.08750
      15     H     0.45058  0.45058  0.00000  0.09884
      16     C     3.15260  3.15260  0.00000 -0.30519
      17     H     0.44975  0.44975  0.00000  0.10049
      18     H     0.45435  0.45435  0.00000  0.09131
      19     H     0.45609  0.45609  0.00000  0.08782
      20     H     0.45293  0.45293  0.00000  0.09415
      21     H     0.44709  0.44709  0.00000  0.10581

   Total alpha = 29.00000, Total beta = 29.00000, Total charge =  0.00000

*** Psi4 exiting successfully. Buy a developer a beer!
