  ==> Input File <==

--------------------------------------------------------------------------
set {
	reference rhf
	basis cc-pvtz
}

set_num_threads( 4 )
memory 2 gb

molecule MOL {
0 1

H	 2.232102	 -1.312278	 -0.118123
O	 1.549820	 -0.743968	 -0.424015
C	 1.135873	 0.113391	 0.608264
C	 0.027642	 1.012027	 0.090274
H	 1.965799	 0.730664	 0.942875
H	 0.793515	 -0.461503	 1.464271
C	 -1.138737	 0.285728	 -0.581921
H	 0.464661	 1.708096	 -0.618252
H	 -0.340737	 1.603071	 0.925246
C	 -1.933983	 -0.631436	 0.343653
H	 -0.763151	 -0.285569	 -1.422081
H	 -1.808359	 1.035291	 -0.992333
H	 -2.789188	 -1.049673	 -0.174718
H	 -1.335629	 -1.461368	 0.700418
H	 -2.305435	 -0.092167	 1.209725

	symmetry c1
}
set optking {
	frozen_dihedral = ("
		2 3 4 8
	")
}

ee = optimize('scf')
oeprop('DIPOLE', 'QUADRUPOLE', 'MULLIKEN_CHARGES')
f=open( 'psi4out.xyz', 'w' )
f.write( "15  " )
f.write( str(ee) + "\n" )
f.write( MOL.save_string_xyz() )
f.close()
--------------------------------------------------------------------------

    Molecular point group: c1
  Charge       = 0
  Multiplicity = 1
  Basis Set: CC-PVTZ
  Basis Set:
  @DF-RHF Final Energy:  -232.23730807977992
    Total Energy =                       -232.2373080797799503
    Molecular point group: c1
  Basis Set: CC-PVTZ
  Basis Set:
  Basis Set: CC-PVTZ
  Basis Set:
  @DF-RHF Final Energy:  -232.23731864099332
    Total Energy =                       -232.2373186409932941
  Basis Set: CC-PVTZ
  Basis Set:
  Basis Set: CC-PVTZ
  Basis Set:
  @DF-RHF Final Energy:  -232.23738963104185
    Total Energy =                       -232.2373896310417649
  Basis Set: CC-PVTZ
  Basis Set:
  Basis Set: CC-PVTZ
  Basis Set:
  @DF-RHF Final Energy:  -232.23739577575748
    Total Energy =                       -232.2373957757574772
  Basis Set: CC-PVTZ
  Basis Set:
  Charge       = 0
  Multiplicity = 1
  Basis Set: CC-PVTZ
  Basis Set:

    Orbital Energies (a.u.)
    -----------------------

    Doubly Occupied:

       1A    -20.546803     2A    -11.265624     3A    -11.211097
       4A    -11.206833     5A    -11.201959     6A     -1.364645
       7A     -1.064943     8A     -0.971162     9A     -0.869319
      10A     -0.774696    11A     -0.706694    12A     -0.650950
      13A     -0.609453    14A     -0.573446    15A     -0.566645
      16A     -0.531750    17A     -0.510800    18A     -0.476363
      19A     -0.465680    20A     -0.452973    21A     -0.433736

  @DF-RHF Final Energy:  -232.23739595441853

   => Energetics <=

    Nuclear Repulsion Energy =            192.5291376416907667
    One-Electron Energy =                -696.6219183824989614
    Two-Electron Energy =                 271.8553847863896067
    DFT Exchange-Correlation Energy =       0.0000000000000000
    Empirical Dispersion Energy =           0.0000000000000000
    PCM Polarization Energy =               0.0000000000000000
    EFP Energy =                            0.0000000000000000
    Total Energy =                       -232.2373959544185595
    Molecular point group: c1
  Basis Set: CC-PVTZ
  Basis Set:

  -Total Gradient:
     Atom            X                  Y                   Z
    ------   -----------------  -----------------  -----------------
       1        0.000002322242    -0.000011311203     0.000000338287
       2       -0.000975736174    -0.000928606818     0.000429159534
       3        0.001333070475     0.001517658877    -0.000222700916
       4       -0.000689870047    -0.001763546986    -0.001538491699
       5        0.000010658699    -0.000013232954    -0.000012541641
       6        0.000019861011    -0.000008760558    -0.000007302475
       7        0.000006542964     0.000026661061     0.000003862321
       8        0.000316925021     0.001181582732     0.001346476627
       9       -0.000014878074     0.000011190428     0.000008072082
      10       -0.000003977626     0.000004238898    -0.000000551449
      11        0.000007876801     0.000004670813    -0.000002017368
      12       -0.000006548511    -0.000009173035    -0.000004159574
      13       -0.000002719347    -0.000004544410     0.000003116465
      14       -0.000009262354    -0.000002933080    -0.000002135266
      15        0.000005734920    -0.000003893766    -0.000001124929

  **** Optimization is complete! (in 5 steps) ****
    Final optimized geometry and variables:
    Molecular point group: c1

    Geometry (in Angstrom), charge = 0, multiplicity = 1:

    H            2.268339015517    -1.281743417602    -0.100902549983
    O            1.578149539447    -0.728803702192    -0.416821327620
    C            1.152756670758     0.140534486585     0.600379770063
    C            0.057645826899     1.045975601603     0.063138840400
    H            1.979990522307     0.751887252281     0.951352056833
    H            0.786831653864    -0.429153467325     1.450494030991
    C           -1.119747265832     0.327323416747    -0.595856573001
    H            0.500238291244     1.739058893007    -0.645019961725
    H           -0.302225533290     1.649366838896     0.893583946483
    C           -1.891220289141    -0.604839401731     0.334426361667
    H           -0.760915141357    -0.232937796868    -1.450070830430
    H           -1.798477972934     1.081662313086    -0.981923922810
    H           -2.757019993487    -1.018348586946    -0.169912803481
    H           -1.280018714426    -1.436765552072     0.663243229453
    H           -2.244100882067    -0.079619904209     1.216816069636

  Mulliken Charges: (a.u.)
   Center  Symbol    Alpha    Beta     Spin     Total
       1     H     0.39552  0.39552  0.00000  0.20897
       2     O     4.19937  4.19937  0.00000 -0.39874
       3     C     2.97835  2.97835  0.00000  0.04330
       4     C     3.09510  3.09510  0.00000 -0.19020
       5     H     0.46160  0.46160  0.00000  0.07680
       6     H     0.47136  0.47136  0.00000  0.05729
       7     C     3.08422  3.08422  0.00000 -0.16845
       8     H     0.44915  0.44915  0.00000  0.10170
       9     H     0.45539  0.45539  0.00000  0.08921
      10     C     3.15560  3.15560  0.00000 -0.31120
      11     H     0.44668  0.44668  0.00000  0.10663
      12     H     0.45107  0.45107  0.00000  0.09787
      13     H     0.44681  0.44681  0.00000  0.10638
      14     H     0.45247  0.45247  0.00000  0.09506
      15     H     0.45731  0.45731  0.00000  0.08539

   Total alpha = 21.00000, Total beta = 21.00000, Total charge =  0.00000
