  ==> Input File <==

--------------------------------------------------------------------------
set {
	reference rhf
	basis 6-31G*
}

set_num_threads( 4 )
memory 2 gb

molecule MOL {
0 1

H	 1.105949	 1.753818	 0.528737
O	 0.285736	 1.270863	 0.555860
C	 0.489431	 0.077273	 0.000046
C	 -0.764129	 -0.759190	 0.000191
O	 1.546928	 -0.248521	 -0.431374
C	 -2.038368	 0.075731	 -0.000248
H	 -0.717284	 -1.412404	 -0.866059
H	 -0.717458	 -1.411724	 0.866967
H	 -2.086483	 0.712501	 -0.875098
H	 -2.908485	 -0.571682	 -0.000042
H	 -2.086576	 0.713280	 0.874068

	symmetry c1
}
set optking {
	frozen_dihedral = ("
		2 3 4 7
	")
}

ee = optimize('scf')
oeprop('DIPOLE', 'QUADRUPOLE', 'MULLIKEN_CHARGES')
f=open( 'psi4out.xyz', 'w' )
f.write( "11  " )
f.write( str(ee) + "\n" )
f.write( MOL.save_string_xyz() )
f.close()
--------------------------------------------------------------------------

    Molecular point group: c1
  Charge       = 0
  Multiplicity = 1
  Basis Set: 6-31G*
  Basis Set:
  @DF-RHF Final Energy:  -266.84297710840224
    Total Energy =                       -266.8429771084022946
    Molecular point group: c1
  Basis Set: 6-31G*
  Basis Set:
  Basis Set: 6-31G*
  Basis Set:
  @DF-RHF Final Energy:  -266.84344741319285
    Total Energy =                       -266.8434474131926208
  Basis Set: 6-31G*
  Basis Set:
  Basis Set: 6-31G*
  Basis Set:
  @DF-RHF Final Energy:  -266.84278072989247
    Total Energy =                       -266.8427807298924677
  Basis Set: 6-31G*
  Basis Set:
  Basis Set: 6-31G*
  Basis Set:
  @DF-RHF Final Energy:  -266.84376113014378
    Total Energy =                       -266.8437611301440597
  Basis Set: 6-31G*
  Basis Set:
  Basis Set: 6-31G*
  Basis Set:
  @DF-RHF Final Energy:  -266.84377415354083
    Total Energy =                       -266.8437741535407213
  Basis Set: 6-31G*
  Basis Set:
  Charge       = 0
  Multiplicity = 1
  Basis Set: 6-31G*
  Basis Set:

    Orbital Energies (a.u.)
    -----------------------

    Doubly Occupied:

       1A    -20.615830     2A    -20.548963     3A    -11.382204
       4A    -11.244376     5A    -11.225334     6A     -1.476425
       7A     -1.365427     8A     -1.066580     9A     -0.909460
      10A     -0.822749    11A     -0.701696    12A     -0.677476
      13A     -0.656338    14A     -0.600054    15A     -0.587603
      16A     -0.552206    17A     -0.524743    18A     -0.513889
      19A     -0.472897    20A     -0.440242

  @DF-RHF Final Energy:  -266.84377493203613

   => Energetics <=

    Nuclear Repulsion Energy =            180.0553768475692493
    One-Electron Energy =                -721.0293194109401611
    Two-Electron Energy =                 274.1301676313350413
    DFT Exchange-Correlation Energy =       0.0000000000000000
    Empirical Dispersion Energy =           0.0000000000000000
    PCM Polarization Energy =               0.0000000000000000
    EFP Energy =                            0.0000000000000000
    Total Energy =                       -266.8437749320358421
    Molecular point group: c1
  Basis Set: 6-31G*
  Basis Set:

  -Total Gradient:
     Atom            X                  Y                   Z
    ------   -----------------  -----------------  -----------------
       1        0.000002760544    -0.000006235204    -0.000000208612
       2       -0.000204529778     0.000305179934    -0.000610542577
       3        0.000210453847    -0.000324908772     0.000735416246
       4        0.000398819125    -0.000587832165     0.000323945057
       5       -0.000044271977     0.000026001285     0.000004844228
       6       -0.000000798781     0.000007666930    -0.000000466485
       7       -0.000386281570     0.000580484319    -0.000443389225
       8       -0.000003015607     0.000018214391    -0.000002691088
       9        0.000011517264     0.000004122061    -0.000007550939
      10       -0.000001926548    -0.000010451642    -0.000003081370
      11        0.000017273479    -0.000012241136     0.000003724764

  **** Optimization is complete! (in 6 steps) ****
    Final optimized geometry and variables:
    Molecular point group: c1

    Geometry (in Angstrom), charge = 0, multiplicity = 1:

    H            1.264234542104     1.614891995512     0.486035193200
    O            0.418057867143     1.178068623594     0.505036670688
    C            0.569982176900    -0.029101034376    -0.034051984890
    C           -0.694874615475    -0.853712639368    -0.037242504855
    O            1.618632306415    -0.407677223641    -0.445457737140
    C           -2.000933988491    -0.061276312660    -0.034481095092
    H           -0.632133741263    -1.503194940053    -0.901161795932
    H           -0.641567405163    -1.495131159974     0.838857482073
    H           -2.067321127186     0.591976558623    -0.897571644865
    H           -2.843164954249    -0.743753088203    -0.066528529026
    H           -2.091947279917     0.549657787679     0.854260151361

  Mulliken Charges: (a.u.)
   Center  Symbol    Alpha    Beta     Spin     Total
       1     H     0.26717  0.26717  0.00000  0.46565
       2     O     4.34765  4.34765  0.00000 -0.69530
       3     C     2.62473  2.62473  0.00000  0.75054
       4     C     3.20916  3.20916  0.00000 -0.41832
       5     O     4.28147  4.28147  0.00000 -0.56294
       6     C     3.24248  3.24248  0.00000 -0.48496
       7     H     0.39504  0.39504  0.00000  0.20991
       8     H     0.39733  0.39733  0.00000  0.20534
       9     H     0.41351  0.41351  0.00000  0.17298
      10     H     0.41470  0.41470  0.00000  0.17061
      11     H     0.40676  0.40676  0.00000  0.18649

   Total alpha = 20.00000, Total beta = 20.00000, Total charge = -0.00000
