  ==> Input File <==

--------------------------------------------------------------------------
set {
	reference rhf
	basis 6-31G*
}

set_num_threads( 4 )
memory 2 gb

molecule MOL {
0 1

H	 -0.369554	 0.069849	 2.095845
C	 -0.210393	 -0.484033	 1.193199
C	 -0.209005	 -1.867295	 1.185326
C	 0.000000	 0.183220	 0.000000
H	 -0.370547	 -2.404452	 2.101477
C	 0.000000	 -2.555744	 0.000000
N	 0.000000	 1.642018	 0.000000
C	 0.210393	 -0.484034	 -1.193199
H	 0.000000	 -3.630640	 0.000000
C	 0.209005	 -1.867295	 -1.185326
O	 1.057097	 2.196749	 0.000000
O	 -1.057097	 2.196749	 0.000000
H	 0.369554	 0.069849	 -2.095845
H	 0.370547	 -2.404452	 -2.101477

	symmetry c1
}
set optking {
	frozen_dihedral = ("
		2 4 7 11
	")
}

ee = optimize('scf')
oeprop('DIPOLE', 'QUADRUPOLE', 'MULLIKEN_CHARGES')
f=open( 'psi4out.xyz', 'w' )
f.write( "14  " )
f.write( str(ee) + "\n" )
f.write( MOL.save_string_xyz() )
f.close()
--------------------------------------------------------------------------

    Molecular point group: c1
  Charge       = 0
  Multiplicity = 1
  Basis Set: 6-31G*
  Basis Set:
  @DF-RHF Final Energy:  -434.16256312430943
    Total Energy =                       -434.1625631243091448
    Molecular point group: c1
  Basis Set: 6-31G*
  Basis Set:
  Basis Set: 6-31G*
  Basis Set:
  @DF-RHF Final Energy:  -434.15874799440797
    Total Energy =                       -434.1587479944081451
  Basis Set: 6-31G*
  Basis Set:
  Basis Set: 6-31G*
  Basis Set:
  @DF-RHF Final Energy:  -434.16256963259571
    Total Energy =                       -434.1625696325958188
  Basis Set: 6-31G*
  Basis Set:
  Basis Set: 6-31G*
  Basis Set:
  @DF-RHF Final Energy:  -434.16290871147237
    Total Energy =                       -434.1629087114723689
  Basis Set: 6-31G*
  Basis Set:
  Charge       = 0
  Multiplicity = 1
  Basis Set: 6-31G*
  Basis Set:

    Orbital Energies (a.u.)
    -----------------------

    Doubly Occupied:

       1A    -20.607172     2A    -20.607111     3A    -15.855852
       4A    -11.309596     5A    -11.270961     6A    -11.270891
       7A    -11.263881     8A    -11.263518     9A    -11.261462
      10A     -1.638561    11A     -1.422613    12A     -1.203138
      13A     -1.094775    14A     -1.054284    15A     -0.957213
      16A     -0.872141    17A     -0.827509    18A     -0.781026
      19A     -0.734029    20A     -0.731328    21A     -0.715757
      22A     -0.648832    23A     -0.647073    24A     -0.623968
      25A     -0.559346    26A     -0.547482    27A     -0.531961
      28A     -0.495206    29A     -0.482574    30A     -0.452486
      31A     -0.367809    32A     -0.366729

  @DF-RHF Final Energy:  -434.16290994027020

   => Energetics <=

    Nuclear Repulsion Energy =            416.1782083412550719
    One-Electron Energy =               -1415.7496657082458569
    Two-Electron Energy =                 565.4085474267199061
    DFT Exchange-Correlation Energy =       0.0000000000000000
    Empirical Dispersion Energy =           0.0000000000000000
    PCM Polarization Energy =               0.0000000000000000
    EFP Energy =                            0.0000000000000000
    Total Energy =                       -434.1629099402708789
    Molecular point group: c1
  Basis Set: 6-31G*
  Basis Set:

  -Total Gradient:
     Atom            X                  Y                   Z
    ------   -----------------  -----------------  -----------------
       1       -0.000000803560    -0.000031058131    -0.000049914399
       2        0.002992730641    -0.000101425968     0.000586290714
       3       -0.000027021302     0.000007944184     0.000038514896
       4       -0.004243194081     0.000282351879     0.000631043125
       5        0.000009892134     0.000005358904     0.000008078185
       6       -0.000023660729     0.000010532695     0.000008325443
       7        0.001252237428    -0.000001861486    -0.004524150077
       8       -0.000042290648    -0.000082665306    -0.000140491426
       9       -0.000000055696     0.000004804136     0.000000386417
      10        0.000060503440     0.000029387189    -0.000055343282
      11        0.000221495261    -0.000072614578     0.003472622537
      12       -0.000181125918    -0.000023308240    -0.000021078891
      13       -0.000014932252    -0.000030365909     0.000051532191
      14       -0.000003774715     0.000002920626    -0.000005815432

  **** Optimization is complete! (in 5 steps) ****
    Final optimized geometry and variables:
    Molecular point group: c1

    Geometry (in Angstrom), charge = 0, multiplicity = 1:

    H           -0.391558209018     0.078082897144     2.089846326994
    C           -0.222814577239    -0.475878463335     1.185570593229
    C           -0.207085974221    -1.860635647615     1.181953017256
    C           -0.023281338210     0.180809345265    -0.009672559284
    H           -0.359313497539    -2.395443629131     2.101171398393
    C            0.003997432774    -2.552122551268    -0.000723871770
    N            0.000726446349     1.643264121249    -0.004172191627
    C            0.208933096602    -0.479572607515    -1.196826807269
    H            0.011578772650    -3.626723987853     0.002367177229
    C            0.209709180215    -1.864439523379    -1.186491474076
    O            1.070555427186     2.168428360697    -0.021492894298
    O           -1.049573263668     2.204880116329     0.045416299132
    H            0.382546637468     0.071597322164    -2.101906011341
    H            0.377311140823    -2.402134838069    -2.101337831400

  Mulliken Charges: (a.u.)
   Center  Symbol    Alpha    Beta     Spin     Total
       1     H     0.37640  0.37640  0.00000  0.24719
       2     C     3.08788  3.08788  0.00000 -0.17575
       3     C     3.10308  3.10308  0.00000 -0.20615
       4     C     2.89684  2.89684  0.00000  0.20633
       5     H     0.38857  0.38857  0.00000  0.22286
       6     C     3.09358  3.09358  0.00000 -0.18716
       7     N     3.25741  3.25741  0.00000  0.48517
       8     C     3.08878  3.08878  0.00000 -0.17756
       9     H     0.39022  0.39022  0.00000  0.21956
      10     C     3.10312  3.10312  0.00000 -0.20624
      11     O     4.22472  4.22472  0.00000 -0.44944
      12     O     4.22394  4.22394  0.00000 -0.44789
      13     H     0.37688  0.37688  0.00000  0.24624
      14     H     0.38858  0.38858  0.00000  0.22283

   Total alpha = 32.00000, Total beta = 32.00000, Total charge =  0.00000
