  ==> Input File <==

--------------------------------------------------------------------------
set {
	reference rhf
	basis cc-pvtz
}

set_num_threads( 4 )
memory 2 gb

molecule MOL {
0 1

H	 -2.362939	 -1.309000	 -0.383250
C	 -1.359344	 -1.272457	 0.020748
C	 -0.684082	 0.000127	 -0.464918
H	 -0.825835	 -2.151141	 -0.318537
H	 -1.416276	 -1.292399	 1.099455
C	 -1.359089	 1.272668	 0.021259
N	 0.742439	 -0.000109	 0.007333
H	 -0.596914	 0.000345	 -1.538146
H	 -2.362696	 1.309620	 -0.382686
H	 -0.825392	 2.151374	 -0.317674
H	 -1.415983	 1.292181	 1.099973
O	 1.424597	 0.911238	 -0.320922
O	 1.095941	 -0.911550	 0.678602

	symmetry c1
}
set optking {
	frozen_dihedral = ("
		12 7 3 8
	")
}

ee = optimize('scf')
oeprop('DIPOLE', 'QUADRUPOLE', 'MULLIKEN_CHARGES')
f=open( 'psi4out.xyz', 'w' )
f.write( "13  " )
f.write( str(ee) + "\n" )
f.write( MOL.save_string_xyz() )
f.close()
--------------------------------------------------------------------------

    Molecular point group: c1
  Charge       = 0
  Multiplicity = 1
  Basis Set: CC-PVTZ
  Basis Set:
  @DF-RHF Final Energy:  -321.86216852787345
    Total Energy =                       -321.8621685278732230
    Molecular point group: c1
  Basis Set: CC-PVTZ
  Basis Set:
  Basis Set: CC-PVTZ
  Basis Set:
  @DF-RHF Final Energy:  -321.86227988867751
    Total Energy =                       -321.8622798886774490
  Basis Set: CC-PVTZ
  Basis Set:
  Basis Set: CC-PVTZ
  Basis Set:
  @DF-RHF Final Energy:  -321.86293655020199
    Total Energy =                       -321.8629365502021642
  Basis Set: CC-PVTZ
  Basis Set:
  Basis Set: CC-PVTZ
  Basis Set:
  @DF-RHF Final Energy:  -321.86283692032561
    Total Energy =                       -321.8628369203257762
  Basis Set: CC-PVTZ
  Basis Set:
  Basis Set: CC-PVTZ
  Basis Set:
  @DF-RHF Final Energy:  -321.86296628497342
    Total Energy =                       -321.8629662849730835
  Basis Set: CC-PVTZ
  Basis Set:
  Basis Set: CC-PVTZ
  Basis Set:
  @DF-RHF Final Energy:  -321.86302379943186
    Total Energy =                       -321.8630237994319145
  Basis Set: CC-PVTZ
  Basis Set:
  Charge       = 0
  Multiplicity = 1
  Basis Set: CC-PVTZ
  Basis Set:

    Orbital Energies (a.u.)
    -----------------------

    Doubly Occupied:

       1A    -20.591616     2A    -20.585588     3A    -15.833603
       4A    -11.306166     5A    -11.242173     6A    -11.237307
       7A     -1.634389     8A     -1.418297     9A     -1.140579
      10A     -0.969422    11A     -0.957954    12A     -0.815268
      13A     -0.762323    14A     -0.730304    15A     -0.724239
      16A     -0.642984    17A     -0.593567    18A     -0.587749
      19A     -0.570468    20A     -0.524898    21A     -0.521533
      22A     -0.484322    23A     -0.472354    24A     -0.451524

  @DF-RHF Final Energy:  -321.86302387424803

   => Energetics <=

    Nuclear Repulsion Energy =            257.3350841613284956
    One-Electron Energy =                -948.7989628754897922
    Two-Electron Energy =                 369.6008548399133815
    DFT Exchange-Correlation Energy =       0.0000000000000000
    Empirical Dispersion Energy =           0.0000000000000000
    PCM Polarization Energy =               0.0000000000000000
    EFP Energy =                            0.0000000000000000
    Total Energy =                       -321.8630238742479150
    Molecular point group: c1
  Basis Set: CC-PVTZ
  Basis Set:

  -Total Gradient:
     Atom            X                  Y                   Z
    ------   -----------------  -----------------  -----------------
       1        0.000001898257     0.000007345210     0.000001157660
       2        0.000005626145    -0.000007451545    -0.000002589227
       3       -0.000158767089     0.001927958764     0.000403968257
       4       -0.000003528757     0.000007808549    -0.000002512672
       5       -0.000001279844    -0.000004806914     0.000008055890
       6        0.000002732644    -0.000006598694     0.000000916456
       7        0.000520996015    -0.001124965919    -0.001620407481
       8        0.000023079541    -0.001449007837    -0.000004593473
       9       -0.000004237174     0.000002083553     0.000001002890
      10       -0.000002278988    -0.000001643691    -0.000002080181
      11       -0.000000622261     0.000001151966     0.000000591739
      12       -0.000407513188     0.000666093514     0.001198265201
      13        0.000023894700    -0.000017966955     0.000018224942

  **** Optimization is complete! (in 7 steps) ****
    Final optimized geometry and variables:
    Molecular point group: c1

    Geometry (in Angstrom), charge = 0, multiplicity = 1:

    H           -2.388748098936    -1.282244558508    -0.410601111870
    C           -1.390183039462    -1.283648079973     0.008845283537
    C           -0.685066357239    -0.022487972429    -0.449528290891
    H           -0.876995640805    -2.171708063271    -0.327800536788
    H           -1.468705773319    -1.322575269480     1.086229933876
    C           -1.362620258397     1.258074193706     0.017200207877
    N            0.751360512690     0.000874211094     0.014925837859
    H           -0.587833455350    -0.020425481346    -1.526032944650
    H           -2.378856916042     1.269084200207    -0.354350661160
    H           -0.847050065301     2.130822501700    -0.350764433225
    H           -1.397489553702     1.299433999432     1.099320751254
    O            1.399664480516     0.932872790075    -0.329058413755
    O            1.148431882086    -0.891429795785     0.683103429699

  Mulliken Charges: (a.u.)
   Center  Symbol    Alpha    Beta     Spin     Total
       1     H     0.45032  0.45032  0.00000  0.09937
       2     C     3.14237  3.14237  0.00000 -0.28475
       3     C     3.00682  3.00682  0.00000 -0.01364
       4     H     0.43682  0.43682  0.00000  0.12637
       5     H     0.44280  0.44280  0.00000  0.11440
       6     C     3.14426  3.14426  0.00000 -0.28852
       7     N     3.27511  3.27511  0.00000  0.44978
       8     H     0.42952  0.42952  0.00000  0.14096
       9     H     0.44966  0.44966  0.00000  0.10069
      10     H     0.43114  0.43114  0.00000  0.13772
      11     H     0.44620  0.44620  0.00000  0.10760
      12     O     4.17586  4.17586  0.00000 -0.35172
      13     O     4.16913  4.16913  0.00000 -0.33825

   Total alpha = 24.00000, Total beta = 24.00000, Total charge = -0.00000
