  ==> Input File <==

--------------------------------------------------------------------------
set {
	reference rhf
	basis cc-pvtz
}

set_num_threads( 4 )
memory 2 gb

molecule MOL {
0 1

O	 0.130850	 1.174101	 0.432860
C	 0.029490	 0.077183	 0.000078
C	 -1.232113	 -0.748027	 0.000015
O	 1.035230	 -0.580662	 -0.552153
C	 -2.501422	 0.088592	 -0.000052
H	 -1.188777	 -1.400384	 -0.865133
H	 -1.188857	 -1.400312	 0.865225
H	 -2.548170	 0.725504	 -0.873205
H	 -3.371613	 -0.556398	 -0.000040
H	 -2.548215	 0.725571	 0.873047
C	 2.283603	 0.078764	 -0.618211
H	 2.205764	 0.984827	 -1.200643
H	 2.960642	 -0.612248	 -1.093548
H	 2.637072	 0.325608	 0.371926

	symmetry c1
}
set optking {
	frozen_dihedral = ("
		4 2 3 6
	")
}

ee = optimize('scf')
oeprop('DIPOLE', 'QUADRUPOLE', 'MULLIKEN_CHARGES')
f=open( 'psi4out.xyz', 'w' )
f.write( "14  " )
f.write( str(ee) + "\n" )
f.write( MOL.save_string_xyz() )
f.close()
--------------------------------------------------------------------------

    Molecular point group: c1
  Charge       = 0
  Multiplicity = 1
  Basis Set: CC-PVTZ
  Basis Set:
  @DF-RHF Final Energy:  -305.98691365379347
    Total Energy =                       -305.9869136537931809
    Molecular point group: c1
  Basis Set: CC-PVTZ
  Basis Set:
  Basis Set: CC-PVTZ
  Basis Set:
  @DF-RHF Final Energy:  -305.98700749548220
    Total Energy =                       -305.9870074954825441
  Basis Set: CC-PVTZ
  Basis Set:
  Basis Set: CC-PVTZ
  Basis Set:
  @DF-RHF Final Energy:  -305.98661968003410
    Total Energy =                       -305.9866196800342095
  Basis Set: CC-PVTZ
  Basis Set:
  Basis Set: CC-PVTZ
  Basis Set:
  @DF-RHF Final Energy:  -305.98712913146551
    Total Energy =                       -305.9871291314656219
  Basis Set: CC-PVTZ
  Basis Set:
  Charge       = 0
  Multiplicity = 1
  Basis Set: CC-PVTZ
  Basis Set:

    Orbital Energies (a.u.)
    -----------------------

    Doubly Occupied:

       1A    -20.598274     2A    -20.533891     3A    -11.365270
       4A    -11.279195     5A    -11.236907     6A    -11.216310
       7A     -1.473393     8A     -1.366405     9A     -1.065365
      10A     -0.981348    11A     -0.879627    12A     -0.772012
      13A     -0.702437    14A     -0.685576    15A     -0.675531
      16A     -0.620837    17A     -0.603904    18A     -0.551141
      19A     -0.539025    20A     -0.520734    21A     -0.516224
      22A     -0.496716    23A     -0.461353    24A     -0.441712

  @DF-RHF Final Energy:  -305.98713081299854

   => Energetics <=

    Nuclear Repulsion Energy =            247.5499556314970562
    One-Electron Energy =                -907.9078046570098195
    Two-Electron Energy =                 354.3707182125146460
    DFT Exchange-Correlation Energy =       0.0000000000000000
    Empirical Dispersion Energy =           0.0000000000000000
    PCM Polarization Energy =               0.0000000000000000
    EFP Energy =                            0.0000000000000000
    Total Energy =                       -305.9871308129981458
    Molecular point group: c1
  Basis Set: CC-PVTZ
  Basis Set:

  -Total Gradient:
     Atom            X                  Y                   Z
    ------   -----------------  -----------------  -----------------
       1        0.000004512326    -0.000094030999    -0.000043437221
       2        0.000368775141    -0.000497041305     0.001390692859
       3       -0.000767679466     0.001175715136    -0.001071780844
       4       -0.000172989094     0.000303239273    -0.000937152993
       5        0.000035370830    -0.000034938572    -0.000031434360
       6        0.000541392917    -0.000806194196     0.000647949295
       7        0.000018242105    -0.000023317721     0.000012201171
       8       -0.000006971109     0.000005261178    -0.000005730550
       9        0.000000333370     0.000001980351    -0.000000853846
      10        0.000019913882    -0.000013766651     0.000007437228
      11       -0.000055245597    -0.000028091793     0.000036729871
      12       -0.000013587328    -0.000003651785    -0.000003323888
      13        0.000004453689     0.000002357398    -0.000004352617
      14        0.000023478333     0.000012479682     0.000003055895

  **** Optimization is complete! (in 5 steps) ****
    Final optimized geometry and variables:
    Molecular point group: c1

    Geometry (in Angstrom), charge = 0, multiplicity = 1:

    O            0.136824339438     1.148206597376     0.543236437591
    C            0.043091156769     0.052367462644     0.105100713948
    C           -1.216362033864    -0.776962495416     0.114752397506
    O            1.056390663246    -0.599676592483    -0.438819572538
    C           -2.485760169649     0.061036742944     0.154922860983
    H           -1.195826899583    -1.446993063152    -0.733937308767
    H           -1.152059356480    -1.407694712653     0.997197583550
    H           -2.573314933091     0.679150919925    -0.730144858484
    H           -3.355375394789    -0.582526470052     0.204270326083
    H           -2.490164737836     0.713917509512     1.016091514811
    C            2.310407331467     0.052525685952    -0.458810310899
    H            2.252435877632     0.971137627022    -1.023330919868
    H            2.994687923261    -0.632984808172    -0.931724689632
    H            2.640261070063     0.275884296021     0.544989402083

  Mulliken Charges: (a.u.)
   Center  Symbol    Alpha    Beta     Spin     Total
       1     O     4.19876  4.19876  0.00000 -0.39753
       2     C     2.80530  2.80530  0.00000  0.38941
       3     C     3.09088  3.09088  0.00000 -0.18177
       4     O     4.14558  4.14558  0.00000 -0.29117
       5     C     3.14127  3.14127  0.00000 -0.28253
       6     H     0.43844  0.43844  0.00000  0.12312
       7     H     0.44531  0.44531  0.00000  0.10938
       8     H     0.45226  0.45226  0.00000  0.09548
       9     H     0.45005  0.45005  0.00000  0.09991
      10     H     0.44328  0.44328  0.00000  0.11343
      11     C     3.03494  3.03494  0.00000 -0.06987
      12     H     0.45411  0.45411  0.00000  0.09177
      13     H     0.44530  0.44530  0.00000  0.10939
      14     H     0.45451  0.45451  0.00000  0.09097

   Total alpha = 24.00000, Total beta = 24.00000, Total charge = -0.00000
