  ==> Input File <==

--------------------------------------------------------------------------
set {
	reference rhf
	basis 6-31G*
}

set_num_threads( 4 )
memory 2 gb

molecule MOL {
0 1

H	 2.201262	 -1.310452	 0.164896
N	 2.434251	 -0.367735	 -0.081097
C	 1.267428	 0.496480	 0.024474
H	 2.770698	 -0.389672	 -1.025151
C	 -0.016086	 -0.325158	 -0.029487
H	 1.288818	 1.183521	 -0.816092
H	 1.267576	 1.109062	 0.929528
C	 -1.282277	 0.529072	 0.046735
H	 -0.012495	 -0.908639	 -0.945788
H	 -0.015903	 -1.041248	 0.791956
C	 -2.563920	 -0.301775	 -0.006060
H	 -1.284084	 1.244622	 -0.773004
H	 -1.271387	 1.115393	 0.963286
H	 -2.621848	 -0.873522	 -0.927727
H	 -3.445135	 0.329952	 0.047812
H	 -2.609542	 -1.004582	 0.821105

	symmetry c1
}
set optking {
	frozen_dihedral = ("
		1 2 3 6
	")
}

ee = optimize('scf')
oeprop('DIPOLE', 'QUADRUPOLE', 'MULLIKEN_CHARGES')
f=open( 'psi4out.xyz', 'w' )
f.write( "16  " )
f.write( str(ee) + "\n" )
f.write( MOL.save_string_xyz() )
f.close()
--------------------------------------------------------------------------

    Molecular point group: c1
  Charge       = 0
  Multiplicity = 1
  Basis Set: 6-31G*
  Basis Set:
  @DF-RHF Final Energy:  -212.31240048118707
    Total Energy =                       -212.3124004811872965
    Molecular point group: c1
  Basis Set: 6-31G*
  Basis Set:
  Basis Set: 6-31G*
  Basis Set:
  @DF-RHF Final Energy:  -212.31355171402848
    Total Energy =                       -212.3135517140285060
  Basis Set: 6-31G*
  Basis Set:
  Basis Set: 6-31G*
  Basis Set:
  @DF-RHF Final Energy:  -212.31373294086416
    Total Energy =                       -212.3137329408640426
  Basis Set: 6-31G*
  Basis Set:
  Basis Set: 6-31G*
  Basis Set:
  @DF-RHF Final Energy:  -212.31373552645388
    Total Energy =                       -212.3137355264541384
  Basis Set: 6-31G*
  Basis Set:
  Charge       = 0
  Multiplicity = 1
  Basis Set: 6-31G*
  Basis Set:

    Orbital Energies (a.u.)
    -----------------------

    Doubly Occupied:

       1A    -15.531096     2A    -11.239985     3A    -11.218849
       4A    -11.215997     5A    -11.211374     6A     -1.175220
       7A     -1.062904     8A     -0.960536     9A     -0.847955
      10A     -0.798328    11A     -0.671148    12A     -0.630744
      13A     -0.597030    14A     -0.585855    15A     -0.561525
      16A     -0.522160    17A     -0.509181    18A     -0.479637
      19A     -0.473022    20A     -0.466449    21A     -0.375893

  @DF-RHF Final Energy:  -212.31373571887809

   => Energetics <=

    Nuclear Repulsion Energy =            186.0775137958313508
    One-Electron Energy =                -654.5127224991806543
    Two-Electron Energy =                 256.1214729844710973
    DFT Exchange-Correlation Energy =       0.0000000000000000
    Empirical Dispersion Energy =           0.0000000000000000
    PCM Polarization Energy =               0.0000000000000000
    EFP Energy =                            0.0000000000000000
    Total Energy =                       -212.3137357188782062
    Molecular point group: c1
  Basis Set: 6-31G*
  Basis Set:

  -Total Gradient:
     Atom            X                  Y                   Z
    ------   -----------------  -----------------  -----------------
       1       -0.000579049083    -0.000665964538    -0.003087687484
       2        0.000343442501     0.000355153772     0.003482692081
       3        0.001634191379     0.002263025450     0.001257883242
       4       -0.000011301078     0.000010692255    -0.000001518395
       5        0.000065160744     0.000004887256    -0.000007664329
       6       -0.001399914110    -0.001977143275    -0.001658548532
       7       -0.000014742308     0.000007229825     0.000007838479
       8        0.000012375165    -0.000005015272     0.000008431840
       9        0.000006291892     0.000012429778     0.000001655240
      10       -0.000007050598    -0.000009683381    -0.000017450524
      11       -0.000034927969     0.000012039126     0.000017197432
      12        0.000003974129    -0.000009864606     0.000000465329
      13       -0.000006080413     0.000006217220    -0.000004384585
      14        0.000006009062     0.000006070205     0.000001381705
      15       -0.000016780228    -0.000010091360     0.000000290888
      16       -0.000001599084     0.000000017545    -0.000000582389

  **** Optimization is complete! (in 5 steps) ****
    Final optimized geometry and variables:
    Molecular point group: c1

    Geometry (in Angstrom), charge = 0, multiplicity = 1:

    H            2.295834392092    -1.280315746085     0.204918922036
    N            2.489078151519    -0.326620556905    -0.033376020668
    C            1.273268390363     0.483215054585     0.024827402121
    H            2.855560608800    -0.344603380332    -0.964319871742
    C           -0.023066933272    -0.327516023334    -0.028176116551
    H            1.279579421017     1.176615441003    -0.810981284625
    H            1.286127767865     1.079502308906     0.932634143878
    C           -1.280684423576     0.538172130010     0.062732542908
    H           -0.043551040669    -0.906824294638    -0.950244163928
    H           -0.024031365004    -1.048304015670     0.789083649336
    C           -2.572189204620    -0.278149658473     0.024137277026
    H           -1.283922580039     1.255991024279    -0.754923689640
    H           -1.250311696994     1.121485693714     0.980321476683
    H           -2.648780906516    -0.847595132655    -0.897804250135
    H           -3.445137459272     0.363751687406     0.089716363660
    H           -2.615919162586    -0.981447877285     0.850865331492

  Mulliken Charges: (a.u.)
   Center  Symbol    Alpha    Beta     Spin     Total
       1     H     0.33318  0.33318  0.00000  0.33363
       2     N     3.92564  3.92564  0.00000 -0.85129
       3     C     3.05175  3.05175  0.00000 -0.10350
       4     H     0.33319  0.33319  0.00000  0.33363
       5     C     3.16404  3.16404  0.00000 -0.32809
       6     H     0.42462  0.42462  0.00000  0.15076
       7     H     0.41916  0.41916  0.00000  0.16169
       8     C     3.15514  3.15514  0.00000 -0.31028
       9     H     0.42560  0.42560  0.00000  0.14879
      10     H     0.42421  0.42421  0.00000  0.15158
      11     C     3.23891  3.23891  0.00000 -0.47781
      12     H     0.42252  0.42252  0.00000  0.15496
      13     H     0.42068  0.42068  0.00000  0.15865
      14     H     0.42171  0.42171  0.00000  0.15658
      15     H     0.41851  0.41851  0.00000  0.16299
      16     H     0.42115  0.42115  0.00000  0.15771

   Total alpha = 21.00000, Total beta = 21.00000, Total charge =  0.00000
