                              Psi4 1.0.54 Driver

  ==> Input File <==

--------------------------------------------------------------------------
set {
	reference rhf
	basis cc-pvtz
}

set_num_threads( 4 )
memory 2 gb

molecule MOL {
0 1

O	 -0.294688	 1.318815	 -0.000872
C	 -0.448732	 0.145721	 -0.000187
C	 -1.780748	 -0.548101	 0.000195
O	 0.550743	 -0.719877	 0.000412
H	 -1.859389	 -1.183260	 -0.872613
H	 -2.570236	 0.185547	 -0.001342
H	 -1.860233	 -1.180337	 0.875064
C	 1.183235	 -0.978312	 1.238245
H	 1.611925	 -0.073548	 1.642791
H	 1.958480	 -1.697978	 1.031461
H	 0.478018	 -1.382945	 1.948852

	symmetry c1
}
set optking {
	frozen_dihedral = ("
		8 4 2 1
	")
}

ee,wfn = optimize('scf', return_wfn=True)
oeprop( wfn, 'DIPOLE', 'QUADRUPOLE', 'MULLIKEN_CHARGES')
f=open( 'psi4out.xyz', 'w' )
f.write( "11  " )
f.write( str(ee) + "\n" )
f.write( MOL.save_string_xyz() )
f.close()
--------------------------------------------------------------------------

    Molecular point group: c1
  Charge       = 0
  Multiplicity = 1
  Basis Set: CC-PVTZ
  Basis Set:
  @DF-RHF Final Energy:  -266.91958036365196
    Total Energy =                       -266.9195803636524715
    Molecular point group: c1
  Basis Set: CC-PVTZ
  Basis Set:
  Basis Set: CC-PVTZ
  Basis Set:
  @DF-RHF Final Energy:  -266.75391961156737
    Total Energy =                       -266.7539196115675395
  Basis Set: CC-PVTZ
  Basis Set:
  Basis Set: CC-PVTZ
  Basis Set:
  @DF-RHF Final Energy:  -266.84649716681827
    Total Energy =                       -266.8464971668181533
  Basis Set: CC-PVTZ
  Basis Set:
  Basis Set: CC-PVTZ
  Basis Set:
  @DF-RHF Final Energy:  -266.90615636044998
    Total Energy =                       -266.9061563604497564
  Basis Set: CC-PVTZ
  Basis Set:
  @DF-RHF Final Energy:  -266.91851064628020
    Total Energy =                       -266.9185106462802537
  @DF-RHF Final Energy:  -266.92028213909737
    Total Energy =                       -266.9202821390973099
  @DF-RHF Final Energy:  -266.91960628684802
    Total Energy =                       -266.9196062868479657
  Basis Set: CC-PVTZ
  Basis Set:
  @DF-RHF Final Energy:  -266.92086553499337
    Total Energy =                       -266.9208655349934816
  Basis Set: CC-PVTZ
  Basis Set:
  Basis Set: CC-PVTZ
  Basis Set:
  @DF-RHF Final Energy:  -266.92087721363885
    Total Energy =                       -266.9208772136389598
  Basis Set: CC-PVTZ
  Basis Set:
  Basis Set: CC-PVTZ
  Basis Set:
  @DF-RHF Final Energy:  -266.92088037249187
    Total Energy =                       -266.9208803724919790
  Basis Set: CC-PVTZ
  Basis Set:
  Charge       = 0
  Multiplicity = 1
  Basis Set: CC-PVTZ
  Basis Set:

    Orbital Energies (a.u.)
    -----------------------

    Doubly Occupied:

       1A    -20.580402     2A    -20.547294     3A    -11.372247
       4A    -11.289398     5A    -11.237369     6A     -1.464247
       7A     -1.371570     8A     -1.028986     9A     -0.961772
      10A     -0.779644    11A     -0.697175    12A     -0.686363
      13A     -0.671376    14A     -0.612626    15A     -0.591742
      16A     -0.577564    17A     -0.540916    18A     -0.502423
      19A     -0.461776    20A     -0.444960

  @DF-RHF Final Energy:  -266.92088117277655

   => Energetics <=

    Nuclear Repulsion Energy =            182.7523261078492283
    One-Electron Energy =                -726.5067177442308548
    Two-Electron Energy =                 276.8335104636050801
    DFT Exchange-Correlation Energy =       0.0000000000000000
    Empirical Dispersion Energy =           0.0000000000000000
    PCM Polarization Energy =               0.0000000000000000
    EFP Energy =                            0.0000000000000000
    Total Energy =                       -266.9208811727764896
    Molecular point group: c1
  Basis Set: CC-PVTZ
  Basis Set:

  -Total Gradient:
     Atom            X                  Y                   Z
    ------   -----------------  -----------------  -----------------
       1        0.003697979895     0.000383656026    -0.003003090021
       2       -0.006149619291    -0.002051987536     0.003663812208
       3        0.000049380032     0.000061571454     0.000044217894
       4        0.004007349735     0.004956085097     0.000582040493
       5       -0.000008799339    -0.000018034312     0.000007501407
       6       -0.000024559465    -0.000011276585    -0.000009481478
       7       -0.000049486011    -0.000022610837     0.000011979544
       8       -0.001542118592    -0.003304766326    -0.001347126594
       9        0.000012116802     0.000009739106     0.000019982504
      10        0.000010689991     0.000001935470     0.000041118786
      11       -0.000002933758    -0.000004311558    -0.000010954742

  **** Optimization is complete! (in 11 steps) ****
    Final optimized geometry and variables:
    Molecular point group: c1

    Geometry (in Angstrom), charge = 0, multiplicity = 1:

    O           -0.135582781422     1.445976046501    -0.377673901437
    C           -0.054054770221     0.273705160415    -0.421877828165
    C           -0.698901093613    -0.590305648704    -1.467132787712
    O            0.716605117167    -0.422744864451     0.439513476110
    H            0.074229802568    -1.116499273313    -2.012899790231
    H           -1.286614660703     0.012678261724    -2.140270956455
    H           -1.324459725625    -1.337107488289    -0.992697521983
    C            0.178052236516    -0.658706808693     1.721474267348
    H           -0.049172619157     0.274297669641     2.219727604758
    H            0.928297755587    -1.193539137671     2.280690034804
    H           -0.718247658358    -1.266434532663     1.658838303400

  Mulliken Charges: (a.u.)
   Center  Symbol    Alpha    Beta     Spin     Total
       1     O     4.16981  4.16981  0.00000 -0.33963
       2     C     2.79856  2.79856  0.00000  0.40288
       3     C     3.13870  3.13870  0.00000 -0.27740
       4     O     4.16702  4.16702  0.00000 -0.33405
       5     H     0.44338  0.44338  0.00000  0.11323
       6     H     0.43770  0.43770  0.00000  0.12460
       7     H     0.45071  0.45071  0.00000  0.09858
       8     C     3.02951  3.02951  0.00000 -0.05902
       9     H     0.45218  0.45218  0.00000  0.09564
      10     H     0.44423  0.44423  0.00000  0.11154
      11     H     0.46818  0.46818  0.00000  0.06364

   Total alpha = 20.00000, Total beta = 20.00000, Total charge =  0.00000

*** Psi4 exiting successfully. Buy a developer a beer!
