  ==> Input File <==

--------------------------------------------------------------------------
set {
	reference rhf
	basis 6-31G*
}

set_num_threads( 4 )
memory 2 gb

molecule MOL {
0 1

O	 3.225979	 0.970355	 -0.599647
C	 2.701189	 0.057885	 -0.047330
C	 1.245376	 -0.013843	 0.345420
O	 3.347903	 -1.046386	 0.304773
C	 0.455112	 1.231400	 -0.050772
H	 0.838542	 -0.913825	 -0.103701
H	 1.208210	 -0.175333	 1.419774
C	 -0.998893	 1.219485	 0.433193
H	 0.482531	 1.345121	 -1.130325
H	 0.957290	 2.103070	 0.354729
C	 -1.883438	 0.145884	 -0.207175
H	 -1.431207	 2.195402	 0.224832
H	 -1.019646	 1.105716	 1.516076
C	 -1.353265	 -1.272062	 0.014966
H	 -2.890048	 0.221398	 0.201303
H	 -1.973542	 0.323462	 -1.276437
C	 -2.226424	 -2.352843	 -0.625061
H	 -1.272701	 -1.462678	 1.083802
H	 -0.342618	 -1.345199	 -0.383710
C	 -1.692129	 -3.766158	 -0.395343
H	 -3.236958	 -2.280544	 -0.228530
H	 -2.304573	 -2.166494	 -1.694148
H	 -2.332050	 -4.509516	 -0.860667
H	 -1.634986	 -3.996134	 0.664865
H	 -0.695188	 -3.880914	 -0.811532
C	 4.728119	 -1.109107	 -0.004993
H	 4.882018	 -1.033965	 -1.071845
H	 5.068212	 -2.067527	 0.355250
H	 5.265056	 -0.311663	 0.488280

	symmetry c1
}
set optking {
	frozen_dihedral = ("
		15 11 8 5
	")
}

ee = optimize('scf')
oeprop('DIPOLE', 'QUADRUPOLE', 'MULLIKEN_CHARGES')
f=open( 'psi4out.xyz', 'w' )
f.write( "29  " )
f.write( str(ee) + "\n" )
f.write( MOL.save_string_xyz() )
f.close()
--------------------------------------------------------------------------

    Molecular point group: c1
  Charge       = 0
  Multiplicity = 1
  Basis Set: 6-31G*
  Basis Set:
  @DF-RHF Final Energy:  -501.01500985398536
    Total Energy =                       -501.0150098539857026
    Molecular point group: c1
  Basis Set: 6-31G*
  Basis Set:
  Basis Set: 6-31G*
  Basis Set:
  @DF-RHF Final Energy:  -501.03287424659811
    Total Energy =                       -501.0328742465974301
  Basis Set: 6-31G*
  Basis Set:
  Basis Set: 6-31G*
  Basis Set:
  @DF-RHF Final Energy:  -501.03718917735080
    Total Energy =                       -501.0371891773512516
  Basis Set: 6-31G*
  Basis Set:
  Basis Set: 6-31G*
  Basis Set:
  @DF-RHF Final Energy:  -501.03684159520606
    Total Energy =                       -501.0368415952063970
  Basis Set: 6-31G*
  Basis Set:
  @DF-RHF Final Energy:  -501.03885377802578
    Total Energy =                       -501.0388537780256684
  @DF-RHF Final Energy:  -501.03935229723106
    Total Energy =                       -501.0393522972309484
  @DF-RHF Final Energy:  -501.03941309238348
    Total Energy =                       -501.0394130923841658
  Basis Set: 6-31G*
  Basis Set:
  @DF-RHF Final Energy:  -501.03948553722955
    Total Energy =                       -501.0394855372285292
  Basis Set: 6-31G*
  Basis Set:
  Basis Set: 6-31G*
  Basis Set:
  @DF-RHF Final Energy:  -501.03948821392135
    Total Energy =                       -501.0394882139213451
  Basis Set: 6-31G*
  Basis Set:
  Basis Set: 6-31G*
  Basis Set:
  @DF-RHF Final Energy:  -501.03949079509073
    Total Energy =                       -501.0394907950915240
  Basis Set: 6-31G*
  Basis Set:
  Charge       = 0
  Multiplicity = 1
  Basis Set: 6-31G*
  Basis Set:

    Orbital Energies (a.u.)
    -----------------------

    Doubly Occupied:

       1A    -20.603114     2A    -20.544949     3A    -11.371524
       4A    -11.280496     5A    -11.233979     6A    -11.218928
       7A    -11.217905     8A    -11.216421     9A    -11.215966
      10A    -11.215329    11A    -11.209612    12A     -1.468774
      13A     -1.362210    14A     -1.097121    15A     -1.065137
      16A     -1.019419    17A     -0.976037    18A     -0.930514
      19A     -0.863027    20A     -0.807157    21A     -0.780241
      22A     -0.765504    23A     -0.697742    24A     -0.682459
      25A     -0.671889    26A     -0.649821    27A     -0.628970
      28A     -0.605296    29A     -0.593982    30A     -0.580465
      31A     -0.564473    32A     -0.557061    33A     -0.535092
      34A     -0.527185    35A     -0.520997    36A     -0.504124
      37A     -0.491548    38A     -0.483645    39A     -0.473634
      40A     -0.460277    41A     -0.456928    42A     -0.456079
      43A     -0.438151    44A     -0.434316

  @DF-RHF Final Energy:  -501.03949118771050

   => Energetics <=

    Nuclear Repulsion Energy =            627.3433131518460186
    One-Electron Energy =               -1925.8106091302543064
    Two-Electron Energy =                 797.4278047906975644
    DFT Exchange-Correlation Energy =       0.0000000000000000
    Empirical Dispersion Energy =           0.0000000000000000
    PCM Polarization Energy =               0.0000000000000000
    EFP Energy =                            0.0000000000000000
    Total Energy =                       -501.0394911877108370
    Molecular point group: c1
  Basis Set: 6-31G*
  Basis Set:

  -Total Gradient:
     Atom            X                  Y                   Z
    ------   -----------------  -----------------  -----------------
       1       -0.000004585625    -0.000014729956     0.000022860895
       2       -0.000009449805     0.000036536380     0.000019590124
       3       -0.000007850099    -0.000080168519    -0.000011260391
       4       -0.000017076114    -0.000009938778    -0.000027672789
       5        0.000336915980    -0.000801222041     0.000742996351
       6        0.000017990043     0.000081081529     0.000008774250
       7        0.000006294500     0.000000783288     0.000004666508
       8       -0.000377416469     0.000922321793    -0.000823670698
       9       -0.000005435109    -0.000007982627    -0.000034920634
      10       -0.000018291968    -0.000012702417    -0.000002311879
      11       -0.000390500544     0.000978448293    -0.000900729101
      12        0.000012861287    -0.000012060593    -0.000014660168
      13       -0.000007557029     0.000000220467     0.000013181222
      14        0.000001406908    -0.000020998980    -0.000028263287
      15        0.000447671456    -0.001068570903     0.001008294804
      16        0.000003637682    -0.000006730177     0.000009796369
      17        0.000012639911     0.000003021024    -0.000000686127
      18       -0.000000674017     0.000004208323    -0.000014009527
      19       -0.000006313360    -0.000000817927     0.000016465279
      20       -0.000003645762     0.000002067733     0.000008460849
      21       -0.000005406523    -0.000001100728    -0.000005408699
      22        0.000011104444     0.000000802451     0.000005433683
      23       -0.000002610200    -0.000003609276     0.000003247144
      24        0.000004202333     0.000002617069    -0.000001277862
      25       -0.000006684130     0.000005313147    -0.000001235690
      26        0.000006533016     0.000005398667     0.000004942731
      27       -0.000000222369    -0.000001237992    -0.000001005728
      28        0.000000566147    -0.000000417298    -0.000001298452
      29        0.000001895418    -0.000000531955    -0.000000299178

  **** Optimization is complete! (in 11 steps) ****
    Final optimized geometry and variables:
    Molecular point group: c1

    Geometry (in Angstrom), charge = 0, multiplicity = 1:

    O            2.461274471471     1.329345957267    -0.898765182157
    C            2.135247788628     0.687537208659     0.047342474815
    C            0.757373653959     0.665220247788     0.663477048564
    O            2.966547041463    -0.114010425760     0.701724464654
    C           -0.236709860745     1.575454033621    -0.056671306052
    H            0.430293138373    -0.367881653438     0.684821748833
    H            0.865901867519     0.960639171554     1.703625174819
    C           -1.648295887673     1.574523887807     0.561089394457
    H           -0.286250086298     1.301475446041    -1.105865163912
    H            0.163163504762     2.583181188052    -0.037032887377
    C           -2.656179211314     0.597308927561    -0.060383089363
    H           -2.066841574931     2.572349354804     0.465728113128
    H           -1.578006291649     1.385248288908     1.631064954224
    C           -2.265296065619    -0.882654693778    -0.033192499079
    H           -3.598456400455     0.707547136942     0.472631348900
    H           -2.847447264774     0.893872746563    -1.089918007225
    C           -3.374375157107    -1.796085588995    -0.560139102591
    H           -2.016701381477    -1.175543242497     0.986009352391
    H           -1.369740348648    -1.042995869577    -0.628689073596
    C           -2.987567367797    -3.274527988667    -0.548156749998
    H           -4.272210063163    -1.653262756132     0.037253159616
    H           -3.632614421145    -1.498999898608    -1.574338703685
    H           -3.794777446366    -3.895498549377    -0.924120983453
    H           -2.753286105785    -3.610559895017     0.458106371283
    H           -2.114358349986    -3.456748253148    -1.168287914605
    C            4.298533926241    -0.184566079400     0.226745035060
    H            4.320413315492    -0.545051644029    -0.791640941756
    H            4.808321743951    -0.876249977386     0.879194008026
    H            4.769438114055     0.787009854313     0.269675627443

  Mulliken Charges: (a.u.)
   Center  Symbol    Alpha    Beta     Spin     Total
       1     O     4.28618  4.28618  0.00000 -0.57237
       2     C     2.60607  2.60607  0.00000  0.78785
       3     C     3.20997  3.20997  0.00000 -0.41994
       4     O     4.30738  4.30738  0.00000 -0.61477
       5     C     3.15742  3.15742  0.00000 -0.31483
       6     H     0.39701  0.39701  0.00000  0.20597
       7     H     0.40091  0.40091  0.00000  0.19818
       8     C     3.15867  3.15867  0.00000 -0.31733
       9     H     0.41024  0.41024  0.00000  0.17952
      10     H     0.40964  0.40964  0.00000  0.18073
      11     C     3.15158  3.15158  0.00000 -0.30316
      12     H     0.41663  0.41663  0.00000  0.16674
      13     H     0.42376  0.42376  0.00000  0.15247
      14     C     3.15507  3.15507  0.00000 -0.31014
      15     H     0.42217  0.42217  0.00000  0.15566
      16     H     0.42198  0.42198  0.00000  0.15604
      17     C     3.15090  3.15090  0.00000 -0.30180
      18     H     0.42514  0.42514  0.00000  0.14973
      19     H     0.42307  0.42307  0.00000  0.15385
      20     C     3.23943  3.23943  0.00000 -0.47885
      21     H     0.42275  0.42275  0.00000  0.15451
      22     H     0.42219  0.42219  0.00000  0.15562
      23     H     0.41889  0.41889  0.00000  0.16223
      24     H     0.42200  0.42200  0.00000  0.15601
      25     H     0.42173  0.42173  0.00000  0.15654
      26     C     3.09233  3.09233  0.00000 -0.18467
      27     H     0.40919  0.40919  0.00000  0.18163
      28     H     0.40854  0.40854  0.00000  0.18292
      29     H     0.40917  0.40917  0.00000  0.18166

   Total alpha = 44.00000, Total beta = 44.00000, Total charge =  0.00000
