  ==> Input File <==

--------------------------------------------------------------------------
set {
	reference rhf
	basis 6-31G*
}

set_num_threads( 4 )
memory 2 gb

molecule MOL {
0 1

H	 -3.420663	 1.227371	 -1.044276
O	 -3.452007	 0.283848	 -0.965577
C	 -3.181085	 -0.079926	 0.364119
C	 -1.765924	 0.277073	 0.805136
H	 -3.327791	 -1.152017	 0.410903
H	 -3.905698	 0.375695	 1.036898
C	 -0.677594	 -0.417312	 -0.014550
H	 -1.637766	 1.358238	 0.744969
H	 -1.659588	 0.017670	 1.857098
C	 0.738335	 -0.034840	 0.421385
H	 -0.814977	 -0.178223	 -1.064632
H	 -0.802730	 -1.495410	 0.071702
C	 1.822265	 -0.738362	 -0.399735
H	 0.853533	 1.043532	 0.342250
H	 0.871597	 -0.279636	 1.474438
C	 3.258060	 -0.455774	 0.057203
H	 1.718003	 -0.459167	 -1.447053
H	 1.651028	 -1.811884	 -0.354513
C	 4.235896	 -1.610612	 -0.167715
H	 3.240860	 -0.215873	 1.117600
H	 3.627772	 0.434105	 -0.448397
H	 3.885447	 -2.518262	 0.316534
H	 5.212701	 -1.374204	 0.243140
H	 4.371387	 -1.829134	 -1.221780

	symmetry c1
}
set optking {
	frozen_dihedral = ("
		20 16 13 17
	")
}

ee = optimize('scf')
oeprop('DIPOLE', 'QUADRUPOLE', 'MULLIKEN_CHARGES')
f=open( 'psi4out.xyz', 'w' )
f.write( "24  " )
f.write( str(ee) + "\n" )
f.write( MOL.save_string_xyz() )
f.close()
--------------------------------------------------------------------------

    Molecular point group: c1
  Charge       = 0
  Multiplicity = 1
  Basis Set: 6-31G*
  Basis Set:
  @DF-RHF Final Energy:  -349.24580187493473
    Total Energy =                       -349.2458018749345001
    Molecular point group: c1
  Basis Set: 6-31G*
  Basis Set:
  Basis Set: 6-31G*
  Basis Set:
  @DF-RHF Final Energy:  -349.24658774844971
    Total Energy =                       -349.2465877484490875
  Basis Set: 6-31G*
  Basis Set:
  Basis Set: 6-31G*
  Basis Set:
  @DF-RHF Final Energy:  -349.24664208384070
    Total Energy =                       -349.2466420838405838
  Basis Set: 6-31G*
  Basis Set:
  Basis Set: 6-31G*
  Basis Set:
  @DF-RHF Final Energy:  -349.24664909703051
    Total Energy =                       -349.2466490970302857
  Basis Set: 6-31G*
  Basis Set:
  Basis Set: 6-31G*
  Basis Set:
  @DF-RHF Final Energy:  -349.24665134436395
    Total Energy =                       -349.2466513443641816
  Basis Set: 6-31G*
  Basis Set:
  Charge       = 0
  Multiplicity = 1
  Basis Set: 6-31G*
  Basis Set:

    Orbital Energies (a.u.)
    -----------------------

    Doubly Occupied:

       1A    -20.553581     2A    -11.267692     3A    -11.217458
       4A    -11.213490     5A    -11.212776     6A    -11.211303
       7A    -11.210965     8A    -11.207651     9A     -1.360173
      10A     -1.088034    11A     -1.048356    12A     -0.988024
      13A     -0.913808    14A     -0.842120    15A     -0.797559
      16A     -0.788107    17A     -0.678860    18A     -0.656602
      19A     -0.629141    20A     -0.614087    21A     -0.591288
      22A     -0.586650    23A     -0.551700    24A     -0.539207
      25A     -0.529252    26A     -0.501811    27A     -0.495809
      28A     -0.473090    29A     -0.465789    30A     -0.459327
      31A     -0.455714    32A     -0.455460    33A     -0.418087

  @DF-RHF Final Energy:  -349.24665154503595

   => Energetics <=

    Nuclear Repulsion Energy =            380.5279152020744391
    One-Electron Energy =               -1227.5031936574087013
    Two-Electron Energy =                 497.7286269102984875
    DFT Exchange-Correlation Energy =       0.0000000000000000
    Empirical Dispersion Energy =           0.0000000000000000
    PCM Polarization Energy =               0.0000000000000000
    EFP Energy =                            0.0000000000000000
    Total Energy =                       -349.2466515450358315
    Molecular point group: c1
  Basis Set: 6-31G*
  Basis Set:

  -Total Gradient:
     Atom            X                  Y                   Z
    ------   -----------------  -----------------  -----------------
       1       -0.000000493971     0.000000768243    -0.000000081384
       2       -0.000003730342     0.000004180659     0.000003670465
       3       -0.000000760976    -0.000010980418     0.000000082587
       4        0.000005172180     0.000005083979    -0.000001509582
       5       -0.000001647031    -0.000001963346    -0.000001353386
       6        0.000001379382    -0.000001722866    -0.000000528860
       7        0.000005880026     0.000003388497    -0.000004189349
       8       -0.000002565074     0.000001891374    -0.000004188274
       9        0.000001797448     0.000005285555    -0.000000044502
      10       -0.000020821432     0.000002050165    -0.000017171613
      11        0.000003365016     0.000002028932     0.000000581501
      12       -0.000006897982    -0.000000541867     0.000003746865
      13        0.001496121477    -0.003846647670    -0.001566502133
      14       -0.000014317807     0.000001042342    -0.000004528881
      15        0.000030642334    -0.000005985910    -0.000007153586
      16        0.000714254433    -0.004144604648     0.001594000919
      17       -0.001406204963     0.003894923555     0.001080893810
      18       -0.000015073926    -0.000000892386    -0.000013281161
      19        0.000004090622     0.000030141574    -0.000008603606
      20       -0.000805715645     0.004072520687    -0.001052239229
      21        0.000016409590    -0.000010457544     0.000001345384
      22       -0.000007965184     0.000011289710     0.000004005087
      23        0.000002440332    -0.000008464475    -0.000002399028
      24        0.000004641503    -0.000002334146    -0.000004552042

  **** Optimization is complete! (in 6 steps) ****
    Final optimized geometry and variables:
    Molecular point group: c1

    Geometry (in Angstrom), charge = 0, multiplicity = 1:

    H           -3.425505283179     1.647671945323    -1.051637533038
    O           -3.490734149644     0.704583342023    -0.991033389396
    C           -3.257153162386     0.307984658462     0.336391898969
    C           -1.838671687612     0.606974788795     0.808790900370
    H           -3.441949521296    -0.758860078852     0.360773162341
    H           -3.977646743216     0.776750551754     1.004474351134
    C           -0.760369361815    -0.110315913376    -0.004463732717
    H           -1.671725319960     1.683839859957     0.770783701158
    H           -1.760578253470     0.325300248965     1.857479133909
    C            0.659372483563     0.217418679667     0.460158408128
    H           -0.872780794671     0.149230383220    -1.052591920732
    H           -0.922251140011    -1.185047161030     0.062594371822
    C            1.741098120151    -0.514122013436    -0.339880925376
    H            0.824192307287     1.291668679441     0.385737259843
    H            0.763468058440    -0.032743345835     1.514772652889
    C            3.166109792099    -0.120476503652     0.079771284759
    H            1.598231840206    -0.275970275921    -1.391554808155
    H            1.600753688802    -1.587414673678    -0.232499997380
    C            4.206914612317    -1.203154386609    -0.196517448783
    H            3.177242554354     0.155539225297     1.131847466616
    H            3.448129514735     0.787292711010    -0.449736745933
    H            3.993804482901    -2.104431203725     0.371234928624
    H            5.204927379171    -0.870034899811     0.071371558321
    H            4.219541863868    -1.472751601064    -1.249021826121

  Mulliken Charges: (a.u.)
   Center  Symbol    Alpha    Beta     Spin     Total
       1     H     0.28339  0.28339  0.00000  0.43322
       2     O     4.36831  4.36831  0.00000 -0.73662
       3     C     2.99616  2.99616  0.00000  0.00769
       4     C     3.16900  3.16900  0.00000 -0.33800
       5     H     0.41633  0.41633  0.00000  0.16735
       6     H     0.42815  0.42815  0.00000  0.14370
       7     C     3.15233  3.15233  0.00000 -0.30466
       8     H     0.42824  0.42824  0.00000  0.14352
       9     H     0.42235  0.42235  0.00000  0.15531
      10     C     3.15351  3.15351  0.00000 -0.30701
      11     H     0.41215  0.41215  0.00000  0.17571
      12     H     0.42358  0.42358  0.00000  0.15285
      13     C     3.15148  3.15148  0.00000 -0.30296
      14     H     0.42511  0.42511  0.00000  0.14978
      15     H     0.42481  0.42481  0.00000  0.15039
      16     C     3.15317  3.15317  0.00000 -0.30634
      17     H     0.42179  0.42179  0.00000  0.15643
      18     H     0.42260  0.42260  0.00000  0.15480
      19     C     3.23921  3.23921  0.00000 -0.47843
      20     H     0.42251  0.42251  0.00000  0.15498
      21     H     0.42248  0.42248  0.00000  0.15504
      22     H     0.42182  0.42182  0.00000  0.15635
      23     H     0.42024  0.42024  0.00000  0.15951
      24     H     0.42129  0.42129  0.00000  0.15741

   Total alpha = 33.00000, Total beta = 33.00000, Total charge =  0.00000
