                              Psi4 1.0.54 Driver

  ==> Input File <==

--------------------------------------------------------------------------
set {
	reference rhf
	basis cc-pvtz
}

set_num_threads( 4 )
memory 2 gb

molecule MOL {
0 1

H	 -3.436473	 1.252944	 -1.023892
O	 -3.458596	 0.315260	 -0.960865
C	 -3.176635	 -0.080824	 0.355601
C	 -1.763371	 0.265266	 0.799691
H	 -3.321825	 -1.153438	 0.379502
H	 -3.895468	 0.357385	 1.043382
C	 -0.744645	 0.278295	 -0.336245
H	 -1.775829	 1.235873	 1.293282
H	 -1.461385	 -0.455256	 1.556025
C	 0.660833	 0.659513	 0.121221
H	 -1.076151	 0.966663	 -1.105768
H	 -0.718415	 -0.705547	 -0.798707
C	 1.676574	 0.665761	 -1.019515
H	 0.624989	 1.637652	 0.591167
H	 0.991653	 -0.036174	 0.889619
C	 3.116497	 0.963406	 -0.597758
H	 1.367380	 1.388907	 -1.770719
H	 1.655076	 -0.304533	 -1.508071
C	 3.347141	 2.376348	 -0.067151
H	 3.764436	 0.804348	 -1.454292
H	 3.426411	 0.241643	 0.153529
H	 3.040406	 3.120334	 -0.795487
H	 4.397075	 2.539567	 0.147885
H	 2.795957	 2.561742	 0.846868

	symmetry c1
}
set optking {
	frozen_dihedral = ("
		7 4 3 2
	")
}

ee,wfn = optimize('scf', return_wfn=True)
oeprop( wfn, 'DIPOLE', 'QUADRUPOLE', 'MULLIKEN_CHARGES')
f=open( 'psi4out.xyz', 'w' )
f.write( "24  " )
f.write( str(ee) + "\n" )
f.write( MOL.save_string_xyz() )
f.close()
--------------------------------------------------------------------------

    Molecular point group: c1
  Charge       = 0
  Multiplicity = 1
  Basis Set: CC-PVTZ
  Basis Set:
  @DF-RHF Final Energy:  -349.37540307245916
    Total Energy =                       -349.3754030724589938
    Molecular point group: c1
  Basis Set: CC-PVTZ
  Basis Set:
  Basis Set: CC-PVTZ
  Basis Set:
  @DF-RHF Final Energy:  -349.37589019550404
    Total Energy =                       -349.3758901955039846
  Basis Set: CC-PVTZ
  Basis Set:
  Basis Set: CC-PVTZ
  Basis Set:
  @DF-RHF Final Energy:  -349.37618927393817
    Total Energy =                       -349.3761892739381096
  Basis Set: CC-PVTZ
  Basis Set:
  Basis Set: CC-PVTZ
  Basis Set:
  @DF-RHF Final Energy:  -349.37619645132906
    Total Energy =                       -349.3761964513290650
  Basis Set: CC-PVTZ
  Basis Set:
  Basis Set: CC-PVTZ
  Basis Set:
  @DF-RHF Final Energy:  -349.37619816417140
    Total Energy =                       -349.3761981641712282
  Basis Set: CC-PVTZ
  Basis Set:
  Charge       = 0
  Multiplicity = 1
  Basis Set: CC-PVTZ
  Basis Set:

    Orbital Energies (a.u.)
    -----------------------

    Doubly Occupied:

       1A    -20.546919     2A    -11.265721     3A    -11.213987
       4A    -11.211900     5A    -11.209789     6A    -11.209303
       7A    -11.208908     8A    -11.205259     9A     -1.364364
      10A     -1.088951    11A     -1.047527    12A     -0.985681
      13A     -0.917309    14A     -0.851913    15A     -0.797002
      16A     -0.776554    17A     -0.685904    18A     -0.652763
      19A     -0.627315    20A     -0.616807    21A     -0.599328
      22A     -0.587057    23A     -0.555083    24A     -0.545442
      25A     -0.513726    26A     -0.508584    27A     -0.500415
      28A     -0.475009    29A     -0.461815    30A     -0.459893
      31A     -0.455180    32A     -0.449586    33A     -0.423183

  @DF-RHF Final Energy:  -349.37619830965622

   => Energetics <=

    Nuclear Repulsion Energy =            385.6058213392839775
    One-Electron Energy =               -1237.9276852021685045
    Two-Electron Energy =                 502.9456655532285936
    DFT Exchange-Correlation Energy =       0.0000000000000000
    Empirical Dispersion Energy =           0.0000000000000000
    PCM Polarization Energy =               0.0000000000000000
    EFP Energy =                            0.0000000000000000
    Total Energy =                       -349.3761983096559902
    Molecular point group: c1
  Basis Set: CC-PVTZ
  Basis Set:

  -Total Gradient:
     Atom            X                  Y                   Z
    ------   -----------------  -----------------  -----------------
       1        0.000005244560    -0.000010503039     0.000004640734
       2        0.001630091134    -0.004552998173    -0.001259819455
       3       -0.002559333562     0.008128262940     0.001288047416
       4        0.001841759461    -0.007989423584     0.001094569393
       5        0.000002332929     0.000013113121     0.000028238096
       6        0.000005724839     0.000016719045    -0.000023641454
       7       -0.000917068934     0.004413675480    -0.001135350717
       8       -0.000013466573     0.000000813213     0.000007457887
       9       -0.000001845048    -0.000002971839    -0.000008262589
      10        0.000015931172    -0.000040294029    -0.000002017493
      11       -0.000032592475     0.000005076203     0.000000166820
      12        0.000023142913     0.000014747187     0.000010489588
      13        0.000011940793     0.000033351085     0.000002097582
      14       -0.000029884377    -0.000027496120    -0.000029945780
      15        0.000004486050    -0.000003742490     0.000019717891
      16       -0.000016688737    -0.000013833638     0.000034597127
      17       -0.000007300905     0.000014812753     0.000000462927
      18        0.000008941509    -0.000001328628    -0.000011156207
      19        0.000012084577     0.000009304162    -0.000013276529
      20        0.000001762591    -0.000011787493    -0.000004776377
      21       -0.000005025454    -0.000002459062     0.000013622673
      22       -0.000005514707     0.000011345908    -0.000000894489
      23        0.000003851411     0.000001732279    -0.000010863292
      24        0.000021426831    -0.000006115281    -0.000004103752

  **** Optimization is complete! (in 6 steps) ****
    Final optimized geometry and variables:
    Molecular point group: c1

    Geometry (in Angstrom), charge = 0, multiplicity = 1:

    H           -3.504586014255     0.534983103988    -0.877278793748
    O           -3.437828492449    -0.390950216205    -0.729533878831
    C           -3.105627308735    -0.649671208361     0.608341600916
    C           -1.676144932683    -0.257602022589     1.000582396854
    H           -3.225205193999    -1.719868572425     0.718262395920
    H           -3.817372565727    -0.179794593872     1.280699093285
    C           -0.654732644577    -0.340758428383    -0.131110412234
    H           -1.674136958140     0.761315155418     1.383479557316
    H           -1.370994328305    -0.887805034649     1.830519605976
    C            0.765170540379    -0.028480695136     0.335233930182
    H           -0.933312932177     0.346488663946    -0.921378699887
    H           -0.680485017063    -1.331715350745    -0.575975056681
    C            1.788019548741    -0.081260477553    -0.798051627974
    H            0.776908645420     0.952845115853     0.800029478278
    H            1.054295717395    -0.735841705223     1.109473734080
    C            3.239026297679     0.138726459369    -0.366571569237
    H            1.524729153492     0.655349041509    -1.553880611230
    H            1.716956599541    -1.050383638336    -1.284042089995
    C            3.543531299474     1.539364372955     0.159495786203
    H            3.883572430778    -0.060035078801    -1.217379341988
    H            3.503046584461    -0.595412758466     0.390211464983
    H            3.281226386656     2.295870772165    -0.573367383682
    H            4.599731874787     1.646376035744     0.379127806721
    H            2.998842543941     1.758320926737     1.069964630504

  Mulliken Charges: (a.u.)
   Center  Symbol    Alpha    Beta     Spin     Total
       1     H     0.39560  0.39560  0.00000  0.20879
       2     O     4.20124  4.20124  0.00000 -0.40248
       3     C     2.97906  2.97906  0.00000  0.04187
       4     C     3.11724  3.11724  0.00000 -0.23449
       5     H     0.45573  0.45573  0.00000  0.08854
       6     H     0.46002  0.46002  0.00000  0.07997
       7     C     3.07536  3.07536  0.00000 -0.15072
       8     H     0.45516  0.45516  0.00000  0.08968
       9     H     0.45229  0.45229  0.00000  0.09542
      10     C     3.09199  3.09199  0.00000 -0.18399
      11     H     0.45529  0.45529  0.00000  0.08942
      12     H     0.45123  0.45123  0.00000  0.09754
      13     C     3.09440  3.09440  0.00000 -0.18880
      14     H     0.45411  0.45411  0.00000  0.09177
      15     H     0.45524  0.45524  0.00000  0.08952
      16     C     3.09025  3.09025  0.00000 -0.18050
      17     H     0.45455  0.45455  0.00000  0.09091
      18     H     0.44916  0.44916  0.00000  0.10169
      19     C     3.15253  3.15253  0.00000 -0.30506
      20     H     0.44862  0.44862  0.00000  0.10277
      21     H     0.45506  0.45506  0.00000  0.08987
      22     H     0.45525  0.45525  0.00000  0.08950
      23     H     0.44659  0.44659  0.00000  0.10683
      24     H     0.45402  0.45402  0.00000  0.09195

   Total alpha = 33.00000, Total beta = 33.00000, Total charge =  0.00000

*** Psi4 exiting successfully. Buy a developer a beer!
