                              Psi4 1.0.54 Driver

  ==> Input File <==

--------------------------------------------------------------------------
set {
	reference rhf
	basis cc-pvtz
}

set_num_threads( 4 )
memory 2 gb

molecule MOL {
0 1

H	 -1.752232	 -2.214755	 -0.011938
C	 -1.343852	 -1.221619	 -0.018179
N	 -0.058800	 -1.097635	 -0.261688
C	 -2.148159	 -0.124236	 0.219734
C	 0.449026	 0.119242	 -0.273393
H	 -3.196988	 -0.237571	 0.417076
N	 -1.655094	 1.094230	 0.209506
C	 -0.370318	 1.215445	 -0.035100
C	 1.924033	 0.265863	 -0.538106
H	 0.033214	 2.210441	 -0.046812
C	 2.341365	 -0.318661	 -1.888519
H	 2.168578	 1.320978	 -0.511794
H	 2.481415	 -0.213305	 0.258097
H	 3.400346	 -0.164098	 -2.057645
H	 1.795356	 0.155084	 -2.693763
H	 2.146639	 -1.384474	 -1.929397

	symmetry c1
}
set optking {
	frozen_dihedral = ("
		12 9 5 3
	")
}

ee,wfn = optimize('scf', return_wfn=True)
oeprop( wfn, 'DIPOLE', 'QUADRUPOLE', 'MULLIKEN_CHARGES')
f=open( 'psi4out.xyz', 'w' )
f.write( "16  " )
f.write( str(ee) + "\n" )
f.write( MOL.save_string_xyz() )
f.close()
--------------------------------------------------------------------------

    Molecular point group: c1
  Charge       = 0
  Multiplicity = 1
  Basis Set: CC-PVTZ
  Basis Set:
  @DF-RHF Final Energy:  -340.87206412222167
    Total Energy =                       -340.8720641222216727
    Molecular point group: c1
  Basis Set: CC-PVTZ
  Basis Set:
  Basis Set: CC-PVTZ
  Basis Set:
  @DF-RHF Final Energy:  -340.87211999566040
    Total Energy =                       -340.8721199956605119
  Basis Set: CC-PVTZ
  Basis Set:
  Basis Set: CC-PVTZ
  Basis Set:
  @DF-RHF Final Energy:  -340.87219511369983
    Total Energy =                       -340.8721951137001156
  Basis Set: CC-PVTZ
  Basis Set:
  Basis Set: CC-PVTZ
  Basis Set:
  @DF-RHF Final Energy:  -340.87219902340695
    Total Energy =                       -340.8721990234068926
  Basis Set: CC-PVTZ
  Basis Set:
  Charge       = 0
  Multiplicity = 1
  Basis Set: CC-PVTZ
  Basis Set:

    Orbital Energies (a.u.)
    -----------------------

    Doubly Occupied:

       1A    -15.580715     2A    -15.576092     3A    -11.278499
       4A    -11.273037     5A    -11.268243     6A    -11.268211
       7A    -11.231938     8A    -11.214509     9A     -1.316343
      10A     -1.224377    11A     -1.085818    12A     -1.015031
      13A     -0.908266    14A     -0.894048    15A     -0.828366
      16A     -0.719894    17A     -0.712194    18A     -0.659864
      19A     -0.618417    20A     -0.603640    21A     -0.580078
      22A     -0.562451    23A     -0.523543    24A     -0.505854
      25A     -0.500909    26A     -0.489775    27A     -0.433269
      28A     -0.397673    29A     -0.347111

  @DF-RHF Final Energy:  -340.87220012184298

   => Energetics <=

    Nuclear Repulsion Energy =            350.5726696427611842
    One-Electron Energy =               -1155.6534057226278946
    Two-Electron Energy =                 464.2085359580239015
    DFT Exchange-Correlation Energy =       0.0000000000000000
    Empirical Dispersion Energy =           0.0000000000000000
    PCM Polarization Energy =               0.0000000000000000
    EFP Energy =                            0.0000000000000000
    Total Energy =                       -340.8722001218428090
    Molecular point group: c1
  Basis Set: CC-PVTZ
  Basis Set:

  -Total Gradient:
     Atom            X                  Y                   Z
    ------   -----------------  -----------------  -----------------
       1       -0.000010577316    -0.000000030680    -0.000023516089
       2        0.000003780042    -0.000011636358     0.000048996057
       3       -0.000141096266     0.000054337122    -0.000715100945
       4        0.000001534247    -0.000002766009     0.000035095515
       5        0.000167685045    -0.000035341297     0.000831356103
       6       -0.000006330533    -0.000003024944    -0.000029528163
       7       -0.000001950902    -0.000008688010     0.000023907244
       8        0.000005906728     0.000011325828    -0.000083016790
       9        0.000142116596    -0.000039549123     0.000676903567
      10        0.000005302692    -0.000003485771     0.000012435445
      11        0.000003276957    -0.000011359869    -0.000010858662
      12       -0.000168792776     0.000052584471    -0.000772636356
      13        0.000003732386    -0.000000744392    -0.000014800973
      14       -0.000022357968    -0.000004553593     0.000001848356
      15        0.000013210292    -0.000009223054     0.000028924277
      16        0.000004560777     0.000012155683    -0.000010008587

  **** Optimization is complete! (in 5 steps) ****
    Final optimized geometry and variables:
    Molecular point group: c1

    Geometry (in Angstrom), charge = 0, multiplicity = 1:

    H           -1.677668351238    -2.209994760473     0.350291117511
    C           -1.274857295921    -1.214658760265     0.340090006360
    N            0.007557524397    -1.083985021817     0.087483992054
    C           -2.083108291419    -0.121734524800     0.584114043863
    C            0.510215451271     0.134930489828     0.074927635347
    H           -3.129871957395    -0.240426140345     0.788828362279
    N           -1.595925426309     1.098901771601     0.572058495606
    C           -0.313211890672     1.226474665248     0.319606969985
    C            1.980942786377     0.294622944077    -0.211454458071
    H            0.085591138912     2.223202189862     0.309216807742
    C            2.398233733443    -0.302061170758    -1.555329071959
    H            2.234748374915     1.347590477217    -0.185720542451
    H            2.537640026463    -0.187535653671     0.584819251672
    H            3.464410136527    -0.182242726711    -1.706136181884
    H            1.885886360629     0.189570405378    -2.374605150771
    H            2.163532986235    -1.356668698086    -1.595814441512

  Mulliken Charges: (a.u.)
   Center  Symbol    Alpha    Beta     Spin     Total
       1     H     0.41406  0.41406  0.00000  0.17187
       2     C     3.04275  3.04275  0.00000 -0.08551
       3     N     3.59585  3.59585  0.00000 -0.19170
       4     C     3.04781  3.04781  0.00000 -0.09561
       5     C     2.93997  2.93997  0.00000  0.12007
       6     H     0.41367  0.41367  0.00000  0.17266
       7     N     3.58658  3.58658  0.00000 -0.17317
       8     C     3.07863  3.07863  0.00000 -0.15725
       9     C     3.07519  3.07519  0.00000 -0.15039
      10     H     0.41611  0.41611  0.00000  0.16778
      11     C     3.14485  3.14485  0.00000 -0.28970
      12     H     0.44964  0.44964  0.00000  0.10072
      13     H     0.44676  0.44676  0.00000  0.10648
      14     H     0.45001  0.45001  0.00000  0.09997
      15     H     0.45428  0.45428  0.00000  0.09144
      16     H     0.44384  0.44384  0.00000  0.11233

   Total alpha = 29.00000, Total beta = 29.00000, Total charge =  0.00000

*** Psi4 exiting successfully. Buy a developer a beer!
