  ==> Input File <==

--------------------------------------------------------------------------
set {
	reference rhf
	basis cc-pvtz
}

set_num_threads( 4 )
memory 2 gb

molecule MOL {
0 1

H	 -2.428577	 -1.776285	 -0.397070
C	 -1.660469	 -1.051328	 -0.228596
C	 -1.962656	 0.331640	 -0.015909
C	 -0.375269	 -1.413201	 -0.210134
H	 -2.986571	 0.655177	 -0.024777
C	 -0.983332	 1.217140	 0.192394
H	 -0.070135	 -2.429643	 -0.361393
N	 0.640204	 -0.530428	 -0.000115
H	 -1.172050	 2.258263	 0.354901
C	 0.416783	 0.818987	 0.211999
C	 2.006991	 -1.033007	 -0.000020
O	 1.323979	 1.584133	 0.395818
H	 2.182444	 -1.636914	 -0.880881
H	 2.678769	 -0.195442	 -0.002236
H	 2.183828	 -1.633244	 0.883082

	symmetry c1
}
set optking {
	frozen_dihedral = ("
		10 8 11 13
	")
}

ee = optimize('scf')
oeprop('DIPOLE', 'QUADRUPOLE', 'MULLIKEN_CHARGES')
f=open( 'psi4out.xyz', 'w' )
f.write( "15  " )
f.write( str(ee) + "\n" )
f.write( MOL.save_string_xyz() )
f.close()
--------------------------------------------------------------------------

    Molecular point group: c1
  Charge       = 0
  Multiplicity = 1
  Basis Set: CC-PVTZ
  Basis Set:
  @DF-RHF Final Energy:  -360.72256211861350
    Total Energy =                       -360.7225621186133253
    Molecular point group: c1
  Basis Set: CC-PVTZ
  Basis Set:
  Basis Set: CC-PVTZ
  Basis Set:
  @DF-RHF Final Energy:  -360.72257941915433
    Total Energy =                       -360.7225794191543855
  Basis Set: CC-PVTZ
  Basis Set:
  Basis Set: CC-PVTZ
  Basis Set:
  @DF-RHF Final Energy:  -360.72257252098689
    Total Energy =                       -360.7225725209868301
  Basis Set: CC-PVTZ
  Basis Set:
  Charge       = 0
  Multiplicity = 1
  Basis Set: CC-PVTZ
  Basis Set:

    Orbital Energies (a.u.)
    -----------------------

    Doubly Occupied:

       1A    -20.501782     2A    -15.616490     3A    -11.339558
       4A    -11.293214     5A    -11.263514     6A    -11.258209
       7A    -11.230681     8A    -11.228372     9A     -1.390547
      10A     -1.285760    11A     -1.118800    12A     -1.028873
      13A     -0.972298    14A     -0.875737    15A     -0.838571
      16A     -0.719111    17A     -0.703076    18A     -0.663384
      19A     -0.652772    20A     -0.625210    21A     -0.611929
      22A     -0.573891    23A     -0.558167    24A     -0.550443
      25A     -0.529334    26A     -0.482820    27A     -0.420145
      28A     -0.410816    29A     -0.311005

  @DF-RHF Final Energy:  -360.72258443878241

   => Energetics <=

    Nuclear Repulsion Energy =            358.4524134147234236
    One-Electron Energy =               -1200.2409800244167855
    Two-Electron Energy =                 481.0659821709107860
    DFT Exchange-Correlation Energy =       0.0000000000000000
    Empirical Dispersion Energy =           0.0000000000000000
    PCM Polarization Energy =               0.0000000000000000
    EFP Energy =                            0.0000000000000000
    Total Energy =                       -360.7225844387825759
    Molecular point group: c1
  Basis Set: CC-PVTZ
  Basis Set:

  -Total Gradient:
     Atom            X                  Y                   Z
    ------   -----------------  -----------------  -----------------
       1        0.000002000868     0.000002847824    -0.000013489285
       2        0.000007939861    -0.000004044302     0.000011409053
       3        0.000002330417     0.000007564052     0.000000660120
       4       -0.000011552068    -0.000027186532     0.000002584329
       5        0.000002585111     0.000004571406    -0.000001355287
       6        0.000005706950     0.000005149905     0.000008079284
       7       -0.000001376616     0.000004832184    -0.000003339124
       8       -0.000040745212     0.000019995055     0.000325551986
       9       -0.000006226452     0.000003657999     0.000008939124
      10        0.000014323285    -0.000016546865    -0.000292842578
      11       -0.000078957671    -0.000293270628     0.000121761803
      12        0.000013808389     0.000045561530     0.000004107256
      13        0.000078361855     0.000260422592    -0.000158726263
      14       -0.000005943477    -0.000008196592    -0.000006687164
      15        0.000017744766    -0.000005357623    -0.000006653254

  **** Optimization is complete! (in 4 steps) ****
    Final optimized geometry and variables:
    Molecular point group: c1

    Geometry (in Angstrom), charge = 0, multiplicity = 1:

    H           -2.428577842888    -1.772004220642    -0.440099194009
    C           -1.659955383076    -1.047020586367    -0.274038854293
    C           -1.961219164244     0.336835267358    -0.065007017618
    C           -0.374778922679    -1.409435119558    -0.258900317992
    H           -2.984953586356     0.660963231198    -0.073867910483
    C           -0.981194426535     1.222385589467     0.139439062092
    H           -0.070737561579    -2.426197026290    -0.409735063878
    N            0.641497738451    -0.526176023343    -0.055176923693
    H           -1.168902416526     2.264064346472     0.300081426561
    C            0.418432503820     0.822310902769     0.162789024022
    C            2.008831115139    -1.026867967734    -0.048706139393
    O            1.326211497872     1.584468336037     0.355153866526
    H            2.184112833124    -1.624412000592    -0.933108234855
    H            2.680121855224    -0.188615343596    -0.044029819357
    H            2.188838821748    -1.630739762820     0.831857168029

  Mulliken Charges: (a.u.)
   Center  Symbol    Alpha    Beta     Spin     Total
       1     H     0.41409  0.41409  0.00000  0.17183
       2     C     3.10221  3.10221  0.00000 -0.20442
       3     C     3.06191  3.06191  0.00000 -0.12382
       4     C     3.03297  3.03297  0.00000 -0.06594
       5     H     0.41834  0.41834  0.00000  0.16332
       6     C     3.11620  3.11620  0.00000 -0.23240
       7     H     0.42058  0.42058  0.00000  0.15883
       8     N     3.51262  3.51262  0.00000 -0.02524
       9     H     0.40889  0.40889  0.00000  0.18223
      10     C     2.84547  2.84547  0.00000  0.30906
      11     C     3.10868  3.10868  0.00000 -0.21736
      12     O     4.23657  4.23657  0.00000 -0.47315
      13     H     0.45200  0.45200  0.00000  0.09600
      14     H     0.42141  0.42141  0.00000  0.15717
      15     H     0.44806  0.44806  0.00000  0.10388

   Total alpha = 29.00000, Total beta = 29.00000, Total charge = -0.00000
