                              Psi4 1.0.54 Driver

  ==> Input File <==

--------------------------------------------------------------------------
set {
	reference rhf
	basis cc-pvtz
}

set_num_threads( 4 )
memory 2 gb

molecule MOL {
0 1

H	 -2.498963	 -0.741158	 -0.729149
O	 -2.346257	 -0.289210	 0.080372
C	 -1.183935	 0.486039	 -0.009831
C	 0.062853	 -0.375310	 0.027457
H	 -1.178881	 1.094526	 -0.908634
H	 -1.184406	 1.155156	 0.838676
O	 1.172093	 0.457955	 -0.054438
H	 0.052476	 -1.081302	 -0.804627
H	 0.076323	 -0.955658	 0.947560
C	 2.109495	 0.082522	 -1.009188
H	 1.680143	 0.081103	 -2.008652
H	 2.917879	 0.798260	 -0.978836
H	 2.509679	 -0.907794	 -0.805108

	symmetry c1
}
set optking {
	frozen_dihedral = ("
		10 7 4 8
	")
}

ee,wfn = optimize('scf', return_wfn=True)
oeprop( wfn, 'DIPOLE', 'QUADRUPOLE', 'MULLIKEN_CHARGES')
f=open( 'psi4out.xyz', 'w' )
f.write( "13  " )
f.write( str(ee) + "\n" )
f.write( MOL.save_string_xyz() )
f.close()
--------------------------------------------------------------------------

    Molecular point group: c1
  Charge       = 0
  Multiplicity = 1
  Basis Set: CC-PVTZ
  Basis Set:
  @DF-RHF Final Energy:  -268.05857935070139
    Total Energy =                       -268.0585793507012795
    Molecular point group: c1
  Basis Set: CC-PVTZ
  Basis Set:
  Basis Set: CC-PVTZ
  Basis Set:
  @DF-RHF Final Energy:  -267.58676149818996
    Total Energy =                       -267.5867614981899578
  Basis Set: CC-PVTZ
  Basis Set:
  Basis Set: CC-PVTZ
  Basis Set:
  @DF-RHF Final Energy:  -267.76064242351583
    Total Energy =                       -267.7606424235158897
  Basis Set: CC-PVTZ
  Basis Set:
  Basis Set: CC-PVTZ
  Basis Set:
  @DF-RHF Final Energy:  -267.99471524218620
    Total Energy =                       -267.9947152421860892
  Basis Set: CC-PVTZ
  Basis Set:
  @DF-RHF Final Energy:  -268.05438289579490
    Total Energy =                       -268.0543828957948449
  @DF-RHF Final Energy:  -268.05664731068271
    Total Energy =                       -268.0566473106827061
  @DF-RHF Final Energy:  -268.05872076399157
    Total Energy =                       -268.0587207639916301
  Basis Set: CC-PVTZ
  Basis Set:
  @DF-RHF Final Energy:  -268.05893853638327
    Total Energy =                       -268.0589385363834367
  Basis Set: CC-PVTZ
  Basis Set:
  Basis Set: CC-PVTZ
  Basis Set:
  @DF-RHF Final Energy:  -268.05896022130537
    Total Energy =                       -268.0589602213052558
  Basis Set: CC-PVTZ
  Basis Set:
  Basis Set: CC-PVTZ
  Basis Set:
  @DF-RHF Final Energy:  -268.05896124854894
    Total Energy =                       -268.0589612485488260
  Basis Set: CC-PVTZ
  Basis Set:
  Charge       = 0
  Multiplicity = 1
  Basis Set: CC-PVTZ
  Basis Set:

    Orbital Energies (a.u.)
    -----------------------

    Doubly Occupied:

       1A    -20.553541     2A    -20.553202     3A    -11.269165
       4A    -11.269116     5A    -11.267423     6A     -1.388304
       7A     -1.369110     8A     -1.018791     9A     -0.917456
      10A     -0.842319    11A     -0.712001    12A     -0.669881
      13A     -0.663379    14A     -0.644001    15A     -0.590659
      16A     -0.574361    17A     -0.552032    18A     -0.490930
      19A     -0.474680    20A     -0.460231    21A     -0.411786

  @DF-RHF Final Energy:  -268.05896135232308

   => Energetics <=

    Nuclear Repulsion Energy =            190.6391795300404794
    One-Electron Energy =                -744.0115470711024273
    Two-Electron Energy =                 285.3134061887389521
    DFT Exchange-Correlation Energy =       0.0000000000000000
    Empirical Dispersion Energy =           0.0000000000000000
    PCM Polarization Energy =               0.0000000000000000
    EFP Energy =                            0.0000000000000000
    Total Energy =                       -268.0589613523230241
    Molecular point group: c1
  Basis Set: CC-PVTZ
  Basis Set:

  -Total Gradient:
     Atom            X                  Y                   Z
    ------   -----------------  -----------------  -----------------
       1       -0.000006104844    -0.000016747302    -0.000007339801
       2        0.000000065941    -0.000004793857     0.000010591110
       3        0.000001193418     0.000018887582    -0.000001246040
       4       -0.001120550745     0.000056306689    -0.002437227830
       5       -0.000000690761    -0.000004430274    -0.000005729214
       6        0.000004100826     0.000009632683    -0.000000557931
       7        0.000854762373     0.000146083665     0.002223454789
       8        0.000728149946    -0.000085571696     0.001471979338
       9       -0.000006696821     0.000000440710     0.000005139926
      10       -0.000455119626    -0.000106685372    -0.001254860574
      11        0.000000155725    -0.000009417993    -0.000012133937
      12       -0.000004069628    -0.000001486378     0.000001053603
      13        0.000004804200    -0.000002218459     0.000006876562

  **** Optimization is complete! (in 11 steps) ****
    Final optimized geometry and variables:
    Molecular point group: c1

    Geometry (in Angstrom), charge = 0, multiplicity = 1:

    H           -2.150918411260    -1.544674186689    -0.101762347914
    O           -2.244323710922    -0.664735520657     0.214393777594
    C           -1.195544147836     0.134376353663    -0.256350342688
    C            0.113023750958    -0.187283107279     0.441072722861
    H           -1.072265731648     0.037165331615    -1.331253890234
    H           -1.464434231131     1.160686996314    -0.051082921421
    O            1.096239044439     0.702770100222     0.005812821452
    H            0.403795720449    -1.217111738603     0.242815987362
    H           -0.019616606962    -0.096128979699     1.514703194332
    C            2.308567165269     0.141027608538    -0.378621822212
    H            2.181663785412    -0.561223108090    -1.199093923047
    H            2.952025427836     0.944222249343    -0.707164345108
    H            2.792358019478    -0.375812865909     0.446727157409

  Mulliken Charges: (a.u.)
   Center  Symbol    Alpha    Beta     Spin     Total
       1     H     0.39506  0.39506  0.00000  0.20988
       2     O     4.20106  4.20106  0.00000 -0.40213
       3     C     2.97125  2.97125  0.00000  0.05750
       4     C     2.97203  2.97203  0.00000  0.05594
       5     H     0.47001  0.47001  0.00000  0.05998
       6     H     0.45270  0.45270  0.00000  0.09461
       7     O     4.18069  4.18069  0.00000 -0.36137
       8     H     0.48090  0.48090  0.00000  0.03819
       9     H     0.45707  0.45707  0.00000  0.08585
      10     C     3.02973  3.02973  0.00000 -0.05947
      11     H     0.47304  0.47304  0.00000  0.05392
      12     H     0.44795  0.44795  0.00000  0.10410
      13     H     0.46851  0.46851  0.00000  0.06299

   Total alpha = 21.00000, Total beta = 21.00000, Total charge = -0.00000

*** Psi4 exiting successfully. Buy a developer a beer!
