  ==> Input File <==

--------------------------------------------------------------------------
set {
	reference rhf
	basis 6-31G*
}

set_num_threads( 4 )
memory 2 gb

molecule MOL {
0 1

H	 -3.238232	 0.273190	 -0.380566
C	 -2.881355	 1.295864	 -0.485053
O	 -1.518481	 1.333538	 -0.761626
H	 -3.395314	 1.762995	 -1.313773
H	 -3.120122	 1.839567	 0.428077
C	 -0.719715	 0.768384	 0.229244
C	 0.719720	 0.768376	 -0.229267
H	 -0.801489	 1.341700	 1.153537
H	 -1.028973	 -0.253399	 0.439771
O	 1.392611	 -0.295398	 0.366430
H	 0.750534	 0.687200	 -1.313918
H	 1.185043	 1.714359	 0.050526
C	 2.706965	 -0.449871	 -0.062409
H	 2.756559	 -0.644779	 -1.131878
H	 3.305899	 0.433456	 0.155466
H	 3.125548	 -1.294566	 0.467107

	symmetry c1
}
set optking {
	frozen_dihedral = ("
		3 6 7 11
	")
}

ee = optimize('scf')
oeprop('DIPOLE', 'QUADRUPOLE', 'MULLIKEN_CHARGES')
f=open( 'psi4out.xyz', 'w' )
f.write( "16  " )
f.write( str(ee) + "\n" )
f.write( MOL.save_string_xyz() )
f.close()
--------------------------------------------------------------------------

    Molecular point group: c1
  Charge       = 0
  Multiplicity = 1
  Basis Set: 6-31G*
  Basis Set:
  @DF-RHF Final Energy:  -306.97654882315311
    Total Energy =                       -306.9765488231533936
    Molecular point group: c1
  Basis Set: 6-31G*
  Basis Set:
  Basis Set: 6-31G*
  Basis Set:
  @DF-RHF Final Energy:  -306.97726721770925
    Total Energy =                       -306.9772672177094819
  Basis Set: 6-31G*
  Basis Set:
  Basis Set: 6-31G*
  Basis Set:
  @DF-RHF Final Energy:  -306.97730530094464
    Total Energy =                       -306.9773053009445221
  Basis Set: 6-31G*
  Basis Set:
  Charge       = 0
  Multiplicity = 1
  Basis Set: 6-31G*
  Basis Set:

    Orbital Energies (a.u.)
    -----------------------

    Doubly Occupied:

       1A    -20.558930     2A    -20.558178     3A    -11.267262
       4A    -11.266902     5A    -11.266629     6A    -11.266580
       7A     -1.388769     8A     -1.377339     9A     -1.029036
      10A     -0.941170    11A     -0.884143    12A     -0.831622
      13A     -0.689449    14A     -0.675369    15A     -0.658795
      16A     -0.646503    17A     -0.622605    18A     -0.600036
      19A     -0.569995    20A     -0.519910    21A     -0.508387
      22A     -0.482850    23A     -0.466566    24A     -0.418765
      25A     -0.415563

  @DF-RHF Final Energy:  -306.97730812046086

   => Energetics <=

    Nuclear Repulsion Energy =            254.7150042385827362
    One-Electron Energy =                -923.5619177663597839
    Two-Electron Energy =                 361.8696054073159303
    DFT Exchange-Correlation Energy =       0.0000000000000000
    Empirical Dispersion Energy =           0.0000000000000000
    PCM Polarization Energy =               0.0000000000000000
    EFP Energy =                            0.0000000000000000
    Total Energy =                       -306.9773081204610889
    Molecular point group: c1
  Basis Set: 6-31G*
  Basis Set:

  -Total Gradient:
     Atom            X                  Y                   Z
    ------   -----------------  -----------------  -----------------
       1       -0.000020706892     0.000008092871    -0.000000030810
       2       -0.000003488306    -0.000046053167     0.000026902911
       3       -0.000399848142    -0.003186120018    -0.001384826371
       4        0.000024798054     0.000002887551    -0.000001051312
       5       -0.000000938898     0.000012531003     0.000000223224
       6        0.000517564251     0.005171838444     0.001741056754
       7       -0.000009103515    -0.006381431054    -0.000062175795
       8       -0.000012477119     0.000011056377    -0.000005725257
       9        0.000013003807    -0.000012630985    -0.000031052693
      10        0.000011744995    -0.000002745763    -0.000012696335
      11       -0.000141602297     0.004445279135    -0.000307822968
      12        0.000018488385    -0.000045193851     0.000038042231
      13       -0.000034287359     0.000025732640    -0.000013863743
      14        0.000009891102    -0.000005459429     0.000004011056
      15        0.000024732315     0.000004925021     0.000004827113
      16        0.000002229618    -0.000002708773     0.000004181994

  **** Optimization is complete! (in 4 steps) ****
    Final optimized geometry and variables:
    Molecular point group: c1

    Geometry (in Angstrom), charge = 0, multiplicity = 1:

    H           -3.253257559456    -0.175520001933    -0.074514790320
    C           -2.830266899830     0.807285788950    -0.273557250398
    O           -1.483222101810     0.721186304415    -0.613903650342
    H           -3.351061549278     1.250093721115    -1.111368161174
    H           -2.980734235424     1.431833259610     0.605014311593
    C           -0.679479538081     0.151343172850     0.374445658914
    C            0.758536557732     0.166821974705    -0.117911786966
    H           -0.777526835680     0.692123818608     1.313549569482
    H           -0.972422414647    -0.880733145982     0.553225077312
    O            1.442691352272    -0.887752564665     0.483371278566
    H            0.759686823817     0.092554770360    -1.202701386278
    H            1.234082128970     1.114988302915     0.130613438743
    C            2.794016941853    -0.952499803433     0.154533721583
    H            2.936439312571    -1.081584921757    -0.916522817660
    H            3.323516454295    -0.054542325262     0.467364328380
    H            3.214833932631    -1.804985565482     0.669671797098

  Mulliken Charges: (a.u.)
   Center  Symbol    Alpha    Beta     Spin     Total
       1     H     0.42828  0.42828  0.00000  0.14343
       2     C     3.07994  3.07994  0.00000 -0.15987
       3     O     4.30937  4.30937  0.00000 -0.61874
       4     H     0.41158  0.41158  0.00000  0.17684
       5     H     0.42923  0.42923  0.00000  0.14154
       6     C     2.99621  2.99621  0.00000  0.00758
       7     C     2.99666  2.99666  0.00000  0.00668
       8     H     0.42704  0.42704  0.00000  0.14593
       9     H     0.41848  0.41848  0.00000  0.16304
      10     O     4.30843  4.30843  0.00000 -0.61686
      11     H     0.41770  0.41770  0.00000  0.16459
      12     H     0.42853  0.42853  0.00000  0.14294
      13     C     3.08012  3.08012  0.00000 -0.16024
      14     H     0.42792  0.42792  0.00000  0.14416
      15     H     0.42906  0.42906  0.00000  0.14189
      16     H     0.41146  0.41146  0.00000  0.17707

   Total alpha = 25.00000, Total beta = 25.00000, Total charge = -0.00000
