  ==> Input File <==

--------------------------------------------------------------------------
set {
	reference rhf
	basis 6-31G*
}

set_num_threads( 4 )
memory 2 gb

molecule MOL {
0 1

H	 2.591676	 2.013956	 0.335017
O	 3.341076	 1.666752	 -0.126416
C	 3.569581	 0.339145	 0.272707
C	 4.764651	 -0.301060	 -0.424913
H	 3.747500	 0.379072	 1.339677
H	 2.676510	 -0.264826	 0.116429
C	 4.595404	 -0.449409	 -1.938919
H	 5.647966	 0.295838	 -0.213172
H	 4.930616	 -1.281594	 0.018230
C	 5.788113	 -1.144092	 -2.602002
H	 4.456412	 0.533390	 -2.380680
H	 3.689315	 -1.018312	 -2.147950
C	 5.632442	 -1.394769	 -4.106418
H	 6.687535	 -0.556726	 -2.426248
H	 5.949824	 -2.100204	 -2.108646
C	 5.589615	 -0.130658	 -4.969360
H	 6.464464	 -2.012636	 -4.437773
H	 4.732207	 -1.981877	 -4.281684
C	 5.540016	 -0.433625	 -6.468422
H	 6.466115	 0.479534	 -4.755996
H	 4.725605	 0.474102	 -4.704684
C	 5.490726	 0.826420	 -7.331858
H	 6.409443	 -1.026254	 -6.744783
H	 4.670172	 -1.051378	 -6.682050
H	 6.364315	 1.450339	 -7.165149
H	 5.458270	 0.578754	 -8.388382
H	 4.611672	 1.423325	 -7.105291

	symmetry c1
}
set optking {
	frozen_dihedral = ("
		4 3 2 1
	")
}

ee = optimize('scf')
oeprop('DIPOLE', 'QUADRUPOLE', 'MULLIKEN_CHARGES')
f=open( 'psi4out.xyz', 'w' )
f.write( "27  " )
f.write( str(ee) + "\n" )
f.write( MOL.save_string_xyz() )
f.close()
--------------------------------------------------------------------------

    Molecular point group: c1
  Charge       = 0
  Multiplicity = 1
  Basis Set: 6-31G*
  Basis Set:
  @DF-RHF Final Energy:  -388.28041959714318
    Total Energy =                       -388.2804195971427816
    Molecular point group: c1
  Basis Set: 6-31G*
  Basis Set:
  Basis Set: 6-31G*
  Basis Set:
  @DF-RHF Final Energy:  -388.28195463211154
    Total Energy =                       -388.2819546321109101
  Basis Set: 6-31G*
  Basis Set:
  Basis Set: 6-31G*
  Basis Set:
  @DF-RHF Final Energy:  -388.28238663297736
    Total Energy =                       -388.2823866329772500
  Basis Set: 6-31G*
  Basis Set:
  Basis Set: 6-31G*
  Basis Set:
  @DF-RHF Final Energy:  -388.28239445755526
    Total Energy =                       -388.2823944575550286
  Basis Set: 6-31G*
  Basis Set:
  Charge       = 0
  Multiplicity = 1
  Basis Set: 6-31G*
  Basis Set:

    Orbital Energies (a.u.)
    -----------------------

    Doubly Occupied:

       1A    -20.553061     2A    -11.267832     3A    -11.211693
       4A    -11.210431     5A    -11.208868     6A    -11.208298
       7A    -11.206903     8A    -11.205568     9A    -11.204438
      10A     -1.359775    11A     -1.087555    12A     -1.055805
      13A     -1.007473    14A     -0.942430    15A     -0.879000
      16A     -0.810586    17A     -0.793834    18A     -0.770282
      19A     -0.704982    20A     -0.643702    21A     -0.636622
      22A     -0.616290    23A     -0.586564    24A     -0.578147
      25A     -0.571078    26A     -0.545893    27A     -0.536740
      28A     -0.515402    29A     -0.505877    30A     -0.491159
      31A     -0.476148    32A     -0.472139    33A     -0.459285
      34A     -0.452424    35A     -0.440321    36A     -0.438689
      37A     -0.424637

  @DF-RHF Final Energy:  -388.28239473390767

   => Energetics <=

    Nuclear Repulsion Energy =            460.1884862968775565
    One-Electron Energy =               -1438.7818973789576376
    Two-Electron Energy =                 590.3110163481727568
    DFT Exchange-Correlation Energy =       0.0000000000000000
    Empirical Dispersion Energy =           0.0000000000000000
    PCM Polarization Energy =               0.0000000000000000
    EFP Energy =                            0.0000000000000000
    Total Energy =                       -388.2823947339073811
    Molecular point group: c1
  Basis Set: 6-31G*
  Basis Set:

  -Total Gradient:
     Atom            X                  Y                   Z
    ------   -----------------  -----------------  -----------------
       1        0.000133953201     0.000021493195     0.000147025393
       2       -0.000085508623    -0.000131912815    -0.000111793950
       3       -0.000073557840    -0.000002264080    -0.000094256196
       4        0.000048407286     0.000106450944     0.000072929147
       5        0.000001917231    -0.000010208980    -0.000017472633
       6        0.000021456630     0.000012263425    -0.000040503696
       7       -0.000017963170     0.000002370145    -0.000008602273
       8        0.000000856634     0.000020612246    -0.000002827002
       9       -0.000004704258     0.000008821736     0.000025988061
      10       -0.000025962670    -0.000040745948     0.000035788938
      11       -0.000003434052     0.000022154976    -0.000027508448
      12        0.000001793496    -0.000007879410    -0.000014295133
      13        0.000025149137    -0.000005929640    -0.000005674341
      14        0.000002263668    -0.000016810704    -0.000004985666
      15       -0.000014081905     0.000001540371     0.000010761216
      16       -0.000004823994     0.000006295605     0.000018511879
      17        0.000009902460     0.000016886373    -0.000001423374
      18        0.000016585616    -0.000015130581    -0.000002559635
      19       -0.000015024764    -0.000000145739    -0.000003423773
      20       -0.000001365761    -0.000009206331    -0.000009387226
      21       -0.000014295593     0.000020735898     0.000031298342
      22       -0.000002558871    -0.000000073588    -0.000000198907
      23       -0.000000537647     0.000001147749     0.000005171215
      24       -0.000000425479    -0.000000551903    -0.000003129062
      25        0.000001159116     0.000000210007    -0.000000120279
      26        0.000000341643     0.000000021177     0.000001083808
      27        0.000000458509    -0.000000144133    -0.000000396401

  **** Optimization is complete! (in 5 steps) ****
    Final optimized geometry and variables:
    Molecular point group: c1

    Geometry (in Angstrom), charge = 0, multiplicity = 1:

    H           -2.173636296785     2.164146592168     3.231904516454
    O           -1.438503126281     1.733173766633     2.820055260197
    C           -1.336356868076     0.414697920951     3.295758553137
    C           -0.151645916742    -0.256191664591     2.622051860289
    H           -1.194456529607     0.410935455264     4.375000544868
    H           -2.249253479237    -0.140095320507     3.082533023184
    C           -0.308848851539    -0.396547424260     1.106887141721
    H            0.740887432173     0.321318991168     2.848445639867
    H           -0.016158204808    -1.237944624875     3.072131072951
    C            0.901875056560    -1.066731539286     0.451920185985
    H           -0.474059473261     0.586246947514     0.681703257386
    H           -1.201864899252    -0.983248879137     0.892938973890
    C            0.758351863818    -1.318321411173    -1.053610669913
    H            1.788814469564    -0.460992852773     0.630877504802
    H            1.083395389418    -2.020711178389     0.943764628520
    C            0.684956955005    -0.052679041339    -1.912035186440
    H            1.606570581374    -1.914139018087    -1.385092230649
    H           -0.126675587946    -1.927038670854    -1.232925586415
    C            0.636379490953    -0.351531796523    -3.411949457111
    H            1.549285040716     0.575107488841    -1.699773040600
    H           -0.190146126437     0.532194937138    -1.640826897812
    C            0.559898176689     0.910305017423    -4.270859967224
    H            1.515979864574    -0.926588075950    -3.693780063568
    H           -0.222371655081    -0.984908003874    -3.625049336300
    H            1.422313429682     1.549932352956    -4.105243621763
    H            0.527769511406     0.666047773123    -5.328336222319
    H           -0.329076234994     1.489766271252    -4.038069409496

  Mulliken Charges: (a.u.)
   Center  Symbol    Alpha    Beta     Spin     Total
       1     H     0.28058  0.28058  0.00000  0.43885
       2     O     4.36972  4.36972  0.00000 -0.73945
       3     C     2.99728  2.99728  0.00000  0.00544
       4     C     3.15971  3.15971  0.00000 -0.31941
       5     H     0.42946  0.42946  0.00000  0.14107
       6     H     0.43257  0.43257  0.00000  0.13486
       7     C     3.15699  3.15699  0.00000 -0.31397
       8     H     0.41514  0.41514  0.00000  0.16972
       9     H     0.42428  0.42428  0.00000  0.15144
      10     C     3.15337  3.15337  0.00000 -0.30675
      11     H     0.40481  0.40481  0.00000  0.19039
      12     H     0.42789  0.42789  0.00000  0.14421
      13     C     3.15271  3.15271  0.00000 -0.30541
      14     H     0.42343  0.42343  0.00000  0.15314
      15     H     0.42447  0.42447  0.00000  0.15105
      16     C     3.15273  3.15273  0.00000 -0.30547
      17     H     0.42313  0.42313  0.00000  0.15375
      18     H     0.42500  0.42500  0.00000  0.14999
      19     C     3.15098  3.15098  0.00000 -0.30197
      20     H     0.42445  0.42445  0.00000  0.15110
      21     H     0.42043  0.42043  0.00000  0.15915
      22     C     3.23896  3.23896  0.00000 -0.47792
      23     H     0.42395  0.42395  0.00000  0.15210
      24     H     0.42383  0.42383  0.00000  0.15233
      25     H     0.42195  0.42195  0.00000  0.15610
      26     H     0.42038  0.42038  0.00000  0.15924
      27     H     0.42179  0.42179  0.00000  0.15642

   Total alpha = 37.00000, Total beta = 37.00000, Total charge = -0.00000
