                              Psi4 1.0.54 Driver

  ==> Input File <==

--------------------------------------------------------------------------
set {
	reference rhf
	basis cc-pvtz
}

set_num_threads( 4 )
memory 2 gb

molecule MOL {
0 1

H	 1.055358	 2.411901	 0.638636
O	 1.305493	 1.532529	 0.859066
C	 0.706474	 0.636793	 -0.025501
C	 -0.793473	 0.591216	 0.050087
H	 1.105419	 -0.342265	 0.212388
H	 1.000306	 0.850012	 -1.051610
C	 -1.534243	 -0.493009	 -0.013340
H	 -1.266611	 1.552628	 0.164437
H	 -1.101195	 -1.466332	 -0.144046
H	 -2.604242	 -0.437780	 0.050785

	symmetry c1
}
set optking {
	frozen_dihedral = ("
		5 3 4 7
	")
}

ee,wfn = optimize('scf', return_wfn=True)
oeprop( wfn, 'DIPOLE', 'QUADRUPOLE', 'MULLIKEN_CHARGES')
f=open( 'psi4out.xyz', 'w' )
f.write( "10  " )
f.write( str(ee) + "\n" )
f.write( MOL.save_string_xyz() )
f.close()
--------------------------------------------------------------------------

    Molecular point group: c1
  Charge       = 0
  Multiplicity = 1
  Basis Set: CC-PVTZ
  Basis Set:
  @DF-RHF Final Energy:  -191.99579829391115
    Total Energy =                       -191.9957982939111503
    Molecular point group: c1
  Basis Set: CC-PVTZ
  Basis Set:
  Basis Set: CC-PVTZ
  Basis Set:
  @DF-RHF Final Energy:  -191.99629958807506
    Total Energy =                       -191.9962995880750896
  Basis Set: CC-PVTZ
  Basis Set:
  Basis Set: CC-PVTZ
  Basis Set:
  @DF-RHF Final Energy:  -191.99637742061549
    Total Energy =                       -191.9963774206153460
  Basis Set: CC-PVTZ
  Basis Set:
  Basis Set: CC-PVTZ
  Basis Set:
  @DF-RHF Final Energy:  -191.99638508777372
    Total Energy =                       -191.9963850877737457
  Basis Set: CC-PVTZ
  Basis Set:
  Basis Set: CC-PVTZ
  Basis Set:
  @DF-RHF Final Energy:  -191.99638686319943
    Total Energy =                       -191.9963868631994899
  Basis Set: CC-PVTZ
  Basis Set:
  Charge       = 0
  Multiplicity = 1
  Basis Set: CC-PVTZ
  Basis Set:

    Orbital Energies (a.u.)
    -----------------------

    Doubly Occupied:

       1A    -20.552328     2A    -11.276823     3A    -11.230866
       4A    -11.220648     5A     -1.370770     6A     -1.066656
       7A     -0.923433     8A     -0.781381     9A     -0.695357
      10A     -0.655355    11A     -0.624312    12A     -0.572604
      13A     -0.538286    14A     -0.501838    15A     -0.447320
      16A     -0.372921

  @DF-RHF Final Energy:  -191.99638736475274

   => Energetics <=

    Nuclear Repulsion Energy =            117.3278212899171820
    One-Electron Energy =                -492.9866204597576029
    Two-Electron Energy =                 183.6624118050876859
    DFT Exchange-Correlation Energy =       0.0000000000000000
    Empirical Dispersion Energy =           0.0000000000000000
    PCM Polarization Energy =               0.0000000000000000
    EFP Energy =                            0.0000000000000000
    Total Energy =                       -191.9963873647527635
    Molecular point group: c1
  Basis Set: CC-PVTZ
  Basis Set:

  -Total Gradient:
     Atom            X                  Y                   Z
    ------   -----------------  -----------------  -----------------
       1       -0.000018052649    -0.000016395101    -0.000012832340
       2        0.000075780222     0.000046949680     0.000093848522
       3       -0.000235726854    -0.000447899276    -0.002675121017
       4        0.000149715306    -0.000093370750     0.002527043710
       5        0.000087768698     0.000397621876     0.001500068115
       6        0.000016151723    -0.000010449599     0.000004270878
       7       -0.000071350318     0.000137755716    -0.001448004489
       8        0.000004398729    -0.000006664376     0.000000867917
       9       -0.000000377203    -0.000003897083     0.000005253807
      10       -0.000008307654    -0.000003651087     0.000004604896

  **** Optimization is complete! (in 6 steps) ****
    Final optimized geometry and variables:
    Molecular point group: c1

    Geometry (in Angstrom), charge = 0, multiplicity = 1:

    H            1.107923320621     1.791109487063     0.387401304397
    O            1.296615856898     0.904063591267     0.633728508778
    C            0.715431286622     0.012649918104    -0.280136054807
    C           -0.784756817737    -0.017300339088    -0.187846324020
    H            1.119668343033    -0.961844955807    -0.047060879550
    H            1.015140893952     0.264291547758    -1.294634184768
    C           -1.517214942358    -1.106987080662    -0.242884371410
    H           -1.268495086163     0.943283265155    -0.110995902042
    H           -1.072350752443    -2.083398278135    -0.315236585266
    H           -2.589455681523    -1.065509031760    -0.213036460525

  Mulliken Charges: (a.u.)
   Center  Symbol    Alpha    Beta     Spin     Total
       1     H     0.39317  0.39317  0.00000  0.21366
       2     O     4.20111  4.20111  0.00000 -0.40222
       3     C     2.95461  2.95461  0.00000  0.09079
       4     C     3.06570  3.06570  0.00000 -0.13140
       5     H     0.45389  0.45389  0.00000  0.09223
       6     H     0.46872  0.46872  0.00000  0.06256
       7     C     3.17022  3.17022  0.00000 -0.34045
       8     H     0.43231  0.43231  0.00000  0.13537
       9     H     0.43139  0.43139  0.00000  0.13721
      10     H     0.42888  0.42888  0.00000  0.14224

   Total alpha = 16.00000, Total beta = 16.00000, Total charge =  0.00000

*** Psi4 exiting successfully. Buy a developer a beer!
