  ==> Input File <==

--------------------------------------------------------------------------
set {
	reference rhf
	basis 6-31G*
}

set_num_threads( 4 )
memory 2 gb

molecule MOL {
0 1

H	 3.469408	 4.682644	 -1.656350
C	 2.523650	 4.491028	 -2.153690
C	 1.821682	 3.272776	 -1.555127
H	 1.910719	 5.381856	 -2.053279
H	 2.728988	 4.347510	 -3.211063
C	 0.486503	 2.970124	 -2.238877
H	 1.656005	 3.439319	 -0.495686
H	 2.473767	 2.404789	 -1.639244
C	 -0.231140	 1.744611	 -1.672864
H	 -0.167739	 3.830815	 -2.156275
H	 0.660112	 2.804797	 -3.299805
C	 -0.808040	 1.944246	 -0.279101
H	 -1.066245	 1.477098	 -2.318470
H	 0.425655	 0.877565	 -1.667637
C	 -1.181045	 0.701995	 0.511084
O	 -0.981224	 3.034749	 0.176107
C	 -2.285934	 -0.139295	 -0.145128
H	 -1.496424	 1.033966	 1.492942
H	 -0.289154	 0.090756	 0.635989
C	 -3.651768	 0.085446	 0.506485
H	 -2.346596	 0.110469	 -1.202272
H	 -2.034737	 -1.195320	 -0.088721
C	 -4.759797	 -0.746382	 -0.137905
H	 -3.908762	 1.140117	 0.445781
H	 -3.588286	 -0.154158	 1.565709
H	 -4.868882	 -0.505166	 -1.191300
H	 -4.548009	 -1.809175	 -0.062213
H	 -5.715422	 -0.564821	 0.343442

	symmetry c1
}
set optking {
	frozen_dihedral = ("
		12 15 17 21
	")
}

ee = optimize('scf')
oeprop('DIPOLE', 'QUADRUPOLE', 'MULLIKEN_CHARGES')
f=open( 'psi4out.xyz', 'w' )
f.write( "28  " )
f.write( str(ee) + "\n" )
f.write( MOL.save_string_xyz() )
f.close()
--------------------------------------------------------------------------

    Molecular point group: c1
  Charge       = 0
  Multiplicity = 1
  Basis Set: 6-31G*
  Basis Set:
  @DF-RHF Final Energy:  -426.16402413317212
    Total Energy =                       -426.1640241331720063
    Molecular point group: c1
  Basis Set: 6-31G*
  Basis Set:
  Basis Set: 6-31G*
  Basis Set:
  @DF-RHF Final Energy:  -426.16280907710632
    Total Energy =                       -426.1628090771062034
  Basis Set: 6-31G*
  Basis Set:
  Basis Set: 6-31G*
  Basis Set:
  @DF-RHF Final Energy:  -426.16282788065769
    Total Energy =                       -426.1628278806578010
  Basis Set: 6-31G*
  Basis Set:
  Basis Set: 6-31G*
  Basis Set:
  @DF-RHF Final Energy:  -426.16456895461920
    Total Energy =                       -426.1645689546190852
  Basis Set: 6-31G*
  Basis Set:
  @DF-RHF Final Energy:  -426.16464671484357
    Total Energy =                       -426.1646467148431157
  @DF-RHF Final Energy:  -426.16474285627112
    Total Energy =                       -426.1647428562710047
  @DF-RHF Final Energy:  -426.16501528897595
    Total Energy =                       -426.1650152889762921
  @DF-RHF Final Energy:  -426.14902845069275
    Total Energy =                       -426.1490284506928674
  @DF-RHF Final Energy:  -426.13541425142500
    Total Energy =                       -426.1354142514250043
  @DF-RHF Final Energy:  -426.04022475388240
    Total Energy =                       -426.0402247538827396
  @DF-RHF Final Energy:  -426.13479304273301
    Total Energy =                       -426.1347930427327810
  @DF-RHF Final Energy:  -426.15864961554996
    Total Energy =                       -426.1586496155499617
  @DF-RHF Final Energy:  -426.16306309384015
    Total Energy =                       -426.1630630938407194
  @DF-RHF Final Energy:  -426.16350892443074
    Total Energy =                       -426.1635089244305163
  @DF-RHF Final Energy:  -426.16471276686855
    Total Energy =                       -426.1647127668683197
  @DF-RHF Final Energy:  -426.16485920280059
    Total Energy =                       -426.1648592028004714
  @DF-RHF Final Energy:  -426.16490085451665
    Total Energy =                       -426.1649008545167590
  @DF-RHF Final Energy:  -426.16493287581852
    Total Energy =                       -426.1649328758184083
  @DF-RHF Final Energy:  -426.16495562281318
    Total Energy =                       -426.1649556228131814
  @DF-RHF Final Energy:  -426.16498529599414
    Total Energy =                       -426.1649852959940290
  @DF-RHF Final Energy:  -426.16501537854811
    Total Energy =                       -426.1650153785482189
  @DF-RHF Final Energy:  -426.16505601681843
    Total Energy =                       -426.1650560168187667
  @DF-RHF Final Energy:  -426.16511898015040
    Total Energy =                       -426.1651189801502824
  @DF-RHF Final Energy:  -426.16516006118479
    Total Energy =                       -426.1651600611847925
  @DF-RHF Final Energy:  -426.16519784105856
    Total Energy =                       -426.1651978410586707
  @DF-RHF Final Energy:  -426.16522598731331
    Total Energy =                       -426.1652259873139883
  @DF-RHF Final Energy:  -426.16525929778811
    Total Energy =                       -426.1652592977879976
  @DF-RHF Final Energy:  -426.16531233465616
    Total Energy =                       -426.1653123346559369
  @DF-RHF Final Energy:  -426.16535071590613
    Total Energy =                       -426.1653507159062428
  @DF-RHF Final Energy:  -426.16539845976467
    Total Energy =                       -426.1653984597647877
  @DF-RHF Final Energy:  -426.16550952252840
    Total Energy =                       -426.1655095225285095
  @DF-RHF Final Energy:  -426.16560659993308
    Total Energy =                       -426.1656065999331986
  Basis Set: 6-31G*
  Basis Set:
  @DF-RHF Final Energy:  -426.16563329035932
    Total Energy =                       -426.1656332903590965
  Basis Set: 6-31G*
  Basis Set:
  Basis Set: 6-31G*
  Basis Set:
  @DF-RHF Final Energy:  -426.16563694036950
    Total Energy =                       -426.1656369403696090
  Basis Set: 6-31G*
  Basis Set:
  Basis Set: 6-31G*
  Basis Set:
  @DF-RHF Final Energy:  -426.16563908556759
    Total Energy =                       -426.1656390855678183
  Basis Set: 6-31G*
  Basis Set:
  Charge       = 0
  Multiplicity = 1
  Basis Set: 6-31G*
  Basis Set:

    Orbital Energies (a.u.)
    -----------------------

    Doubly Occupied:

       1A    -20.548043     2A    -11.323005     3A    -11.231388
       4A    -11.230522     5A    -11.228483     6A    -11.217847
       7A    -11.216546     8A    -11.210596     9A    -11.210205
      10A    -11.204628    11A     -1.393413    12A     -1.090210
      13A     -1.076358    14A     -1.021040    15A     -0.988709
      16A     -0.907922    17A     -0.868671    18A     -0.805840
      19A     -0.796587    20A     -0.726705    21A     -0.671482
      22A     -0.644495    23A     -0.622380    24A     -0.615892
      25A     -0.607027    26A     -0.584233    27A     -0.578577
      28A     -0.571593    29A     -0.539486    30A     -0.532305
      31A     -0.526732    32A     -0.511967    33A     -0.496491
      34A     -0.478235    35A     -0.474907    36A     -0.471093
      37A     -0.464568    38A     -0.461360    39A     -0.455231
      40A     -0.391763

  @DF-RHF Final Energy:  -426.16563951960256

   => Energetics <=

    Nuclear Repulsion Energy =            535.6520034811599089
    One-Electron Energy =               -1639.6422201116183714
    Two-Electron Energy =                 677.8245771108556710
    DFT Exchange-Correlation Energy =       0.0000000000000000
    Empirical Dispersion Energy =           0.0000000000000000
    PCM Polarization Energy =               0.0000000000000000
    EFP Energy =                            0.0000000000000000
    Total Energy =                       -426.1656395196027916
    Molecular point group: c1
  Basis Set: 6-31G*
  Basis Set:

  -Total Gradient:
     Atom            X                  Y                   Z
    ------   -----------------  -----------------  -----------------
       1        0.000001168142    -0.000007159556     0.000000734366
       2        0.000011818285     0.000005941659    -0.000013296826
       3       -0.000016111325    -0.000009616409     0.000030570086
       4       -0.000000155226     0.000002693968     0.000006270190
       5       -0.000006376013     0.000001529005    -0.000001853769
       6       -0.000007849161     0.000008138714    -0.000028515767
       7       -0.000001104055    -0.000002680892    -0.000004670605
       8        0.000001316038     0.000004537403    -0.000005705021
       9       -0.000007341692     0.000002521931     0.000058091335
      10        0.000009225048    -0.000000697751     0.000000767638
      11       -0.000002154215    -0.000001247850    -0.000000384011
      12        0.001156658487    -0.001366711014    -0.001791933966
      13       -0.000020033010    -0.000009490126     0.000010083009
      14        0.000007161265    -0.000004202615     0.000003444472
      15       -0.001837916074     0.002509641743     0.002684695675
      16       -0.000012939066     0.000014200739     0.000018575026
      17        0.002238140349    -0.003804495217    -0.002530648779
      18       -0.000017929352    -0.000019281405     0.000002501802
      19       -0.000002322563    -0.000021542763     0.000011084319
      20        0.000009757263     0.000004965814    -0.000009558042
      21       -0.001511396908     0.002686258868     0.001551141203
      22        0.000007561455     0.000005925627     0.000010238406
      23        0.000021633365     0.000017700146    -0.000001150876
      24       -0.000000914295    -0.000003550529    -0.000000120227
      25        0.000001129125    -0.000000294967     0.000001828040
      26       -0.000011923094    -0.000007750985     0.000000648386
      27       -0.000003115833    -0.000004403671    -0.000002385563
      28       -0.000005986948    -0.000000929867    -0.000000450500

  **** Optimization is complete! (in 36 steps) ****
    Final optimized geometry and variables:
    Molecular point group: c1

    Geometry (in Angstrom), charge = 0, multiplicity = 1:

    H            3.715301369099     3.739602385570    -0.823999715860
    C            3.012605767035     3.162493835437    -1.417037667425
    C            2.625325595108     1.866178080661    -0.706623713107
    H            2.140584661684     3.785155488389    -1.594244905867
    H            3.477665606165     2.962170921015    -2.378627269662
    C            1.645240435604     1.020732437352    -1.523475419097
    H            2.184944790455     2.099752572710     0.256057048903
    H            3.523381374560     1.282408430274    -0.510442110599
    C            1.244556248963    -0.288554272997    -0.844931066581
    H            0.751934707979     1.600369608077    -1.731861418032
    H            2.097866706571     0.783794312669    -2.483753023379
    C            0.275226719623    -0.140438424311     0.314009308671
    H            0.777561643234    -0.964030335640    -1.561152198542
    H            2.122307798538    -0.820559761011    -0.481204371224
    C           -0.182675872912    -1.421372657203     0.988943291221
    O           -0.154738267310     0.919729287870     0.658890850980
    C           -1.554371889127    -1.880319491811     0.431068609875
    H           -0.255993298644    -1.232605329646     2.053509588276
    H            0.559595830965    -2.199053325635     0.841851304041
    C           -2.718996001531    -1.500968774759     1.349958825274
    H           -1.733386020943    -1.418671398494    -0.537345926713
    H           -1.546709446511    -2.954162490071     0.273261661593
    C           -4.078429536692    -1.897463005540     0.777081002502
    H           -2.691813048129    -0.429746790586     1.526827645622
    H           -2.579979908057    -1.978504014727     2.317438413147
    H           -4.263664121572    -1.403681375243    -0.172670957452
    H           -4.138268108962    -2.969497101626     0.609582748171
    H           -4.882284764687    -1.623563961285     1.452987744408

  Mulliken Charges: (a.u.)
   Center  Symbol    Alpha    Beta     Spin     Total
       1     H     0.41938  0.41938  0.00000  0.16124
       2     C     3.24034  3.24034  0.00000 -0.48068
       3     C     3.15609  3.15609  0.00000 -0.31217
       4     H     0.41886  0.41886  0.00000  0.16229
       5     H     0.42417  0.42417  0.00000  0.15165
       6     C     3.14878  3.14878  0.00000 -0.29756
       7     H     0.40624  0.40624  0.00000  0.18752
       8     H     0.42818  0.42818  0.00000  0.14364
       9     C     3.21308  3.21308  0.00000 -0.42616
      10     H     0.40983  0.40983  0.00000  0.18033
      11     H     0.42200  0.42200  0.00000  0.15601
      12     C     2.73737  2.73737  0.00000  0.52526
      13     H     0.40638  0.40638  0.00000  0.18725
      14     H     0.40870  0.40870  0.00000  0.18260
      15     C     3.20124  3.20124  0.00000 -0.40247
      16     O     4.26744  4.26744  0.00000 -0.53489
      17     C     3.15876  3.15876  0.00000 -0.31751
      18     H     0.39964  0.39964  0.00000  0.20072
      19     H     0.41347  0.41347  0.00000  0.17306
      20     C     3.15523  3.15523  0.00000 -0.31046
      21     H     0.41733  0.41733  0.00000  0.16534
      22     H     0.41604  0.41604  0.00000  0.16792
      23     C     3.24139  3.24139  0.00000 -0.48277
      24     H     0.40717  0.40717  0.00000  0.18567
      25     H     0.42261  0.42261  0.00000  0.15478
      26     H     0.42043  0.42043  0.00000  0.15915
      27     H     0.42277  0.42277  0.00000  0.15446
      28     H     0.41711  0.41711  0.00000  0.16578

   Total alpha = 40.00000, Total beta = 40.00000, Total charge =  0.00000
