  ==> Input File <==

--------------------------------------------------------------------------
set {
	reference rhf
	basis 6-31G*
}

set_num_threads( 1 )
memory 2 gb

molecule MOL {
0 1

H	 1.173145	 0.227650	 1.791227
O	 1.365131	 -0.126983	 0.933772
C	 0.709265	 0.639550	 -0.033818
C	 -0.793441	 0.596080	 0.058728
H	 1.026355	 0.249760	 -0.994401
H	 1.039590	 1.677044	 0.005115
C	 -1.530462	 -0.493172	 -0.025500
H	 -1.268471	 1.554324	 0.202247
H	 -1.092586	 -1.461565	 -0.186463
H	 -2.602122	 -0.450675	 0.050101

	symmetry c1
}
set optking {
	frozen_dihedral = ("
		5 3 2 1,
		3 4 7 9
	")
}

ee = energy('scf')
oeprop('DIPOLE', 'QUADRUPOLE', 'MULLIKEN_CHARGES')
f=open( 'psi4out.xyz', 'w' )
f.write( "10  " )
f.write( str(ee) + "\n" )
f.write( MOL.save_string_xyz() )
f.close()
--------------------------------------------------------------------------

    Molecular point group: c1

    Geometry (in Angstrom), charge = 0, multiplicity = 1:

       Center              X                  Y                   Z               Mass
    ------------   -----------------  -----------------  -----------------  -----------------
           H          1.160707120202     0.077947543808     1.518955593290     1.007825032070
           O          1.352693120202    -0.276685456192     0.661500593290    15.994914619560
           C          0.696827120202     0.489847543808    -0.306089406710    12.000000000000
           C         -0.805878879798     0.446377543808    -0.213543406710    12.000000000000
           H          1.013917120202     0.100057543808    -1.266672406710     1.007825032070
           H          1.027152120202     1.527341543808    -0.267156406710     1.007825032070
           C         -1.542899879798    -0.642874456192    -0.297771406710    12.000000000000
           H         -1.280908879798     1.404621543808    -0.070024406710     1.007825032070
           H         -1.105023879798    -1.611267456192    -0.458734406710     1.007825032070
           H         -2.614559879798    -0.600377456192    -0.222170406710     1.007825032070

  Charge       = 0
  Multiplicity = 1
  Basis Set: 6-31G*
  Basis Set:

    Orbital Energies (a.u.)
    -----------------------

    Doubly Occupied:

       1A    -20.556011     2A    -11.273969     3A    -11.227272
       4A    -11.223668     5A     -1.364702     6A     -1.058500
       7A     -0.922738     8A     -0.774526     9A     -0.683506
      10A     -0.654255    11A     -0.607800    12A     -0.579118
      13A     -0.546201    14A     -0.476199    15A     -0.442167
      16A     -0.368215

  @DF-RHF Final Energy:  -191.91210671602778

   => Energetics <=

    Nuclear Repulsion Energy =            118.4164985718537082
    One-Electron Energy =                -495.1395138685491020
    Two-Electron Energy =                 184.8109085806676148
    DFT Exchange-Correlation Energy =       0.0000000000000000
    Empirical Dispersion Energy =           0.0000000000000000
    PCM Polarization Energy =               0.0000000000000000
    EFP Energy =                            0.0000000000000000
    Total Energy =                       -191.9121067160277789

  Mulliken Charges: (a.u.)
   Center  Symbol    Alpha    Beta     Spin     Total
       1     H     0.28266  0.28266  0.00000  0.43468
       2     O     4.36345  4.36345  0.00000 -0.72690
       3     C     3.00404  3.00404  0.00000 -0.00808
       4     C     3.10441  3.10441  0.00000 -0.20882
       5     H     0.40948  0.40948  0.00000  0.18103
       6     H     0.42808  0.42808  0.00000  0.14385
       7     C     3.18239  3.18239  0.00000 -0.36479
       8     H     0.41015  0.41015  0.00000  0.17969
       9     H     0.40525  0.40525  0.00000  0.18950
      10     H     0.41008  0.41008  0.00000  0.17985

   Total alpha = 16.00000, Total beta = 16.00000, Total charge = -0.00000
