  ==> Input File <==

--------------------------------------------------------------------------
set {
	reference rhf
	basis 6-31G*
}

set_num_threads( 4 )
memory 2 gb

molecule MOL {
0 1

H	 -3.269016	 -0.876744	 0.468090
C	 -2.809304	 0.000122	 0.025886
N	 -1.391456	 0.000019	 0.300661
H	 -3.037557	 -0.000063	 -1.044252
H	 -3.269223	 0.876956	 0.468000
C	 -0.630353	 -0.670910	 -0.734890
C	 -1.083639	 -0.552912	 1.605009
H	 -0.905170	 -1.727081	 -0.815421
H	 -0.848044	 -0.200492	 -1.688242
C	 0.860000	 -0.565681	 -0.451445
H	 -1.631946	 0.003563	 2.358170
H	 -1.388461	 -1.601274	 1.679374
C	 0.406715	 -0.447683	 1.888454
H	 1.408308	 -1.122156	 -1.204605
H	 1.164822	 0.482681	 -0.525808
N	 1.167817	 -1.118613	 0.852904
H	 0.624406	 -0.918102	 2.841806
H	 0.681531	 0.608487	 1.968985
C	 2.585665	 -1.118717	 1.127679
H	 3.107763	 -1.683063	 0.363022
H	 2.774862	 -1.596280	 2.082647
H	 3.015127	 -0.112825	 1.159949

	symmetry c1
}
set optking {
	frozen_dihedral = ("
		6 3 2 4
	")
}

ee = optimize('scf')
oeprop('DIPOLE', 'QUADRUPOLE', 'MULLIKEN_CHARGES')
f=open( 'psi4out.xyz', 'w' )
f.write( "22  " )
f.write( str(ee) + "\n" )
f.write( MOL.save_string_xyz() )
f.close()
--------------------------------------------------------------------------

    Molecular point group: c1
  Charge       = 0
  Multiplicity = 1
  Basis Set: 6-31G*
  Basis Set:
  @DF-RHF Final Energy:  -344.22702301847551
    Total Energy =                       -344.2270230184755064
    Molecular point group: c1
  Basis Set: 6-31G*
  Basis Set:
  Basis Set: 6-31G*
  Basis Set:
  @DF-RHF Final Energy:  -344.22798664188105
    Total Energy =                       -344.2279866418812162
  Basis Set: 6-31G*
  Basis Set:
  Basis Set: 6-31G*
  Basis Set:
  @DF-RHF Final Energy:  -344.22811746437753
    Total Energy =                       -344.2281174643776467
  Basis Set: 6-31G*
  Basis Set:
  Basis Set: 6-31G*
  Basis Set:
  @DF-RHF Final Energy:  -344.22812344761843
    Total Energy =                       -344.2281234476182590
  Basis Set: 6-31G*
  Basis Set:
  Charge       = 0
  Multiplicity = 1
  Basis Set: 6-31G*
  Basis Set:

    Orbital Energies (a.u.)
    -----------------------

    Doubly Occupied:

       1A    -15.541748     2A    -15.539260     3A    -11.238859
       4A    -11.238541     5A    -11.237928     6A    -11.237858
       7A    -11.235972     8A    -11.235737     9A     -1.254048
      10A     -1.202622    11A     -1.024838    12A     -0.991237
      13A     -0.911660    14A     -0.867203    15A     -0.835266
      16A     -0.753643    17A     -0.664998    18A     -0.636136
      19A     -0.630193    20A     -0.626173    21A     -0.619763
      22A     -0.579804    23A     -0.551240    24A     -0.546741
      25A     -0.542796    26A     -0.518123    27A     -0.496491
      28A     -0.489361    29A     -0.465781    30A     -0.455867
      31A     -0.348985    32A     -0.339815

  @DF-RHF Final Energy:  -344.22812420708220

   => Energetics <=

    Nuclear Repulsion Energy =            421.1240230272455278
    One-Electron Energy =               -1300.9869209672187935
    Two-Electron Energy =                 535.6347737328910625
    DFT Exchange-Correlation Energy =       0.0000000000000000
    Empirical Dispersion Energy =           0.0000000000000000
    PCM Polarization Energy =               0.0000000000000000
    EFP Energy =                            0.0000000000000000
    Total Energy =                       -344.2281242070821463
    Molecular point group: c1
  Basis Set: 6-31G*
  Basis Set:

  -Total Gradient:
     Atom            X                  Y                   Z
    ------   -----------------  -----------------  -----------------
       1       -0.000019529237    -0.000003016501     0.000006327682
       2        0.000326962296     0.007002295035    -0.000478415029
       3       -0.000591727883    -0.005503166593     0.002243070745
       4       -0.000148401662    -0.004550796341    -0.000161731807
       5        0.000025733489    -0.000035901749     0.000005521115
       6        0.000411042419     0.003057770520    -0.001614311104
       7       -0.000009926768     0.000028856200     0.000006472674
       8       -0.000013380042     0.000011622118     0.000008829224
       9        0.000005676992    -0.000000664765     0.000005074466
      10        0.000021800036     0.000008632111    -0.000004398910
      11       -0.000008687247    -0.000002477422    -0.000001084901
      12        0.000009189792     0.000013612428    -0.000008553410
      13       -0.000008298674    -0.000024362688     0.000009307619
      14        0.000011046917    -0.000000372568     0.000000421247
      15       -0.000000772201     0.000003593567    -0.000002493146
      16       -0.000013409875     0.000004367838    -0.000013836974
      17        0.000015799921    -0.000000998785     0.000008369193
      18       -0.000012059740    -0.000008422294    -0.000002579974
      19        0.000001534856    -0.000002478879    -0.000005710930
      20       -0.000001740466     0.000001178748     0.000000863419
      21       -0.000000731428     0.000000200339     0.000000198855
      22       -0.000000121491     0.000000529682    -0.000001340052

  **** Optimization is complete! (in 5 steps) ****
    Final optimized geometry and variables:
    Molecular point group: c1

    Geometry (in Angstrom), charge = 0, multiplicity = 1:

    H           -3.231207896091    -0.307677136051    -0.169251242810
    C           -2.706156739527     0.578010596935    -0.537869305161
    N           -1.283934565206     0.523045973319    -0.280366221874
    H           -2.890433312330     0.619797504404    -1.604548450662
    H           -3.147567771119     1.449581125810    -0.066249773802
    C           -0.515756268748    -0.127905435951    -1.321036891308
    C           -0.969462545805     0.004050407534     1.032492488376
    H           -0.771614266619    -1.187795777931    -1.418534434929
    H           -0.733866554592     0.352862523126    -2.268370482784
    C            0.972027509294    -0.004695426630    -1.029931910054
    H           -1.519626890994     0.574845304784     1.774162472663
    H           -1.271141097578    -1.043317910212     1.131941283987
    C            0.520848309754     0.121719324635     1.310274598735
    H            1.530739611505    -0.554597021052    -1.780299647323
    H            1.264025174284     1.047487348671    -1.103055018947
    N            1.281997119263    -0.552390136264     0.276449970522
    H            0.745593099193    -0.339871229601     2.266328266866
    H            0.789900336695     1.180076847224     1.381127946006
    C            2.700190860089    -0.546941369422     0.549501602770
    H            3.223347193967    -1.113433541011    -0.212854944800
    H            2.891864519124    -1.019211509061     1.506593000720
    H            3.126771470785     0.460372679403     0.576577425529

  Mulliken Charges: (a.u.)
   Center  Symbol    Alpha    Beta     Spin     Total
       1     H     0.43196  0.43196  0.00000  0.13607
       2     C     3.13802  3.13802  0.00000 -0.27604
       3     N     3.79181  3.79181  0.00000 -0.58362
       4     H     0.41902  0.41902  0.00000  0.16197
       5     H     0.41574  0.41574  0.00000  0.16851
       6     C     3.05329  3.05329  0.00000 -0.10658
       7     C     3.05386  3.05386  0.00000 -0.10772
       8     H     0.42945  0.42945  0.00000  0.14110
       9     H     0.41805  0.41805  0.00000  0.16390
      10     C     3.05705  3.05705  0.00000 -0.11409
      11     H     0.41812  0.41812  0.00000  0.16377
      12     H     0.42873  0.42873  0.00000  0.14254
      13     C     3.05652  3.05652  0.00000 -0.11304
      14     H     0.41817  0.41817  0.00000  0.16367
      15     H     0.42880  0.42880  0.00000  0.14241
      16     N     3.78719  3.78719  0.00000 -0.57439
      17     H     0.41811  0.41811  0.00000  0.16378
      18     H     0.42885  0.42885  0.00000  0.14230
      19     C     3.14016  3.14016  0.00000 -0.28032
      20     H     0.41679  0.41679  0.00000  0.16642
      21     H     0.41679  0.41679  0.00000  0.16642
      22     H     0.43353  0.43353  0.00000  0.13295

   Total alpha = 32.00000, Total beta = 32.00000, Total charge =  0.00000
