  ==> Input File <==

--------------------------------------------------------------------------
set {
	reference rhf
	basis cc-pvtz
}

set_num_threads( 4 )
memory 2 gb

molecule MOL {
0 1

H	 1.128311	 0.207724	 1.465118
C	 1.134565	 0.093781	 0.372499
C	 0.062554	 0.862911	 -0.350953
O	 1.948932	 -0.587720	 -0.146651
C	 -1.057542	 -0.039960	 -0.877093
H	 0.524109	 1.429603	 -1.149277
H	 -0.353155	 1.568401	 0.364970
C	 -0.606129	 -0.981313	 -1.990076
H	 -1.862480	 0.588710	 -1.239615
H	 -1.471288	 -0.616682	 -0.054504
H	 -0.224012	 -0.424422	 -2.838260
H	 -1.431389	 -1.591876	 -2.336195
H	 0.180771	 -1.648884	 -1.656652

	symmetry c1
}
set optking {
	frozen_dihedral = ("
		6 3 2 4
	")
}

ee = optimize('scf')
oeprop('DIPOLE', 'QUADRUPOLE', 'MULLIKEN_CHARGES')
f=open( 'psi4out.xyz', 'w' )
f.write( "13  " )
f.write( str(ee) + "\n" )
f.write( MOL.save_string_xyz() )
f.close()
--------------------------------------------------------------------------

    Molecular point group: c1
  Charge       = 0
  Multiplicity = 1
  Basis Set: CC-PVTZ
  Basis Set:
  @DF-RHF Final Energy:  -231.06748811236443
    Total Energy =                       -231.0674881123644582
    Molecular point group: c1
  Basis Set: CC-PVTZ
  Basis Set:
  Basis Set: CC-PVTZ
  Basis Set:
  @DF-RHF Final Energy:  -231.06668229265682
    Total Energy =                       -231.0666822926565658
  Basis Set: CC-PVTZ
  Basis Set:
  Basis Set: CC-PVTZ
  Basis Set:
  @DF-RHF Final Energy:  -231.06787913129321
    Total Energy =                       -231.0678791312931253
  Basis Set: CC-PVTZ
  Basis Set:
  Basis Set: CC-PVTZ
  Basis Set:
  @DF-RHF Final Energy:  -231.06798182329862
    Total Energy =                       -231.0679818232987373
  Basis Set: CC-PVTZ
  Basis Set:
  Basis Set: CC-PVTZ
  Basis Set:
  @DF-RHF Final Energy:  -231.06798343003140
    Total Energy =                       -231.0679834300312905
  Basis Set: CC-PVTZ
  Basis Set:
  Charge       = 0
  Multiplicity = 1
  Basis Set: CC-PVTZ
  Basis Set:

    Orbital Energies (a.u.)
    -----------------------

    Doubly Occupied:

       1A    -20.553251     2A    -11.322911     3A    -11.235009
       4A    -11.234155     5A    -11.209019     6A     -1.408471
       7A     -1.080648     8A     -0.971714     9A     -0.845040
      10A     -0.781865    11A     -0.681384    12A     -0.652515
      13A     -0.604213    14A     -0.594385    15A     -0.568435
      16A     -0.527629    17A     -0.502096    18A     -0.490364
      19A     -0.480745    20A     -0.410281

  @DF-RHF Final Energy:  -231.06798369806188

   => Energetics <=

    Nuclear Repulsion Energy =            175.8968875801338072
    One-Electron Energy =                -661.6214820023800485
    Two-Electron Energy =                 254.6566107241844463
    DFT Exchange-Correlation Energy =       0.0000000000000000
    Empirical Dispersion Energy =           0.0000000000000000
    PCM Polarization Energy =               0.0000000000000000
    EFP Energy =                            0.0000000000000000
    Total Energy =                       -231.0679836980617949
    Molecular point group: c1
  Basis Set: CC-PVTZ
  Basis Set:

  -Total Gradient:
     Atom            X                  Y                   Z
    ------   -----------------  -----------------  -----------------
       1        0.000003874693    -0.000001113593    -0.000011147519
       2        0.001777635801     0.002549143574    -0.000023572610
       3       -0.000845020671    -0.002488665871    -0.001253938070
       4       -0.001214755663    -0.001546372517     0.000177309683
       5        0.000000806754     0.000001158719    -0.000001253342
       6        0.000241690106     0.001477076673     0.001097653108
       7       -0.000011409959    -0.000007010408    -0.000004335778
       8        0.000035668997    -0.000011717085     0.000004390280
       9        0.000010104170     0.000015655354     0.000008557287
      10        0.000007863545     0.000009675226     0.000013371802
      11       -0.000001537037    -0.000003808703    -0.000001153654
      12       -0.000001861413     0.000000725833     0.000000741272
      13       -0.000003059325     0.000005252798    -0.000006622464

  **** Optimization is complete! (in 6 steps) ****
    Final optimized geometry and variables:
    Molecular point group: c1

    Geometry (in Angstrom), charge = 0, multiplicity = 1:

    H            0.812739078797     0.385498923397     2.100045179466
    C            0.831424524188     0.262830249445     1.010178654193
    C           -0.234566242398     1.009187182773     0.243645092069
    O            1.638520638195    -0.445754032172     0.514262620653
    C           -1.348977537642     0.088623627672    -0.279676006364
    H            0.242189021543     1.534260887260    -0.576769350377
    H           -0.667239511794     1.756133358214     0.900030490982
    C           -0.928278141429    -0.827034892230    -1.424506023527
    H           -2.167668113049     0.719625016190    -0.607292210837
    H           -1.737204112303    -0.505874551636     0.542765721106
    H           -0.585754122605    -0.247967353973    -2.275198039682
    H           -1.767606922908    -1.430851991471    -1.749822597114
    H           -0.125762961012    -1.489941544582    -1.133141245052

  Mulliken Charges: (a.u.)
   Center  Symbol    Alpha    Beta     Spin     Total
       1     H     0.45444  0.45444  0.00000  0.09112
       2     C     2.91442  2.91442  0.00000  0.17115
       3     C     3.09122  3.09122  0.00000 -0.18244
       4     O     4.16819  4.16819  0.00000 -0.33638
       5     C     3.09182  3.09182  0.00000 -0.18363
       6     H     0.44391  0.44391  0.00000  0.11218
       7     H     0.44465  0.44465  0.00000  0.11070
       8     C     3.14315  3.14315  0.00000 -0.28629
       9     H     0.44617  0.44617  0.00000  0.10766
      10     H     0.45267  0.45267  0.00000  0.09466
      11     H     0.45642  0.45642  0.00000  0.08717
      12     H     0.45054  0.45054  0.00000  0.09893
      13     H     0.44241  0.44241  0.00000  0.11518

   Total alpha = 20.00000, Total beta = 20.00000, Total charge = -0.00000
