                              Psi4 1.0.54 Driver

  ==> Input File <==

--------------------------------------------------------------------------
set {
	reference rhf
	basis cc-pvtz
}

set_num_threads( 4 )
memory 2 gb

molecule MOL {
0 1

H	 2.462362	 2.203948	 1.013070
N	 1.646532	 1.634322	 0.938479
C	 1.860978	 0.530248	 0.016256
H	 0.904127	 2.223075	 0.622957
C	 0.644130	 -0.381765	 -0.031064
H	 2.717608	 -0.034350	 0.368849
H	 2.099921	 0.862428	 -0.994940
C	 -0.678115	 0.376691	 0.025731
H	 0.693998	 -0.977147	 -0.936845
H	 0.693309	 -1.082142	 0.800523
C	 -1.900706	 -0.535531	 -0.022488
H	 -0.725296	 1.079516	 -0.802982
H	 -0.715474	 0.974884	 0.933278
C	 -3.220513	 0.226854	 0.028039
H	 -1.865036	 -1.134397	 -0.928236
H	 -1.857948	 -1.236381	 0.806820
H	 -3.309098	 0.911849	 -0.808725
H	 -4.066838	 -0.449485	 -0.008086
H	 -3.301685	 0.809374	 0.939860

	symmetry c1
}
set optking {
	frozen_dihedral = ("
		6 3 5 9
	")
}

ee,wfn = optimize('scf', return_wfn=True)
oeprop( wfn, 'DIPOLE', 'QUADRUPOLE', 'MULLIKEN_CHARGES')
f=open( 'psi4out.xyz', 'w' )
f.write( "19  " )
f.write( str(ee) + "\n" )
f.write( MOL.save_string_xyz() )
f.close()
--------------------------------------------------------------------------

    Molecular point group: c1
  Charge       = 0
  Multiplicity = 1
  Basis Set: CC-PVTZ
  Basis Set:
  @DF-RHF Final Energy:  -251.44283208736977
    Total Energy =                       -251.4428320873696521
    Molecular point group: c1
  Basis Set: CC-PVTZ
  Basis Set:
  Basis Set: CC-PVTZ
  Basis Set:
  @DF-RHF Final Energy:  -251.44356172802540
    Total Energy =                       -251.4435617280253155
  Basis Set: CC-PVTZ
  Basis Set:
  Basis Set: CC-PVTZ
  Basis Set:
  @DF-RHF Final Energy:  -251.44454991838435
    Total Energy =                       -251.4445499183844390
  Basis Set: CC-PVTZ
  Basis Set:
  Basis Set: CC-PVTZ
  Basis Set:
  @DF-RHF Final Energy:  -251.44462341721859
    Total Energy =                       -251.4446234172187360
  Basis Set: CC-PVTZ
  Basis Set:
  Basis Set: CC-PVTZ
  Basis Set:
  @DF-RHF Final Energy:  -251.44463087485670
    Total Energy =                       -251.4446308748565571
  Basis Set: CC-PVTZ
  Basis Set:
  Basis Set: CC-PVTZ
  Basis Set:
  @DF-RHF Final Energy:  -251.44463441583918
    Total Energy =                       -251.4446344158394595
  Basis Set: CC-PVTZ
  Basis Set:
  Charge       = 0
  Multiplicity = 1
  Basis Set: CC-PVTZ
  Basis Set:

    Orbital Energies (a.u.)
    -----------------------

    Doubly Occupied:

       1A    -15.526100     2A    -11.238961     3A    -11.210544
       4A    -11.208080     5A    -11.207415     6A    -11.204408
       7A     -1.177801     8A     -1.070815     9A     -0.996695
      10A     -0.907059    11A     -0.814441    12A     -0.777872
      13A     -0.665544    14A     -0.653610    15A     -0.613522
      16A     -0.585288    17A     -0.561457    18A     -0.551218
      19A     -0.526545    20A     -0.500135    21A     -0.488114
      22A     -0.463173    23A     -0.459802    24A     -0.444972
      25A     -0.382644

  @DF-RHF Final Energy:  -251.44463455546608

   => Energetics <=

    Nuclear Repulsion Energy =            250.1814602320661436
    One-Electron Energy =                -834.7797586953300879
    Two-Electron Energy =                 333.1536639077978634
    DFT Exchange-Correlation Energy =       0.0000000000000000
    Empirical Dispersion Energy =           0.0000000000000000
    PCM Polarization Energy =               0.0000000000000000
    EFP Energy =                            0.0000000000000000
    Total Energy =                       -251.4446345554661093
    Molecular point group: c1
  Basis Set: CC-PVTZ
  Basis Set:

  -Total Gradient:
     Atom            X                  Y                   Z
    ------   -----------------  -----------------  -----------------
       1        0.000000887669     0.000001567068    -0.000002792653
       2        0.000000269913    -0.000002751140     0.000010475576
       3        0.000427101338    -0.000902324815    -0.007286376231
       4       -0.000001544013    -0.000000636745    -0.000005125260
       5        0.003459473799    -0.004642868088     0.004377828699
       6       -0.000884850799     0.001460599704     0.005488046269
       7        0.000000888771    -0.000001033443     0.000004984658
       8        0.000012072642     0.000002086899     0.000013799725
       9       -0.003002999441     0.004084850888    -0.002605995854
      10       -0.000002256135     0.000005366156    -0.000000723295
      11       -0.000009683433    -0.000004607212     0.000006305605
      12        0.000009095349    -0.000006525291     0.000003083027
      13       -0.000011134140     0.000005781963     0.000002513720
      14        0.000003082912    -0.000001160498    -0.000005632893
      15       -0.000003015732     0.000005149967     0.000001106507
      16        0.000002814262    -0.000003210168    -0.000001625889
      17       -0.000002795242     0.000000848705     0.000000195157
      18        0.000000623343     0.000000581721     0.000001427492
      19        0.000001968933    -0.000001715672    -0.000001494363

  **** Optimization is complete! (in 7 steps) ****
    Final optimized geometry and variables:
    Molecular point group: c1

    Geometry (in Angstrom), charge = 0, multiplicity = 1:

    H            2.927556021072     1.725044543030     0.846966284608
    N            2.042090452501     1.273359335273     0.762605380782
    C            2.113473425728     0.183663033410    -0.203713777943
    H            1.385025834233     1.969724230651     0.482680939596
    C            0.870115533216    -0.708120012466    -0.166935869291
    H            2.969424551187    -0.411235264113     0.092140898431
    H            2.281655202012     0.534761247776    -1.221092292383
    C           -0.455506849771     0.051786644254    -0.108959581121
    H            0.857907909864    -1.299020744747    -1.078962721559
    H            0.930427883673    -1.386753738437     0.676687984843
    C           -1.669844525109    -0.869094810865    -0.194064531541
    H           -0.498831699317     0.769672996406    -0.927174162059
    H           -0.509541347744     0.623056446917     0.810998753856
    C           -2.996211408710    -0.119985737483    -0.121154823482
    H           -1.628221954600    -1.437657516730    -1.119156069449
    H           -1.622908534966    -1.596224503368     0.612003242981
    H           -3.088773162629     0.592532944997    -0.934369656470
    H           -3.836904065077    -0.801631988009    -0.182610711482
    H           -3.083848604102     0.430048067797     0.809869007175

  Mulliken Charges: (a.u.)
   Center  Symbol    Alpha    Beta     Spin     Total
       1     H     0.42940  0.42940  0.00000  0.14120
       2     N     3.69258  3.69258  0.00000 -0.38516
       3     C     3.03854  3.03854  0.00000 -0.07707
       4     H     0.42723  0.42723  0.00000  0.14555
       5     C     3.07627  3.07627  0.00000 -0.15253
       6     H     0.45370  0.45370  0.00000  0.09261
       7     H     0.46346  0.46346  0.00000  0.07308
       8     C     3.09750  3.09750  0.00000 -0.19499
       9     H     0.45721  0.45721  0.00000  0.08559
      10     H     0.45389  0.45389  0.00000  0.09223
      11     C     3.08486  3.08486  0.00000 -0.16972
      12     H     0.45764  0.45764  0.00000  0.08471
      13     H     0.44849  0.44849  0.00000  0.10301
      14     C     3.15003  3.15003  0.00000 -0.30006
      15     H     0.45547  0.45547  0.00000  0.08907
      16     H     0.45395  0.45395  0.00000  0.09210
      17     H     0.45622  0.45622  0.00000  0.08756
      18     H     0.44874  0.44874  0.00000  0.10252
      19     H     0.45484  0.45484  0.00000  0.09032

   Total alpha = 25.00000, Total beta = 25.00000, Total charge =  0.00000

*** Psi4 exiting successfully. Buy a developer a beer!
