  ==> Input File <==

--------------------------------------------------------------------------
set {
	reference rhf
	basis 6-31G*
}

set_num_threads( 1 )
memory 2 gb

molecule MOL {
0 1

H	 -2.844839	 -2.057658	 2.789134
C	 -2.663517	 -1.513080	 1.882923
C	 -1.466603	 -1.521013	 1.343170
H	 -3.476678	 -0.970770	 1.438422
O	 -1.180634	 -0.819263	 0.215062
H	 -0.640829	 -2.063504	 1.768608
C	 0.051604	 -1.018856	 -0.387932
C	 1.043764	 0.054862	 -0.001873
H	 -0.017620	 -1.041351	 -1.469781
H	 0.437898	 -1.966374	 -0.042284
F	 2.212596	 -0.199467	 -0.571921
F	 0.652529	 1.252447	 -0.405055
F	 1.230877	 0.110694	 1.300533

	symmetry c1
}
set optking {
	frozen_dihedral = ("
		11 8 7 9,
		6 3 2 1,
		6 3 5 7
	")
}

ee = energy('scf')
oeprop('DIPOLE', 'QUADRUPOLE', 'MULLIKEN_CHARGES')
f=open( 'psi4out.xyz', 'w' )
f.write( "13  " )
f.write( str(ee) + "\n" )
f.write( MOL.save_string_xyz() )
f.close()
--------------------------------------------------------------------------

    Molecular point group: c1

    Geometry (in Angstrom), charge = 0, multiplicity = 1:

       Center              X                  Y                   Z               Mass
    ------------   -----------------  -----------------  -----------------  -----------------
           H         -2.971183271292    -1.683648195582     2.407146420865     1.007825032070
           C         -2.789861271292    -1.139070195582     1.500935420865    12.000000000000
           C         -1.592947271292    -1.147003195582     0.961182420865    12.000000000000
           H         -3.603022271292    -0.596760195582     1.056434420865     1.007825032070
           O         -1.306978271292    -0.445253195582    -0.166925579135    15.994914619560
           H         -0.767173271292    -1.689494195582     1.386620420865     1.007825032070
           C         -0.074740271292    -0.644846195582    -0.769919579135    12.000000000000
           C          0.917419728708     0.428871804418    -0.383860579135    12.000000000000
           H         -0.143964271292    -0.667341195582    -1.851768579135     1.007825032070
           H          0.311553728708    -1.592364195582    -0.424271579135     1.007825032070
           F          2.086251728708     0.174542804418    -0.953908579135    18.998403224000
           F          0.526184728708     1.626456804418    -0.787042579135    18.998403224000
           F          1.104532728708     0.484703804418     0.918545420865    18.998403224000

  Charge       = 0
  Multiplicity = 1
  Basis Set: 6-31G*
  Basis Set:

    Orbital Energies (a.u.)
    -----------------------

    Doubly Occupied:

       1A    -26.345206     2A    -26.344742     3A    -26.338063
       4A    -20.607485     5A    -11.503247     6A    -11.319367
       7A    -11.301247     8A    -11.217361     9A     -1.741542
      10A     -1.641463    11A     -1.635850    12A     -1.438153
      13A     -1.084742    14A     -1.016916    15A     -0.925035
      16A     -0.836064    17A     -0.831452    18A     -0.818830
      19A     -0.795154    20A     -0.724052    21A     -0.711072
      22A     -0.698153    23A     -0.676586    24A     -0.659368
      25A     -0.654440    26A     -0.642568    27A     -0.630153
      28A     -0.590597    29A     -0.561302    30A     -0.525963
      31A     -0.511389    32A     -0.352690

  @DF-RHF Final Energy:  -527.53396278804939

   => Energetics <=

    Nuclear Repulsion Energy =            411.0064214836384622
    One-Electron Energy =               -1545.7201864257194757
    Two-Electron Energy =                 607.1798021540319041
    DFT Exchange-Correlation Energy =       0.0000000000000000
    Empirical Dispersion Energy =           0.0000000000000000
    PCM Polarization Energy =               0.0000000000000000
    EFP Energy =                            0.0000000000000000
    Total Energy =                       -527.5339627880491662

  Mulliken Charges: (a.u.)
   Center  Symbol    Alpha    Beta     Spin     Total
       1     H     0.40677  0.40677  0.00000  0.18646
       2     C     3.23540  3.23540  0.00000 -0.47081
       3     C     2.89627  2.89627  0.00000  0.20746
       4     H     0.40136  0.40136  0.00000  0.19728
       5     O     4.30263  4.30263  0.00000 -0.60527
       6     H     0.40580  0.40580  0.00000  0.18841
       7     C     3.06119  3.06119  0.00000 -0.12237
       8     C     2.45463  2.45463  0.00000  1.09074
       9     H     0.39042  0.39042  0.00000  0.21916
      10     H     0.40818  0.40818  0.00000  0.18364
      11     F     4.68279  4.68279  0.00000 -0.36558
      12     F     4.67743  4.67743  0.00000 -0.35486
      13     F     4.67713  4.67713  0.00000 -0.35426

   Total alpha = 32.00000, Total beta = 32.00000, Total charge = -0.00000
