  ==> Input File <==

--------------------------------------------------------------------------
set {
	reference rhf
	basis 6-31G*
}

set_num_threads( 1 )
memory 2 gb

molecule MOL {
0 1

H	 -4.236494	 0.538104	 0.039757
O	 -3.517110	 -0.026191	 -0.205115
C	 -2.306886	 0.532354	 0.237577
C	 -1.177863	 -0.397191	 -0.171080
H	 -2.156308	 1.517575	 -0.201710
H	 -2.315015	 0.655684	 1.319734
C	 0.198102	 0.111031	 0.262842
H	 -1.208843	 -0.518759	 -1.250427
H	 -1.368741	 -1.376554	 0.258909
C	 1.331804	 -0.827780	 -0.158768
H	 0.361943	 1.100838	 -0.156218
H	 0.217265	 0.229072	 1.345532
C	 2.723619	 -0.410569	 0.329459
H	 1.342964	 -0.912588	 -1.244120
H	 1.116806	 -1.824343	 0.220779
C	 3.798477	 -1.489433	 0.184322
H	 2.650381	 -0.130826	 1.377538
H	 3.037275	 0.485857	 -0.201772
H	 3.506037	 -2.402727	 0.695608
H	 3.987552	 -1.738049	 -0.854725
H	 4.738205	 -1.157363	 0.614898

	symmetry c1
}
set optking {
	frozen_dihedral = ("
		2 3 4 8,
		8 4 7 10,
		4 7 10 14,
		1 2 3 5
	")
}

ee = energy('scf')
oeprop('DIPOLE', 'QUADRUPOLE', 'MULLIKEN_CHARGES')
f=open( 'psi4out.xyz', 'w' )
f.write( "21  " )
f.write( str(ee) + "\n" )
f.write( MOL.save_string_xyz() )
f.close()
--------------------------------------------------------------------------

    Molecular point group: c1

    Geometry (in Angstrom), charge = 0, multiplicity = 1:

       Center              X                  Y                   Z               Mass
    ------------   -----------------  -----------------  -----------------  -----------------
           H         -4.317782125679     0.888483996903    -0.027924435363     1.007825032070
           O         -3.598398125679     0.324188996903    -0.272796435363    15.994914619560
           C         -2.388174125679     0.882733996903     0.169895564637    12.000000000000
           C         -1.259151125679    -0.046811003097    -0.238761435363    12.000000000000
           H         -2.237596125679     1.867954996903    -0.269391435363     1.007825032070
           H         -2.396303125679     1.006063996903     1.252052564637     1.007825032070
           C          0.116813874321     0.461410996903     0.195160564637    12.000000000000
           H         -1.290131125679    -0.168379003097    -1.318108435363     1.007825032070
           H         -1.450029125679    -1.026174003097     0.191227564637     1.007825032070
           C          1.250515874321    -0.477400003097    -0.226449435363    12.000000000000
           H          0.280654874321     1.451217996903    -0.223899435363     1.007825032070
           H          0.135976874321     0.579451996903     1.277850564637     1.007825032070
           C          2.642330874321    -0.060189003097     0.261777564637    12.000000000000
           H          1.261675874321    -0.562208003097    -1.311801435363     1.007825032070
           H          1.035517874321    -1.473963003097     0.153097564637     1.007825032070
           C          3.717188874321    -1.139053003097     0.116640564637    12.000000000000
           H          2.569092874321     0.219553996903     1.309856564637     1.007825032070
           H          2.955986874321     0.836236996903    -0.269453435363     1.007825032070
           H          3.424748874321    -2.052347003097     0.627926564637     1.007825032070
           H          3.906263874321    -1.387669003097    -0.922406435363     1.007825032070
           H          4.656916874321    -0.806983003097     0.547216564637     1.007825032070

  Charge       = 0
  Multiplicity = 1
  Basis Set: 6-31G*
  Basis Set:

    Orbital Energies (a.u.)
    -----------------------

    Doubly Occupied:

       1A    -20.551986     2A    -11.267252     3A    -11.216607
       4A    -11.214955     5A    -11.213448     6A    -11.210907
       7A    -11.208567     8A     -1.358810     9A     -1.085431
      10A     -1.034320    11A     -0.957081    12A     -0.868345
      13A     -0.802365    14A     -0.789820    15A     -0.691929
      16A     -0.663954    17A     -0.631838    18A     -0.595952
      19A     -0.580972    20A     -0.561770    21A     -0.548254
      22A     -0.521544    23A     -0.507788    24A     -0.483881
      25A     -0.477743    26A     -0.460628    27A     -0.459849
      28A     -0.444731    29A     -0.434118

  @DF-RHF Final Energy:  -310.21341951377900

   => Energetics <=

    Nuclear Repulsion Energy =            308.5125393645759573
    One-Electron Energy =               -1031.7622599366288796
    Two-Electron Energy =                 413.0363010582744892
    DFT Exchange-Correlation Energy =       0.0000000000000000
    Empirical Dispersion Energy =           0.0000000000000000
    PCM Polarization Energy =               0.0000000000000000
    EFP Energy =                            0.0000000000000000
    Total Energy =                       -310.2134195137783763

  Mulliken Charges: (a.u.)
   Center  Symbol    Alpha    Beta     Spin     Total
       1     H     0.28114  0.28114  0.00000  0.43772
       2     O     4.37178  4.37178  0.00000 -0.74356
       3     C     2.98974  2.98974  0.00000  0.02052
       4     C     3.15956  3.15956  0.00000 -0.31911
       5     H     0.43283  0.43283  0.00000  0.13434
       6     H     0.43280  0.43280  0.00000  0.13439
       7     C     3.16026  3.16026  0.00000 -0.32052
       8     H     0.41466  0.41466  0.00000  0.17068
       9     H     0.41458  0.41458  0.00000  0.17084
      10     C     3.15029  3.15029  0.00000 -0.30057
      11     H     0.42320  0.42320  0.00000  0.15359
      12     H     0.42360  0.42360  0.00000  0.15279
      13     C     3.15154  3.15154  0.00000 -0.30308
      14     H     0.42232  0.42232  0.00000  0.15536
      15     H     0.42332  0.42332  0.00000  0.15335
      16     C     3.23937  3.23937  0.00000 -0.47874
      17     H     0.42402  0.42402  0.00000  0.15196
      18     H     0.42295  0.42295  0.00000  0.15410
      19     H     0.42158  0.42158  0.00000  0.15684
      20     H     0.42103  0.42103  0.00000  0.15794
      21     H     0.41942  0.41942  0.00000  0.16116

   Total alpha = 29.00000, Total beta = 29.00000, Total charge = -0.00000
