                              Psi4 1.0.54 Driver

  ==> Input File <==

--------------------------------------------------------------------------
set {
	reference rhf
	basis cc-pvtz
}

set_num_threads( 4 )
memory 2 gb

molecule MOL {
0 1

H	 -2.816458	 -0.841657	 -0.064679
N	 -1.878861	 -0.711874	 0.250184
C	 -1.341419	 0.551458	 -0.220231
H	 -1.333674	 -1.468530	 -0.105118
C	 0.082190	 0.731516	 0.254705
H	 -1.357065	 0.652078	 -1.304747
H	 -1.939897	 1.357530	 0.189797
O	 0.268141	 -0.021050	 1.415211
H	 0.774353	 0.402713	 -0.519227
H	 0.270138	 1.783794	 0.455490
C	 1.523642	 0.113213	 1.993927
H	 1.552121	 -0.511560	 2.874968
H	 2.311022	 -0.205704	 1.314207
H	 1.718543	 1.142054	 2.287291

	symmetry c1
}
set optking {
	frozen_dihedral = ("
		8 5 3 6
	")
}

ee,wfn = optimize('scf', return_wfn=True)
oeprop( wfn, 'DIPOLE', 'QUADRUPOLE', 'MULLIKEN_CHARGES')
f=open( 'psi4out.xyz', 'w' )
f.write( "14  " )
f.write( str(ee) + "\n" )
f.write( MOL.save_string_xyz() )
f.close()
--------------------------------------------------------------------------

    Molecular point group: c1
  Charge       = 0
  Multiplicity = 1
  Basis Set: CC-PVTZ
  Basis Set:
  @DF-RHF Final Energy:  -248.21261812518122
    Total Energy =                       -248.2126181251810522
    Molecular point group: c1
  Basis Set: CC-PVTZ
  Basis Set:
  Basis Set: CC-PVTZ
  Basis Set:
  @DF-RHF Final Energy:  -248.21160141942167
    Total Energy =                       -248.2116014194217541
  Basis Set: CC-PVTZ
  Basis Set:
  Basis Set: CC-PVTZ
  Basis Set:
  @DF-RHF Final Energy:  -248.21491158953958
    Total Energy =                       -248.2149115895396108
  Basis Set: CC-PVTZ
  Basis Set:
  Basis Set: CC-PVTZ
  Basis Set:
  @DF-RHF Final Energy:  -248.21511499135249
    Total Energy =                       -248.2151149913523795
  Basis Set: CC-PVTZ
  Basis Set:
  @DF-RHF Final Energy:  -248.21520047888328
    Total Energy =                       -248.2152004788832187
  @DF-RHF Final Energy:  -248.21527611136648
    Total Energy =                       -248.2152761113665065
  @DF-RHF Final Energy:  -248.21531848521244
    Total Energy =                       -248.2153184852123786
  @DF-RHF Final Energy:  -248.21534306222912
    Total Energy =                       -248.2153430622291239
  @DF-RHF Final Energy:  -248.21536608119905
    Total Energy =                       -248.2153660811990221
  @DF-RHF Final Energy:  -248.21539197083263
    Total Energy =                       -248.2153919708326271
  @DF-RHF Final Energy:  -248.21537575532511
    Total Energy =                       -248.2153757553251694
  @DF-RHF Final Energy:  -248.21515179140789
    Total Energy =                       -248.2151517914078909
  @DF-RHF Final Energy:  -248.21553314809100
    Total Energy =                       -248.2155331480909695
  @DF-RHF Final Energy:  -248.21566559691763
    Total Energy =                       -248.2156655969178018
  @DF-RHF Final Energy:  -248.21629883025835
    Total Energy =                       -248.2162988302584381
  @DF-RHF Final Energy:  -248.21645516111198
    Total Energy =                       -248.2164551611119805
  @DF-RHF Final Energy:  -248.21530376624276
    Total Energy =                       -248.2153037662428687
  @DF-RHF Final Energy:  -248.21538715085450
    Total Energy =                       -248.2153871508543261
  @DF-RHF Final Energy:  -248.21710510155447
    Total Energy =                       -248.2171051015544663
  @DF-RHF Final Energy:  -248.21745509049231
    Total Energy =                       -248.2174550904921375
  @DF-RHF Final Energy:  -248.21794759681455
    Total Energy =                       -248.2179475968143834
  @DF-RHF Final Energy:  -248.21717962502285
    Total Energy =                       -248.2171796250228226
  @DF-RHF Final Energy:  -248.21997835143029
    Total Energy =                       -248.2199783514304841
  @DF-RHF Final Energy:  -248.21917798809008
    Total Energy =                       -248.2191779880903368
  Basis Set: CC-PVTZ
  Basis Set:
  @DF-RHF Final Energy:  -248.22068072677109
    Total Energy =                       -248.2206807267712065
  Basis Set: CC-PVTZ
  Basis Set:
  Basis Set: CC-PVTZ
  Basis Set:
  @DF-RHF Final Energy:  -248.22079581532032
    Total Energy =                       -248.2207958153203435
  Basis Set: CC-PVTZ
  Basis Set:
  Basis Set: CC-PVTZ
  Basis Set:
  @DF-RHF Final Energy:  -248.22080214457222
    Total Energy =                       -248.2208021445720760
  Basis Set: CC-PVTZ
  Basis Set:
  Charge       = 0
  Multiplicity = 1
  Basis Set: CC-PVTZ
  Basis Set:

    Orbital Energies (a.u.)
    -----------------------

    Doubly Occupied:

       1A    -20.554637     2A    -15.520848     3A    -11.267461
       4A    -11.267361     5A    -11.241029     6A     -1.388955
       7A     -1.173602     8A     -0.997469     9A     -0.912430
      10A     -0.820369    11A     -0.689452    12A     -0.667372
      13A     -0.648712    14A     -0.641250    15A     -0.575637
      16A     -0.554213    17A     -0.526353    18A     -0.501698
      19A     -0.480369    20A     -0.421648    21A     -0.381796

  @DF-RHF Final Energy:  -248.22080266066320

   => Energetics <=

    Nuclear Repulsion Energy =            194.8894901498059653
    One-Electron Energy =                -723.7552601572180038
    Two-Electron Energy =                 280.6449673467486718
    DFT Exchange-Correlation Energy =       0.0000000000000000
    Empirical Dispersion Energy =           0.0000000000000000
    PCM Polarization Energy =               0.0000000000000000
    EFP Energy =                            0.0000000000000000
    Total Energy =                       -248.2208026606633666
    Molecular point group: c1
  Basis Set: CC-PVTZ
  Basis Set:

  -Total Gradient:
     Atom            X                  Y                   Z
    ------   -----------------  -----------------  -----------------
       1        0.000020857489    -0.000011878886    -0.000006332978
       2       -0.000021868207    -0.000044849332     0.000037137235
       3       -0.002974753904     0.006132813796     0.001923541867
       4        0.000002599638     0.000003218256    -0.000025333703
       5       -0.002587567911     0.002058810066     0.004947023868
       6        0.003097700575    -0.005623696089    -0.002651465942
       7        0.000009884828    -0.000008651001    -0.000004886772
       8        0.002462865335    -0.002498518863    -0.004207848765
       9       -0.000001713652     0.000004610900    -0.000011015782
      10        0.000001154024     0.000007725941    -0.000004480774
      11       -0.000004311013    -0.000020829825     0.000018933466
      12        0.000006939400     0.000003778454    -0.000000820714
      13       -0.000005285565     0.000001558536    -0.000003663959
      14       -0.000006501036    -0.000004091954    -0.000010787044

  **** Optimization is complete! (in 28 steps) ****
    Final optimized geometry and variables:
    Molecular point group: c1

    Geometry (in Angstrom), charge = 0, multiplicity = 1:

    H           -0.781585262541    -1.534041918371    -1.509964287400
    N           -1.417684945827    -1.167050970622    -0.832920334916
    C           -1.290875771823     0.275188553826    -0.741358349803
    H           -1.175841009638    -1.588731178254     0.038059154903
    C            0.070060782539     0.792370631016    -0.254238444034
    H           -1.455935440225     0.659272084192    -1.740950781296
    H           -2.079904414768     0.644647968967    -0.099095792177
    O            0.644434621515    -0.118994491916     0.628895759761
    H            0.739167487582     0.928739066057    -1.104566193284
    H           -0.049076315557     1.765131617057     0.219972793198
    C            1.865844412042     0.283243561139     1.153846518137
    H            2.222188663936    -0.502228322169     1.804519764750
    H            2.600435118696     0.447507886602     0.368368052051
    H            1.770462449125     1.199869819750     1.731259725899

  Mulliken Charges: (a.u.)
   Center  Symbol    Alpha    Beta     Spin     Total
       1     H     0.43455  0.43455  0.00000  0.13090
       2     N     3.68350  3.68350  0.00000 -0.36699
       3     C     3.04080  3.04080  0.00000 -0.08160
       4     H     0.42367  0.42367  0.00000  0.15267
       5     C     2.96808  2.96808  0.00000  0.06384
       6     H     0.45456  0.45456  0.00000  0.09087
       7     H     0.45148  0.45148  0.00000  0.09703
       8     O     4.17633  4.17633  0.00000 -0.35267
       9     H     0.47683  0.47683  0.00000  0.04634
      10     H     0.47205  0.47205  0.00000  0.05589
      11     C     3.02918  3.02918  0.00000 -0.05837
      12     H     0.44728  0.44728  0.00000  0.10544
      13     H     0.47162  0.47162  0.00000  0.05676
      14     H     0.47006  0.47006  0.00000  0.05989

   Total alpha = 21.00000, Total beta = 21.00000, Total charge = -0.00000

*** Psi4 exiting successfully. Buy a developer a beer!
