                              Psi4 1.0.54 Driver

  ==> Input File <==

--------------------------------------------------------------------------
set {
	reference rhf
	basis cc-pvtz
}

set_num_threads( 4 )
memory 2 gb

molecule MOL {
0 1

O	 1.371122	 2.121051	 -0.201400
C	 0.322703	 2.515850	 -0.583489
C	 -0.965762	 1.734014	 -0.568308
O	 0.144063	 3.726649	 -1.085951
C	 -0.824290	 0.329213	 -0.000115
H	 -1.687183	 2.315571	 -0.003689
H	 -1.338578	 1.710275	 -1.587075
C	 -2.146151	 -0.432825	 -0.000068
H	 -0.434095	 0.389773	 1.009516
H	 -0.084880	 -0.216149	 -0.575565
C	 -3.366283	 0.483552	 0.000557
H	 -2.189286	 -1.084450	 -0.869996
H	 -2.188867	 -1.085083	 0.869399
C	 -4.687436	 -0.278003	 0.000108
H	 -3.325150	 1.134819	 -0.867957
H	 -3.325087	 1.133730	 0.869885
H	 -4.773783	 -0.912098	 -0.876078
H	 -5.531922	 0.401392	 0.000363
H	 -4.773901	 -0.912898	 0.875703
C	 1.274378	 4.571770	 -1.160019
H	 1.683249	 4.748770	 -0.176297
H	 0.926659	 5.496780	 -1.590478
H	 2.037939	 4.133354	 -1.785302

	symmetry c1
}
set optking {
	frozen_dihedral = ("
		9 5 8 12
	")
}

ee,wfn = optimize('scf', return_wfn=True)
oeprop( wfn, 'DIPOLE', 'QUADRUPOLE', 'MULLIKEN_CHARGES')
f=open( 'psi4out.xyz', 'w' )
f.write( "23  " )
f.write( str(ee) + "\n" )
f.write( MOL.save_string_xyz() )
f.close()
--------------------------------------------------------------------------

    Molecular point group: c1
  Charge       = 0
  Multiplicity = 1
  Basis Set: CC-PVTZ
  Basis Set:
  @DF-RHF Final Energy:  -423.12011814476489
    Total Energy =                       -423.1201181447647741
    Molecular point group: c1
  Basis Set: CC-PVTZ
  Basis Set:
  Basis Set: CC-PVTZ
  Basis Set:
  @DF-RHF Final Energy:  -423.11829834358582
    Total Energy =                       -423.1182983435862752
  Basis Set: CC-PVTZ
  Basis Set:
  Basis Set: CC-PVTZ
  Basis Set:
  @DF-RHF Final Energy:  -423.12396308694309
    Total Energy =                       -423.1239630869429220
  Basis Set: CC-PVTZ
  Basis Set:
  Basis Set: CC-PVTZ
  Basis Set:
  @DF-RHF Final Energy:  -423.12425120223730
    Total Energy =                       -423.1242512022370192
  Basis Set: CC-PVTZ
  Basis Set:
  @DF-RHF Final Energy:  -423.12179187751610
    Total Energy =                       -423.1217918775162161
  Basis Set: CC-PVTZ
  Basis Set:
  @DF-RHF Final Energy:  -423.12432365794132
    Total Energy =                       -423.1243236579418863
  Basis Set: CC-PVTZ
  Basis Set:
  Basis Set: CC-PVTZ
  Basis Set:
  @DF-RHF Final Energy:  -423.12436363186799
    Total Energy =                       -423.1243636318679364
  Basis Set: CC-PVTZ
  Basis Set:
  Basis Set: CC-PVTZ
  Basis Set:
  @DF-RHF Final Energy:  -423.12436674710102
    Total Energy =                       -423.1243667471010212
  Basis Set: CC-PVTZ
  Basis Set:
  Charge       = 0
  Multiplicity = 1
  Basis Set: CC-PVTZ
  Basis Set:

    Orbital Energies (a.u.)
    -----------------------

    Doubly Occupied:

       1A    -20.596052     2A    -20.533975     3A    -11.364367
       4A    -11.278319     5A    -11.233488     6A    -11.217561
       7A    -11.217093     8A    -11.215645     9A    -11.209317
      10A     -1.472010    11A     -1.365604    12A     -1.092978
      13A     -1.043195    14A     -0.987649    15A     -0.933936
      16A     -0.854216    17A     -0.793196    18A     -0.761884
      19A     -0.702188    20A     -0.685988    21A     -0.675079
      22A     -0.646409    23A     -0.611751    24A     -0.602439
      25A     -0.579626    26A     -0.559388    27A     -0.553474
      28A     -0.527397    29A     -0.522354    30A     -0.513484
      31A     -0.493991    32A     -0.467972    33A     -0.462169
      34A     -0.459302    35A     -0.451720    36A     -0.440777

  @DF-RHF Final Energy:  -423.12436700416401

   => Energetics <=

    Nuclear Repulsion Energy =            458.7432362770649661
    One-Electron Energy =               -1485.4832203969299371
    Two-Electron Energy =                 603.6156171157010704
    DFT Exchange-Correlation Energy =       0.0000000000000000
    Empirical Dispersion Energy =           0.0000000000000000
    PCM Polarization Energy =               0.0000000000000000
    EFP Energy =                            0.0000000000000000
    Total Energy =                       -423.1243670041637870
    Molecular point group: c1
  Basis Set: CC-PVTZ
  Basis Set:

  -Total Gradient:
     Atom            X                  Y                   Z
    ------   -----------------  -----------------  -----------------
       1       -0.000010464623    -0.000011342416     0.000011209002
       2        0.000015059148     0.000042244858    -0.000018767132
       3        0.000012666525    -0.000002329445    -0.000014747208
       4       -0.000030059236    -0.000038001975     0.000008518770
       5       -0.003459900293     0.005448112785     0.001929683002
       6        0.000000934133    -0.000000477148     0.000006834704
       7       -0.000008689070     0.000007397565     0.000000769457
       8       -0.002526912922     0.004410770836    -0.004250406563
       9        0.003290617489    -0.005264515704    -0.000934139685
      10        0.000001661710    -0.000003947266    -0.000003467647
      11        0.000005201621    -0.000008002193     0.000018901670
      12        0.002705075692    -0.004592206855     0.003249454998
      13       -0.000003353495     0.000002752647    -0.000001084442
      14        0.000000092811     0.000002690871    -0.000012293717
      15       -0.000005266669    -0.000009604744     0.000003415499
      16       -0.000002557299     0.000013232757     0.000004475773
      17       -0.000000803864    -0.000002464036     0.000003175142
      18       -0.000000895507     0.000000547096    -0.000000870356
      19        0.000001685799     0.000005376924    -0.000002228959
      20        0.000036069323     0.000011461825    -0.000000164464
      21       -0.000006196192    -0.000003573877    -0.000004096980
      22       -0.000008630730    -0.000009381860     0.000002990687
      23       -0.000005334355     0.000001259366     0.000002838447

  **** Optimization is complete! (in 9 steps) ****
    Final optimized geometry and variables:
    Molecular point group: c1

    Geometry (in Angstrom), charge = 0, multiplicity = 1:

    O            2.344552641656     0.429081200744     0.237104971248
    C            1.332276272188     0.873112558314    -0.185977917629
    C           -0.000899823300     0.168790885982    -0.195905235812
    O            1.238769922730     2.080550986869    -0.719358823856
    C            0.054575343514    -1.225403448256     0.411784879785
    H           -0.700592171817     0.813205139140     0.322174943042
    H           -0.334776857230     0.137718078141    -1.227911718697
    C           -1.254773938856    -2.035674591306     0.352661598223
    H            0.416866066065    -1.179095448479     1.431564577371
    H            0.820680749584    -1.786978774670    -0.109927752766
    C           -2.562727252010    -1.255045229387     0.449799133495
    H           -1.253605484582    -2.663285503234    -0.534201642146
    H           -1.228252261796    -2.744704524981     1.175801622784
    C           -3.783042866913    -2.169195689172     0.491906759932
    H           -2.659865041897    -0.576780802497    -0.391503372431
    H           -2.549983373690    -0.635645674057     1.342918519572
    H           -3.839230958159    -2.786275670767    -0.398693940427
    H           -4.700698728902    -1.595857141122     0.555190804675
    H           -3.746551617577    -2.832030084742     1.349775898508
    C            2.417589846001     2.857840459058    -0.776081836819
    H            2.806355421052     3.034050251845     0.215903240988
    H            2.136887733185     3.790988079282    -1.236882876868
    H            3.173094394909     2.362373026219    -1.367662933950

  Mulliken Charges: (a.u.)
   Center  Symbol    Alpha    Beta     Spin     Total
       1     O     4.19661  4.19661  0.00000 -0.39322
       2     C     2.81085  2.81085  0.00000  0.37831
       3     C     3.10085  3.10085  0.00000 -0.20171
       4     O     4.14654  4.14654  0.00000 -0.29308
       5     C     3.09166  3.09166  0.00000 -0.18333
       6     H     0.43639  0.43639  0.00000  0.12721
       7     H     0.43850  0.43850  0.00000  0.12301
       8     C     3.09499  3.09499  0.00000 -0.18998
       9     H     0.44402  0.44402  0.00000  0.11195
      10     H     0.44334  0.44334  0.00000  0.11333
      11     C     3.09183  3.09183  0.00000 -0.18366
      12     H     0.45100  0.45100  0.00000  0.09799
      13     H     0.45054  0.45054  0.00000  0.09893
      14     C     3.15069  3.15069  0.00000 -0.30138
      15     H     0.45168  0.45168  0.00000  0.09663
      16     H     0.45214  0.45214  0.00000  0.09572
      17     H     0.45468  0.45468  0.00000  0.09064
      18     H     0.44787  0.44787  0.00000  0.10426
      19     H     0.45364  0.45364  0.00000  0.09272
      20     C     3.03837  3.03837  0.00000 -0.07675
      21     H     0.45437  0.45437  0.00000  0.09126
      22     H     0.44518  0.44518  0.00000  0.10964
      23     H     0.45425  0.45425  0.00000  0.09150

   Total alpha = 36.00000, Total beta = 36.00000, Total charge = -0.00000

*** Psi4 exiting successfully. Buy a developer a beer!
