                              Psi4 1.0.54 Driver

  ==> Input File <==

--------------------------------------------------------------------------
set {
	reference rhf
	basis cc-pvtz
}

set_num_threads( 4 )
memory 2 gb

molecule MOL {
0 1

H	 1.307046	 2.616099	 4.256169
C	 0.819617	 1.672886	 4.538389
C	 -0.373528	 1.300815	 3.700619
O	 1.235129	 1.041190	 5.447024
C	 -0.075264	 1.329108	 2.198649
H	 -0.728264	 0.329086	 4.018799
H	 -1.149319	 2.029702	 3.924622
C	 0.902892	 0.246517	 1.747660
H	 -1.010554	 1.216317	 1.661201
H	 0.312494	 2.307949	 1.927157
C	 1.181757	 0.280428	 0.247371
H	 0.504241	 -0.727281	 2.019511
H	 1.840059	 0.348641	 2.288693
C	 2.151032	 -0.811012	 -0.202643
H	 0.241668	 0.186570	 -0.287201
H	 1.589728	 1.252796	 -0.019757
C	 3.580021	 -0.656538	 0.320835
H	 2.170545	 -0.847575	 -1.289412
H	 1.766632	 -1.772905	 0.124928
C	 4.327657	 0.562694	 -0.213579
H	 4.138806	 -1.549270	 0.057813
H	 3.561991	 -0.620783	 1.406976
H	 4.355973	 0.557257	 -1.298551
H	 3.867136	 1.491650	 0.100501
H	 5.351524	 0.571613	 0.142204

	symmetry c1
}
set optking {
	frozen_dihedral = ("
		8 11 14 18
	")
}

ee,wfn = optimize('scf', return_wfn=True)
oeprop( wfn, 'DIPOLE', 'QUADRUPOLE', 'MULLIKEN_CHARGES')
f=open( 'psi4out.xyz', 'w' )
f.write( "25  " )
f.write( str(ee) + "\n" )
f.write( MOL.save_string_xyz() )
f.close()
--------------------------------------------------------------------------

    Molecular point group: c1
  Charge       = 0
  Multiplicity = 1
  Basis Set: CC-PVTZ
  Basis Set:
  @DF-RHF Final Energy:  -387.25813574387780
    Total Energy =                       -387.2581357438783698
    Molecular point group: c1
  Basis Set: CC-PVTZ
  Basis Set:
  Basis Set: CC-PVTZ
  Basis Set:
  @DF-RHF Final Energy:  -387.25042422709487
    Total Energy =                       -387.2504242270948680
  Basis Set: CC-PVTZ
  Basis Set:
  Basis Set: CC-PVTZ
  Basis Set:
  @DF-RHF Final Energy:  -387.25865916900307
    Total Energy =                       -387.2586591690026125
  Basis Set: CC-PVTZ
  Basis Set:
  Basis Set: CC-PVTZ
  Basis Set:
  @DF-RHF Final Energy:  -387.25875052202804
    Total Energy =                       -387.2587505220285493
  Basis Set: CC-PVTZ
  Basis Set:
  Basis Set: CC-PVTZ
  Basis Set:
  @DF-RHF Final Energy:  -387.25862029609715
    Total Energy =                       -387.2586202960976607
  Basis Set: CC-PVTZ
  Basis Set:
  Basis Set: CC-PVTZ
  Basis Set:
  @DF-RHF Final Energy:  -387.25874550805827
    Total Energy =                       -387.2587455080582686
  Basis Set: CC-PVTZ
  Basis Set:
  Basis Set: CC-PVTZ
  Basis Set:
  @DF-RHF Final Energy:  -387.25875521402020
    Total Energy =                       -387.2587552140195157
  Basis Set: CC-PVTZ
  Basis Set:
  Charge       = 0
  Multiplicity = 1
  Basis Set: CC-PVTZ
  Basis Set:

    Orbital Energies (a.u.)
    -----------------------

    Doubly Occupied:

       1A    -20.551628     2A    -11.321194     3A    -11.233879
       4A    -11.232948     5A    -11.221382     6A    -11.217756
       7A    -11.215550     8A    -11.214821     9A    -11.208505
      10A     -1.406651    11A     -1.105266    12A     -1.069795
      13A     -1.012413    14A     -0.945168    15A     -0.875918
      16A     -0.830211    17A     -0.789268    18A     -0.769832
      19A     -0.669031    20A     -0.662514    21A     -0.633934
      22A     -0.627170    23A     -0.612103    24A     -0.590447
      25A     -0.566097    26A     -0.560816    27A     -0.538158
      28A     -0.523014    29A     -0.518055    30A     -0.499765
      31A     -0.488486    32A     -0.481015    33A     -0.459643
      34A     -0.452736    35A     -0.446722    36A     -0.412073

  @DF-RHF Final Energy:  -387.25875543584016

   => Energetics <=

    Nuclear Repulsion Energy =            448.7197345105007571
    One-Electron Energy =               -1414.0290474430275935
    Two-Electron Energy =                 578.0505574966866789
    DFT Exchange-Correlation Energy =       0.0000000000000000
    Empirical Dispersion Energy =           0.0000000000000000
    PCM Polarization Energy =               0.0000000000000000
    EFP Energy =                            0.0000000000000000
    Total Energy =                       -387.2587554358401576
    Molecular point group: c1
  Basis Set: CC-PVTZ
  Basis Set:

  -Total Gradient:
     Atom            X                  Y                   Z
    ------   -----------------  -----------------  -----------------
       1       -0.000016652598     0.000006694287    -0.000016428034
       2        0.000055279080    -0.000003188881     0.000051974675
       3        0.000020352228     0.000013770375    -0.000005501160
       4       -0.000051568003     0.000016045271    -0.000040006239
       5        0.000047638437     0.000053780605     0.000047282359
       6        0.000014454362     0.000002745926    -0.000015813829
       7       -0.000028185786    -0.000000500534     0.000008301176
       8       -0.000554428186    -0.000483345964    -0.000167907262
       9       -0.000004759558    -0.000012667622     0.000024396829
      10       -0.000015266901    -0.000008864824     0.000021661234
      11        0.000561919772     0.000482227844     0.000280567866
      12        0.000000600742    -0.000011393448     0.000004754410
      13       -0.000061864170     0.000011212160    -0.000017406748
      14        0.000503908124     0.000584805083    -0.000053744421
      15        0.000049422908    -0.000024465004     0.000013500967
      16       -0.000038609423    -0.000047905601    -0.000045625131
      17        0.000040982216    -0.000032933457     0.000111784305
      18       -0.000611625867    -0.000625173229    -0.000181795389
      19        0.000001539733     0.000064921474    -0.000000258483
      20       -0.000014848802     0.000017819606     0.000005182733
      21       -0.000009522078     0.000025205359     0.000010963940
      22        0.000085877332     0.000015706562    -0.000052267046
      23       -0.000007372427    -0.000030468855     0.000022980352
      24        0.000038791899    -0.000006181875    -0.000004887673
      25       -0.000006063034    -0.000007845257    -0.000001709428

  **** Optimization is complete! (in 8 steps) ****
    Final optimized geometry and variables:
    Molecular point group: c1

    Geometry (in Angstrom), charge = 0, multiplicity = 1:

    H           -0.710082796676     1.669924875332     2.547676515316
    C           -1.103403158225     0.646852755553     2.622324299760
    C           -2.151757455845     0.295278392940     1.601967456653
    O           -0.706072291198    -0.079613594852     3.465926541229
    C           -1.708095308313     0.598779506029     0.167901857695
    H           -2.416935122396    -0.746746192561     1.725306179247
    H           -3.028650904914     0.893755481778     1.839128504091
    C           -0.569885479616    -0.293880775264    -0.323119646516
    H           -2.564475630417     0.484240982816    -0.487608878674
    H           -1.411167013111     1.642318351355     0.096529762373
    C           -0.152891361560     0.019217708118    -1.758952320083
    H           -0.880264094851    -1.333446467139    -0.256949068617
    H            0.282077570585    -0.191618362893     0.341769885320
    C            0.919251656896    -0.913841415884    -2.328749791208
    H           -1.031060606241    -0.052334741629    -2.394927004039
    H            0.176529976226     1.051600299449    -1.823923252474
    C            2.308565618075    -0.827147610462    -1.690624136937
    H            1.011595529249    -0.720889385326    -3.394174223157
    H            0.564474967786    -1.937473660562    -2.242932401737
    C            3.002075481842     0.522554022509    -1.857981091710
    H            2.930130218020    -1.594871708003    -2.140796746070
    H            2.251027803907    -1.074279896267    -0.635667950855
    H            3.070188272686     0.799186374486    -2.905211047506
    H            2.477289795762     1.317077598398    -1.340725431586
    H            4.009553912128     0.487785734099    -1.459827572589

  Mulliken Charges: (a.u.)
   Center  Symbol    Alpha    Beta     Spin     Total
       1     H     0.46414  0.46414  0.00000  0.07173
       2     C     2.90556  2.90556  0.00000  0.18887
       3     C     3.08794  3.08794  0.00000 -0.17587
       4     O     4.16615  4.16615  0.00000 -0.33230
       5     C     3.11610  3.11610  0.00000 -0.23220
       6     H     0.44300  0.44300  0.00000  0.11400
       7     H     0.44058  0.44058  0.00000  0.11884
       8     C     3.09160  3.09160  0.00000 -0.18319
       9     H     0.44261  0.44261  0.00000  0.11478
      10     H     0.44945  0.44945  0.00000  0.10111
      11     C     3.10677  3.10677  0.00000 -0.21353
      12     H     0.44928  0.44928  0.00000  0.10144
      13     H     0.44662  0.44662  0.00000  0.10675
      14     C     3.10208  3.10208  0.00000 -0.20416
      15     H     0.44413  0.44413  0.00000  0.11175
      16     H     0.44988  0.44988  0.00000  0.10023
      17     C     3.09645  3.09645  0.00000 -0.19290
      18     H     0.44711  0.44711  0.00000  0.10578
      19     H     0.44852  0.44852  0.00000  0.10297
      20     C     3.15162  3.15162  0.00000 -0.30324
      21     H     0.44512  0.44512  0.00000  0.10975
      22     H     0.45013  0.45013  0.00000  0.09975
      23     H     0.45430  0.45430  0.00000  0.09140
      24     H     0.45569  0.45569  0.00000  0.08862
      25     H     0.44518  0.44518  0.00000  0.10964

   Total alpha = 36.00000, Total beta = 36.00000, Total charge = -0.00000

*** Psi4 exiting successfully. Buy a developer a beer!
