                              Psi4 1.0.54 Driver

  ==> Input File <==

--------------------------------------------------------------------------
set {
	reference rhf
	basis cc-pvtz
}

set_num_threads( 4 )
memory 2 gb

molecule MOL {
0 1

H	 -3.547847	 0.322501	 -0.497368
O	 -3.097602	 -0.291129	 0.054985
C	 -1.770543	 -0.100993	 0.015462
C	 -1.190304	 0.893518	 -0.762166
C	 -0.980709	 -0.938712	 0.785249
H	 -1.809688	 1.539517	 -1.356705
C	 0.175969	 1.045095	 -0.765999
H	 -1.448243	 -1.699213	 1.377762
C	 0.385890	 -0.773761	 0.770287
H	 0.635828	 1.808533	 -1.361652
C	 0.981121	 0.213562	 0.000000
H	 0.999617	 -1.423111	 1.367113
C	 2.447402	 0.371303	 0.000000
O	 3.227427	 -0.521847	 0.000000
H	 2.796538	 1.409525	 0.000000

	symmetry c1
}
set optking {
	frozen_dihedral = ("
		7 11 13 14
	")
}

ee,wfn = optimize('scf', return_wfn=True)
oeprop( wfn, 'DIPOLE', 'QUADRUPOLE', 'MULLIKEN_CHARGES')
f=open( 'psi4out.xyz', 'w' )
f.write( "15  " )
f.write( str(ee) + "\n" )
f.write( MOL.save_string_xyz() )
f.close()
--------------------------------------------------------------------------

    Molecular point group: c1
  Charge       = 0
  Multiplicity = 1
  Basis Set: CC-PVTZ
  Basis Set:
  @DF-RHF Final Energy:  -418.43605167598668
    Total Energy =                       -418.4360516759866186
    Molecular point group: c1
  Basis Set: CC-PVTZ
  Basis Set:
  Basis Set: CC-PVTZ
  Basis Set:
  @DF-RHF Final Energy:  -418.43494393074718
    Total Energy =                       -418.4349439307471812
  Basis Set: CC-PVTZ
  Basis Set:
  Basis Set: CC-PVTZ
  Basis Set:
  @DF-RHF Final Energy:  -418.43676946283233
    Total Energy =                       -418.4367694628319896
  Basis Set: CC-PVTZ
  Basis Set:
  Basis Set: CC-PVTZ
  Basis Set:
  @DF-RHF Final Energy:  -418.43715239552444
    Total Energy =                       -418.4371523955248904
  Basis Set: CC-PVTZ
  Basis Set:
  Basis Set: CC-PVTZ
  Basis Set:
  @DF-RHF Final Energy:  -418.43718391562430
    Total Energy =                       -418.4371839156241322
  Basis Set: CC-PVTZ
  Basis Set:
  Charge       = 0
  Multiplicity = 1
  Basis Set: CC-PVTZ
  Basis Set:

    Orbital Energies (a.u.)
    -----------------------

    Doubly Occupied:

       1A    -20.602246     2A    -20.550716     3A    -11.325228
       4A    -11.319119     5A    -11.258715     6A    -11.251407
       7A    -11.241804     8A    -11.238498     9A    -11.235300
      10A     -1.435002    11A     -1.406235    12A     -1.174324
      13A     -1.045199    14A     -1.039453    15A     -0.895585
      16A     -0.861228    17A     -0.806027    18A     -0.760152
      19A     -0.700738    20A     -0.690019    21A     -0.645875
      22A     -0.630820    23A     -0.612841    24A     -0.610401
      25A     -0.591480    26A     -0.562665    27A     -0.546859
      28A     -0.508259    29A     -0.492299    30A     -0.423226
      31A     -0.360394    32A     -0.330665

  @DF-RHF Final Energy:  -418.43718659990520

   => Energetics <=

    Nuclear Repulsion Energy =            402.2534046489074626
    One-Electron Energy =               -1367.0756266452228829
    Two-Electron Energy =                 546.3850353964105580
    DFT Exchange-Correlation Energy =       0.0000000000000000
    Empirical Dispersion Energy =           0.0000000000000000
    PCM Polarization Energy =               0.0000000000000000
    EFP Energy =                            0.0000000000000000
    Total Energy =                       -418.4371865999048623
    Molecular point group: c1
  Basis Set: CC-PVTZ
  Basis Set:

  -Total Gradient:
     Atom            X                  Y                   Z
    ------   -----------------  -----------------  -----------------
       1        0.000006792346    -0.000001266817     0.000005243652
       2       -0.000020484646     0.000042021841    -0.000026016889
       3        0.000062241464    -0.000322028603     0.000213162810
       4        0.000268073639     0.000187331978    -0.000077453616
       5       -0.000316663763     0.000116293215    -0.000116221491
       6       -0.000025581534    -0.000011640603     0.000008659441
       7       -0.000203635733    -0.004224877650    -0.004741007753
       8        0.000031789177    -0.000008369936     0.000011992589
       9        0.000255353925     0.000207924572    -0.000118019306
      10        0.000008155784    -0.000005051661     0.000015436990
      11       -0.000276638174     0.005782013351     0.003444044000
      12       -0.000013235609    -0.000011508641     0.000012324104
      13        0.000658587904    -0.001274455848     0.009125810421
      14       -0.000417306678    -0.000460746660    -0.007741438857
      15       -0.000017448103    -0.000015638544    -0.000016516097

  **** Optimization is complete! (in 6 steps) ****
    Final optimized geometry and variables:
    Molecular point group: c1

    Geometry (in Angstrom), charge = 0, multiplicity = 1:

    H           -3.544116826474     0.316183240097    -0.553273187655
    O           -3.095218825098    -0.291068457408     0.007184326901
    C           -1.769313256045    -0.080672499094    -0.009047676961
    C           -1.186769501469     0.918242298150    -0.767668551633
    C           -0.981173513645    -0.915736351098     0.773102127188
    H           -1.795602784653     1.554653218180    -1.382870992734
    C            0.183214482851     1.090282540031    -0.727720057876
    H           -1.453001981682    -1.687596313768     1.347777250217
    C            0.381030878032    -0.748843842215     0.782024359877
    H            0.630867128916     1.871896697128    -1.313822783365
    C            0.978388307444     0.273256252481     0.051918231456
    H            0.999297439552    -1.409308307682     1.357892837449
    C            2.453062335972     0.388350390960    -0.030398393134
    O            3.198103385647    -0.531987517529    -0.015544942129
    H            2.833872496138     1.404293768936    -0.182806655726

  Mulliken Charges: (a.u.)
   Center  Symbol    Alpha    Beta     Spin     Total
       1     H     0.38602  0.38602  0.00000  0.22796
       2     O     4.16726  4.16726  0.00000 -0.33451
       3     C     2.84806  2.84806  0.00000  0.30387
       4     C     3.13305  3.13305  0.00000 -0.26610
       5     C     3.10208  3.10208  0.00000 -0.20415
       6     H     0.43217  0.43217  0.00000  0.13567
       7     C     3.07781  3.07781  0.00000 -0.15561
       8     H     0.41613  0.41613  0.00000  0.16774
       9     C     3.06536  3.06536  0.00000 -0.13072
      10     H     0.42190  0.42190  0.00000  0.15620
      11     C     2.98596  2.98596  0.00000  0.02809
      12     H     0.41206  0.41206  0.00000  0.17589
      13     C     2.92355  2.92355  0.00000  0.15290
      14     O     4.16925  4.16925  0.00000 -0.33850
      15     H     0.45936  0.45936  0.00000  0.08128

   Total alpha = 32.00000, Total beta = 32.00000, Total charge = -0.00000

*** Psi4 exiting successfully. Buy a developer a beer!
