  ==> Input File <==

--------------------------------------------------------------------------
set {
	reference rhf
	basis 6-31G*
}

set_num_threads( 1 )
memory 2 gb

molecule MOL {
0 1

H	 -2.646374	 -0.642757	 1.268656
C	 -2.083525	 -0.384536	 0.393091
O	 -0.807605	 -0.127164	 0.768327
F	 -2.118945	 -1.383102	 -0.486752
F	 -2.621877	 0.670592	 -0.209486
C	 0.084052	 0.273579	 -0.209957
C	 -0.515479	 -0.130572	 -1.550622
Cl	 1.663716	 -0.492839	 0.023454
H	 0.235561	 1.338849	 -0.214480
F	 0.276977	 0.232694	 -2.536620
F	 -1.669084	 0.488516	 -1.703469
F	 -0.723714	 -1.422189	 -1.630241

	symmetry c1
}
set optking {
	frozen_dihedral = ("
		10 7 6 9,
		6 3 2 4
	")
}

ee = energy('scf')
oeprop('DIPOLE', 'QUADRUPOLE', 'MULLIKEN_CHARGES')
f=open( 'psi4out.xyz', 'w' )
f.write( "12  " )
f.write( str(ee) + "\n" )
f.write( MOL.save_string_xyz() )
f.close()
--------------------------------------------------------------------------

    Molecular point group: c1

    Geometry (in Angstrom), charge = 0, multiplicity = 1:

       Center              X                  Y                   Z               Mass
    ------------   -----------------  -----------------  -----------------  -----------------
           H         -2.007069836031    -0.380113861190     1.958938458852     1.007825032070
           C         -1.444220836031    -0.121892861190     1.083373458852    12.000000000000
           O         -0.168300836031     0.135479138810     1.458609458852    15.994914619560
           F         -1.479640836031    -1.120458861190     0.203530458852    18.998403224000
           F         -1.982572836031     0.933235138810     0.480796458852    18.998403224000
           C          0.723356163969     0.536222138810     0.480325458852    12.000000000000
           C          0.123825163969     0.132071138810    -0.860339541148    12.000000000000
          CL          2.303020163969    -0.230195861190     0.713736458852    34.968852682000
           H          0.874865163969     1.601492138810     0.475802458852     1.007825032070
           F          0.916281163969     0.495337138810    -1.846337541148    18.998403224000
           F         -1.029779836031     0.751159138810    -1.013186541148    18.998403224000
           F         -0.084409836031    -1.159545861190    -0.939958541148    18.998403224000

  Charge       = 0
  Multiplicity = 1
  Basis Set: 6-31G*
  Basis Set:

    Orbital Energies (a.u.)
    -----------------------

    Doubly Occupied:

       1A   -104.848403     2A    -26.352541     3A    -26.337157
       4A    -26.331700     5A    -26.319958     6A    -26.316584
       7A    -20.644615     8A    -11.518948     9A    -11.480398
      10A    -11.400562    11A    -10.582848    12A     -8.052221
      13A     -8.048650    14A     -8.048555    15A     -1.772272
      16A     -1.705919    17A     -1.672124    18A     -1.643154
      19A     -1.610874    20A     -1.485495    21A     -1.179503
      22A     -1.040902    23A     -1.005280    24A     -0.906288
      25A     -0.880390    26A     -0.869362    27A     -0.856926
      28A     -0.805382    29A     -0.791935    30A     -0.762006
      31A     -0.749295    32A     -0.739950    33A     -0.695533
      34A     -0.688364    35A     -0.668578    36A     -0.666445
      37A     -0.656693    38A     -0.641256    39A     -0.633919
      40A     -0.592552    41A     -0.549538    42A     -0.541627
      43A     -0.529209    44A     -0.481039    45A     -0.469588

  @DF-RHF Final Energy: -1146.16195668328373

   => Energetics <=

    Nuclear Repulsion Energy =            796.3162480155993990
    One-Electron Energy =               -3175.8075775134802825
    Two-Electron Energy =                1233.3293728145965815
    DFT Exchange-Correlation Energy =       0.0000000000000000
    Empirical Dispersion Energy =           0.0000000000000000
    PCM Polarization Energy =               0.0000000000000000
    EFP Energy =                            0.0000000000000000
    Total Energy =                      -1146.1619566832844157

  Mulliken Charges: (a.u.)
   Center  Symbol    Alpha    Beta     Spin     Total
       1     H     0.39259  0.39259  0.00000  0.21482
       2     C     2.56066  2.56066  0.00000  0.87867
       3     O     4.31469  4.31469  0.00000 -0.62938
       4     F     4.68720  4.68720  0.00000 -0.37440
       5     F     4.68850  4.68850  0.00000 -0.37699
       6     C     3.00285  3.00285  0.00000 -0.00570
       7     C     2.47448  2.47448  0.00000  1.05104
       8    CL     8.49457  8.49457  0.00000  0.01086
       9     H     0.37099  0.37099  0.00000  0.25802
      10     F     4.67550  4.67550  0.00000 -0.35101
      11     F     4.67237  4.67237  0.00000 -0.34474
      12     F     4.66560  4.66560  0.00000 -0.33119

   Total alpha = 45.00000, Total beta = 45.00000, Total charge = -0.00000
