                              Psi4 1.0.54 Driver

  ==> Input File <==

--------------------------------------------------------------------------
set {
	reference rhf
	basis cc-pvtz
}

set_num_threads( 4 )
memory 2 gb

molecule MOL {
0 1

H	 0.900526	 2.162555	 4.480576
C	 0.339946	 1.224455	 4.592839
C	 -0.752516	 1.014042	 3.579851
O	 0.608401	 0.476121	 5.467617
C	 -0.265081	 1.185507	 2.138087
H	 -1.187434	 0.036087	 3.740429
H	 -1.517428	 1.758574	 3.789338
C	 0.713510	 0.102440	 1.689192
H	 -1.128665	 1.185348	 1.481915
H	 0.196948	 2.163609	 2.028360
C	 1.181757	 0.280428	 0.247371
H	 0.240864	 -0.870062	 1.798524
H	 1.578027	 0.091519	 2.347917
C	 2.151032	 -0.811012	 -0.202643
H	 0.313890	 0.299031	 -0.404400
H	 1.662975	 1.250465	 0.143664
C	 3.580021	 -0.656538	 0.320835
H	 2.170545	 -0.847575	 -1.289412
H	 1.766632	 -1.772905	 0.124928
C	 4.327657	 0.562694	 -0.213579
H	 4.138806	 -1.549270	 0.057813
H	 3.561991	 -0.620783	 1.406976
H	 4.355973	 0.557257	 -1.298551
H	 3.867136	 1.491650	 0.100501
H	 5.351524	 0.571613	 0.142204

	symmetry c1
}
set optking {
	frozen_dihedral = ("
		8 11 14 18
	")
}

ee,wfn = optimize('scf', return_wfn=True)
oeprop( wfn, 'DIPOLE', 'QUADRUPOLE', 'MULLIKEN_CHARGES')
f=open( 'psi4out.xyz', 'w' )
f.write( "25  " )
f.write( str(ee) + "\n" )
f.write( MOL.save_string_xyz() )
f.close()
--------------------------------------------------------------------------

    Molecular point group: c1
  Charge       = 0
  Multiplicity = 1
  Basis Set: CC-PVTZ
  Basis Set:
  @DF-RHF Final Energy:  -387.25783925150773
    Total Energy =                       -387.2578392515075620
    Molecular point group: c1
  Basis Set: CC-PVTZ
  Basis Set:
  Basis Set: CC-PVTZ
  Basis Set:
  @DF-RHF Final Energy:  -387.25809821416385
    Total Energy =                       -387.2580982141635104
  Basis Set: CC-PVTZ
  Basis Set:
  Basis Set: CC-PVTZ
  Basis Set:
  @DF-RHF Final Energy:  -387.25823077375134
    Total Energy =                       -387.2582307737513929
  Basis Set: CC-PVTZ
  Basis Set:
  Basis Set: CC-PVTZ
  Basis Set:
  @DF-RHF Final Energy:  -387.25747233617506
    Total Energy =                       -387.2574723361753968
  Basis Set: CC-PVTZ
  Basis Set:
  Basis Set: CC-PVTZ
  Basis Set:
  @DF-RHF Final Energy:  -387.25823476133780
    Total Energy =                       -387.2582347613378033
  Basis Set: CC-PVTZ
  Basis Set:
  Basis Set: CC-PVTZ
  Basis Set:
  @DF-RHF Final Energy:  -387.25825278643180
    Total Energy =                       -387.2582527864318536
  Basis Set: CC-PVTZ
  Basis Set:
  Charge       = 0
  Multiplicity = 1
  Basis Set: CC-PVTZ
  Basis Set:

    Orbital Energies (a.u.)
    -----------------------

    Doubly Occupied:

       1A    -20.551571     2A    -11.321144     3A    -11.233858
       4A    -11.232894     5A    -11.221387     6A    -11.217776
       7A    -11.215668     8A    -11.215047     9A    -11.208553
      10A     -1.406580    11A     -1.105130    12A     -1.069837
      13A     -1.012971    14A     -0.944543    15A     -0.875479
      16A     -0.829114    17A     -0.789111    18A     -0.772835
      19A     -0.668938    20A     -0.662196    21A     -0.634162
      22A     -0.625561    23A     -0.612031    24A     -0.590833
      25A     -0.567721    26A     -0.560395    27A     -0.537469
      28A     -0.522411    29A     -0.518102    30A     -0.499231
      31A     -0.488838    32A     -0.481558    33A     -0.459520
      34A     -0.452928    35A     -0.446849    36A     -0.412036

  @DF-RHF Final Energy:  -387.25825345673798

   => Energetics <=

    Nuclear Repulsion Energy =            446.8389899713027944
    One-Electron Energy =               -1410.2659354893439740
    Two-Electron Energy =                 576.1686920613028633
    DFT Exchange-Correlation Energy =       0.0000000000000000
    Empirical Dispersion Energy =           0.0000000000000000
    PCM Polarization Energy =               0.0000000000000000
    EFP Energy =                            0.0000000000000000
    Total Energy =                       -387.2582534567383163
    Molecular point group: c1
  Basis Set: CC-PVTZ
  Basis Set:

  -Total Gradient:
     Atom            X                  Y                   Z
    ------   -----------------  -----------------  -----------------
       1       -0.000037878114    -0.000014325820    -0.000019116728
       2        0.000067265463     0.000040345364     0.000001122667
       3        0.000011602876     0.000006840856     0.000033493036
       4       -0.000045344824    -0.000018226322    -0.000019381649
       5        0.000013750499    -0.000006546159     0.000020045588
       6       -0.000002640835    -0.000002477564    -0.000001387839
       7       -0.000002349409    -0.000002769201     0.000009467165
       8       -0.001089866657    -0.000767475991    -0.000465866160
       9        0.000001127979    -0.000007152035     0.000000255499
      10       -0.000000780127    -0.000003299882    -0.000000127543
      11        0.001211268492     0.000833106878     0.000651537224
      12        0.000003581265    -0.000000867719    -0.000008488891
      13       -0.000028494952     0.000010151711     0.000003640033
      14        0.001269217596     0.001238658625    -0.000144917137
      15        0.000007203875     0.000007806695    -0.000000203042
      16       -0.000009905955     0.000023973742     0.000009411389
      17        0.000017166098    -0.000016550647    -0.000050664321
      18       -0.001379803028    -0.001306192682    -0.000004456777
      19        0.000010351901    -0.000029796370    -0.000015846082
      20       -0.000007639495     0.000002352710     0.000011410322
      21        0.000008123916    -0.000012925223     0.000017047086
      22       -0.000005346387     0.000002237658    -0.000032658303
      23       -0.000007851454    -0.000007699336     0.000002208064
      24       -0.000011619729     0.000035390438     0.000006373809
      25        0.000008861004    -0.000004559724    -0.000002897399

  **** Optimization is complete! (in 7 steps) ****
    Final optimized geometry and variables:
    Molecular point group: c1

    Geometry (in Angstrom), charge = 0, multiplicity = 1:

    H           -0.543761501836     1.762299849677     2.553758310229
    C           -1.086323123667     0.810698454760     2.636899652253
    C           -2.145256948198     0.591841359371     1.590755672815
    O           -0.825667422682     0.055131858743     3.507829467628
    C           -1.619846283563     0.789994707570     0.165856709907
    H           -2.565519592694    -0.396138135731     1.727243226734
    H           -2.930148003209     1.319049172166     1.786721529303
    C           -0.608557209958    -0.269588028235    -0.267039863491
    H           -2.463874864997     0.782009780544    -0.515280295091
    H           -1.173445796722     1.777778511582     0.081175237168
    C           -0.119978761693    -0.070650826880    -1.700845178130
    H           -1.064191561428    -1.252071487504    -0.178611859753
    H            0.235002588458    -0.267069540711     0.416908828515
    C            0.874562478701    -1.135434755865    -2.176648624195
    H           -0.984065155008    -0.090971987558    -2.359214032415
    H            0.309434199444     0.920656830169    -1.805973636296
    C            2.306503875735    -1.000476517312    -1.651782178621
    H            0.894557864693    -1.138561723656    -3.262812216618
    H            0.491772533613    -2.111622801675    -1.890894507749
    C            3.066030899875     0.210731761564    -2.187845945730
    H            2.851958260800    -1.898580129801    -1.924224724776
    H            2.303056188711    -0.973143361713    -0.566612475004
    H            3.099455437622     0.199787645130    -3.272472614003
    H            2.612261370525     1.145889577688    -1.881759207757
    H            4.087987914597     0.213520651488    -1.826499284642

  Mulliken Charges: (a.u.)
   Center  Symbol    Alpha    Beta     Spin     Total
       1     H     0.46414  0.46414  0.00000  0.07172
       2     C     2.90548  2.90548  0.00000  0.18904
       3     C     3.08800  3.08800  0.00000 -0.17601
       4     O     4.16619  4.16619  0.00000 -0.33239
       5     C     3.11617  3.11617  0.00000 -0.23234
       6     H     0.44291  0.44291  0.00000  0.11418
       7     H     0.44058  0.44058  0.00000  0.11885
       8     C     3.09090  3.09090  0.00000 -0.18181
       9     H     0.44281  0.44281  0.00000  0.11437
      10     H     0.44957  0.44957  0.00000  0.10087
      11     C     3.10325  3.10325  0.00000 -0.20649
      12     H     0.44946  0.44946  0.00000  0.10107
      13     H     0.44671  0.44671  0.00000  0.10658
      14     C     3.10395  3.10395  0.00000 -0.20789
      15     H     0.44561  0.44561  0.00000  0.10878
      16     H     0.45117  0.45117  0.00000  0.09766
      17     C     3.09203  3.09203  0.00000 -0.18405
      18     H     0.44664  0.44664  0.00000  0.10672
      19     H     0.44895  0.44895  0.00000  0.10210
      20     C     3.15063  3.15063  0.00000 -0.30125
      21     H     0.44650  0.44650  0.00000  0.10700
      22     H     0.45204  0.45204  0.00000  0.09592
      23     H     0.45457  0.45457  0.00000  0.09087
      24     H     0.45573  0.45573  0.00000  0.08854
      25     H     0.44602  0.44602  0.00000  0.10796

   Total alpha = 36.00000, Total beta = 36.00000, Total charge =  0.00000

*** Psi4 exiting successfully. Buy a developer a beer!
