                              Psi4 1.0.54 Driver

  ==> Input File <==

--------------------------------------------------------------------------
set {
	reference rhf
	basis cc-pvtz
}

set_num_threads( 4 )
memory 2 gb

molecule MOL {
0 1

H	 -4.229058	 0.545458	 0.025563
O	 -3.513940	 -0.013072	 -0.217019
C	 -2.301643	 0.532113	 0.231896
C	 -1.175095	 -0.394979	 -0.177388
H	 -2.144959	 1.518583	 -0.199498
H	 -2.312959	 0.645990	 1.313901
C	 0.196029	 0.106276	 0.266738
H	 -1.198434	 -0.508592	 -1.256632
H	 -1.367784	 -1.376705	 0.243328
C	 1.330220	 -0.826136	 -0.155230
H	 0.361924	 1.098406	 -0.141761
H	 0.209272	 0.214467	 1.349190
C	 2.719700	 -0.407669	 0.328325
H	 1.339388	 -0.911200	 -1.239363
H	 1.119001	 -1.821953	 0.224128
C	 3.241564	 0.893452	 -0.276737
H	 3.418299	 -1.204729	 0.093035
H	 2.711776	 -0.323368	 1.411960
H	 3.254204	 0.841071	 -1.360784
H	 2.634460	 1.745075	 0.005842
H	 4.254264	 1.092401	 0.054971

	symmetry c1
}
set optking {
	frozen_dihedral = ("
		4 7 10 14
	")
}

ee,wfn = optimize('scf', return_wfn=True)
oeprop( wfn, 'DIPOLE', 'QUADRUPOLE', 'MULLIKEN_CHARGES')
f=open( 'psi4out.xyz', 'w' )
f.write( "21  " )
f.write( str(ee) + "\n" )
f.write( MOL.save_string_xyz() )
f.close()
--------------------------------------------------------------------------

    Molecular point group: c1
  Charge       = 0
  Multiplicity = 1
  Basis Set: CC-PVTZ
  Basis Set:
  @DF-RHF Final Energy:  -310.33305759368784
    Total Energy =                       -310.3330575936876130
    Molecular point group: c1
  Basis Set: CC-PVTZ
  Basis Set:
  Charge       = 0
  Multiplicity = 1
  Basis Set: CC-PVTZ
  Basis Set:

    Orbital Energies (a.u.)
    -----------------------

    Doubly Occupied:

       1A    -20.545379     2A    -11.264980     3A    -11.213178
       4A    -11.213083     5A    -11.211275     6A    -11.208957
       7A    -11.206093     8A     -1.363218     9A     -1.087424
      10A     -1.034458    11A     -0.955573    12A     -0.876394
      13A     -0.807545    14A     -0.779388    15A     -0.696189
      16A     -0.662903    17A     -0.622924    18A     -0.608375
      19A     -0.588697    20A     -0.570945    21A     -0.537687
      22A     -0.520802    23A     -0.511839    24A     -0.487635
      25A     -0.480106    26A     -0.460911    27A     -0.456092
      28A     -0.444253    29A     -0.437370

  @DF-RHF Final Energy:  -310.33305739476322

   => Energetics <=

    Nuclear Repulsion Energy =            312.8985089031578468
    One-Electron Energy =               -1040.7557871713775057
    Two-Electron Energy =                 417.5242208734566702
    DFT Exchange-Correlation Energy =       0.0000000000000000
    Empirical Dispersion Energy =           0.0000000000000000
    PCM Polarization Energy =               0.0000000000000000
    EFP Energy =                            0.0000000000000000
    Total Energy =                       -310.3330573947630455
    Molecular point group: c1
  Basis Set: CC-PVTZ
  Basis Set:

  -Total Gradient:
     Atom            X                  Y                   Z
    ------   -----------------  -----------------  -----------------
       1       -0.000016203952     0.000005934682     0.000003586057
       2       -0.000001834195    -0.000005402146    -0.000000012108
       3        0.000005840251    -0.000014538859     0.000010095544
       4        0.000025853392     0.000047387561    -0.000066030079
       5        0.000000024085    -0.000000831368    -0.000008683976
       6       -0.000004978719     0.000009484171     0.000015762585
       7       -0.000035986441    -0.000086541991     0.000096186971
       8       -0.000003253021     0.000006819521    -0.000012079035
       9        0.000006355541    -0.000012473087    -0.000001707717
      10        0.000069763177     0.000130926812    -0.000087426555
      11       -0.000014386681    -0.000043572649    -0.000009138059
      12       -0.000004824427     0.000013298944     0.000007353792
      13       -0.000017401387     0.000028776724     0.000058337328
      14       -0.000079021446    -0.000068471907     0.000001013286
      15        0.000006593922     0.000007991889    -0.000010502727
      16        0.000023616197    -0.000009144876    -0.000008020570
      17        0.000005880759    -0.000013014454     0.000005395460
      18        0.000005750532     0.000015164082     0.000021104497
      19       -0.000003499108     0.000006384028    -0.000016462298
      20        0.000027053677    -0.000008560115     0.000010338263
      21        0.000004657846    -0.000009616963    -0.000009110658

  **** Optimization is complete! (in 2 steps) ****
    Final optimized geometry and variables:
    Molecular point group: c1

    Geometry (in Angstrom), charge = 0, multiplicity = 1:

    H           -4.231449306995     0.537969513053     0.033668372151
    O           -3.515370616080    -0.017681454182    -0.212548917301
    C           -2.303678624315     0.527773491997     0.237654003022
    C           -1.175505950220    -0.394674931347    -0.177635120166
    H           -2.149670244246     1.516734091744    -0.188986685493
    H           -2.313965590337     0.636201879181     1.320241461658
    C            0.194861884211     0.106947095028     0.268115729371
    H           -1.199403149659    -0.502351706698    -1.257446100268
    H           -1.365825805517    -1.379083149984     0.237874991328
    C            1.329628653164    -0.825414126288    -0.151969766832
    H            0.360894889476     1.098842183648    -0.140788112008
    H            0.206838788324     0.215624695529     1.350486441018
    C            2.718410758898    -0.407915478997     0.334489299502
    H            1.340340832654    -0.910968657832    -1.236020227015
    H            1.117051217725    -1.821065109157     0.227049223128
    C            3.246003741861     0.888665390869    -0.275233131112
    H            3.415799552454    -1.207839887707     0.105445059141
    H            2.707059461776    -0.318310697308     1.417672792300
    H            3.260064615839     0.831610560466    -1.359013517110
    H            2.641746097369     1.743750388344     0.002850479839
    H            4.258946730352     1.085178661719     0.057153702183

  Mulliken Charges: (a.u.)
   Center  Symbol    Alpha    Beta     Spin     Total
       1     H     0.39762  0.39762  0.00000  0.20477
       2     O     4.19427  4.19427  0.00000 -0.38854
       3     C     2.96326  2.96326  0.00000  0.07348
       4     C     3.08384  3.08384  0.00000 -0.16768
       5     H     0.47499  0.47499  0.00000  0.05002
       6     H     0.47495  0.47495  0.00000  0.05011
       7     C     3.10312  3.10312  0.00000 -0.20624
       8     H     0.45093  0.45093  0.00000  0.09814
       9     H     0.45058  0.45058  0.00000  0.09884
      10     C     3.09431  3.09431  0.00000 -0.18861
      11     H     0.45359  0.45359  0.00000  0.09282
      12     H     0.45554  0.45554  0.00000  0.08893
      13     C     3.08986  3.08986  0.00000 -0.17972
      14     H     0.45314  0.45314  0.00000  0.09371
      15     H     0.44882  0.44882  0.00000  0.10235
      16     C     3.15229  3.15229  0.00000 -0.30458
      17     H     0.44844  0.44844  0.00000  0.10312
      18     H     0.45502  0.45502  0.00000  0.08997
      19     H     0.45465  0.45465  0.00000  0.09070
      20     H     0.45428  0.45428  0.00000  0.09144
      21     H     0.44650  0.44650  0.00000  0.10699

   Total alpha = 29.00000, Total beta = 29.00000, Total charge =  0.00000

*** Psi4 exiting successfully. Buy a developer a beer!
