  ==> Input File <==

--------------------------------------------------------------------------
set {
	reference rhf
	basis 6-31G*
}

set_num_threads( 4 )
memory 2 gb

molecule MOL {
0 1

H	 -2.698709	 -0.000305	 0.034435
C	 -1.693833	 0.000034	 0.434417
O	 -0.828952	 -0.000968	 -0.659236
H	 -1.574200	 0.882896	 1.055746
H	 -1.574147	 -0.881698	 1.057355
C	 0.559449	 -0.000018	 -0.420814
C	 0.904475	 0.345093	 1.026519
C	 1.234451	 -1.288368	 -0.887168
H	 0.916590	 0.807648	 -1.048633
H	 0.369307	 1.235391	 1.338790
H	 1.968752	 0.537695	 1.118465
H	 0.658684	 -0.460677	 1.710979
H	 0.927128	 -1.529063	 -1.899134
H	 2.313090	 -1.166163	 -0.878885
H	 0.997073	 -2.131810	 -0.246780

	symmetry c1
}
set optking {
	frozen_dihedral = ("
		9 6 3 2
	")
}

ee = optimize('scf')
oeprop('DIPOLE', 'QUADRUPOLE', 'MULLIKEN_CHARGES')
f=open( 'psi4out.xyz', 'w' )
f.write( "15  " )
f.write( str(ee) + "\n" )
f.write( MOL.save_string_xyz() )
f.close()
--------------------------------------------------------------------------

    Molecular point group: c1
  Charge       = 0
  Multiplicity = 1
  Basis Set: 6-31G*
  Basis Set:
  @DF-RHF Final Energy:  -232.13023412364953
    Total Energy =                       -232.1302341236495295
    Molecular point group: c1
  Basis Set: 6-31G*
  Basis Set:
  Basis Set: 6-31G*
  Basis Set:
  @DF-RHF Final Energy:  -232.13045411193377
    Total Energy =                       -232.1304541119338865
  Basis Set: 6-31G*
  Basis Set:
  Basis Set: 6-31G*
  Basis Set:
  @DF-RHF Final Energy:  -232.13330384486162
    Total Energy =                       -232.1333038448615298
  Basis Set: 6-31G*
  Basis Set:
  Basis Set: 6-31G*
  Basis Set:
  @DF-RHF Final Energy:  -232.13351336517687
    Total Energy =                       -232.1335133651768956
  Basis Set: 6-31G*
  Basis Set:
  Basis Set: 6-31G*
  Basis Set:
  @DF-RHF Final Energy:  -232.13360065851097
    Total Energy =                       -232.1336006585109430
  Basis Set: 6-31G*
  Basis Set:
  Basis Set: 6-31G*
  Basis Set:
  @DF-RHF Final Energy:  -232.13362237461413
    Total Energy =                       -232.1336223746142196
  Basis Set: 6-31G*
  Basis Set:
  Basis Set: 6-31G*
  Basis Set:
  @DF-RHF Final Energy:  -232.13362382542681
    Total Energy =                       -232.1336238254266959
  Basis Set: 6-31G*
  Basis Set:
  Charge       = 0
  Multiplicity = 1
  Basis Set: 6-31G*
  Basis Set:

    Orbital Energies (a.u.)
    -----------------------

    Doubly Occupied:

       1A    -20.545040     2A    -11.274745     3A    -11.262463
       4A    -11.215633     5A    -11.205470     6A     -1.366254
       7A     -1.052417     8A     -0.948166     9A     -0.918922
      10A     -0.781693    11A     -0.674784    12A     -0.642540
      13A     -0.630568    14A     -0.582139    15A     -0.554844
      16A     -0.542930    17A     -0.535655    18A     -0.507347
      19A     -0.492196    20A     -0.445723    21A     -0.398651

  @DF-RHF Final Energy:  -232.13362453876209

   => Energetics <=

    Nuclear Repulsion Energy =            198.0575536838790072
    One-Electron Energy =                -707.2259963046583380
    Two-Electron Energy =                 277.0348180820170114
    DFT Exchange-Correlation Energy =       0.0000000000000000
    Empirical Dispersion Energy =           0.0000000000000000
    PCM Polarization Energy =               0.0000000000000000
    EFP Energy =                            0.0000000000000000
    Total Energy =                       -232.1336245387623194
    Molecular point group: c1
  Basis Set: 6-31G*
  Basis Set:

  -Total Gradient:
     Atom            X                  Y                   Z
    ------   -----------------  -----------------  -----------------
       1       -0.000000580311     0.000003855811     0.000002551997
       2       -0.000081433096     0.001860247066    -0.000009801589
       3        0.000112041406    -0.002570446835     0.000340811996
       4        0.000005726256     0.000001104335    -0.000008525395
       5       -0.000011237418     0.000005962196     0.000008647832
       6        0.000347756880    -0.000685638961    -0.001964721101
       7        0.000003053158     0.000003701728     0.000012898784
       8       -0.000028073684    -0.000011549299    -0.000000784257
       9       -0.000346845643     0.001393246041     0.001609334005
      10        0.000005714466    -0.000003633597     0.000000611098
      11        0.000000257500    -0.000000826785     0.000004664388
      12       -0.000002036492     0.000002853634     0.000004364771
      13        0.000001960184    -0.000003919665    -0.000004288221
      14       -0.000010464212     0.000014106110     0.000005180717
      15        0.000004161009    -0.000009061780    -0.000000945024

  **** Optimization is complete! (in 8 steps) ****
    Final optimized geometry and variables:
    Molecular point group: c1

    Geometry (in Angstrom), charge = 0, multiplicity = 1:

    H           -2.730244363367     0.052465738048     0.042262658058
    C           -1.749978108009     0.135580778556     0.492300555679
    O           -0.838088072313     0.166574409630    -0.559943567506
    H           -1.726391888808     1.040212662460     1.092165021178
    H           -1.604116015002    -0.719453792144     1.147555255128
    C            0.554944042592     0.230529337618    -0.320331035401
    C            0.958432837916     0.559856917093     1.116227871263
    C            1.178582360134    -1.075787396137    -0.795379164517
    H            0.915703575569     1.043925453672    -0.942346868216
    H            0.535516738935     1.501300726291     1.448011775144
    H            2.038526663801     0.652503348039     1.162992699982
    H            0.665113132717    -0.215939030492     1.815450702935
    H            0.887746408998    -1.275394122513    -1.820116614749
    H            2.262761041920    -1.033962269678    -0.746085915061
    H            0.840442628826    -1.905430080569    -0.181080158420

  Mulliken Charges: (a.u.)
   Center  Symbol    Alpha    Beta     Spin     Total
       1     H     0.41224  0.41224  0.00000  0.17552
       2     C     3.07578  3.07578  0.00000 -0.15155
       3     O     4.32023  4.32023  0.00000 -0.64045
       4     H     0.42960  0.42960  0.00000  0.14081
       5     H     0.43129  0.43129  0.00000  0.13742
       6     C     2.90156  2.90156  0.00000  0.19688
       7     C     3.26436  3.26436  0.00000 -0.52872
       8     C     3.23947  3.23947  0.00000 -0.47894
       9     H     0.42131  0.42131  0.00000  0.15738
      10     H     0.41348  0.41348  0.00000  0.17305
      11     H     0.41420  0.41420  0.00000  0.17159
      12     H     0.41775  0.41775  0.00000  0.16450
      13     H     0.41110  0.41110  0.00000  0.17779
      14     H     0.42552  0.42552  0.00000  0.14897
      15     H     0.42211  0.42211  0.00000  0.15577

   Total alpha = 21.00000, Total beta = 21.00000, Total charge = -0.00000
