                              Psi4 1.0.54 Driver

  ==> Input File <==

--------------------------------------------------------------------------
set {
	reference rhf
	basis cc-pvtz
}

set_num_threads( 4 )
memory 2 gb

molecule MOL {
0 1

H	 1.166964	 -1.062386	 0.758429
O	 1.324748	 -0.612467	 -0.052206
C	 0.706474	 0.636793	 -0.025501
C	 1.194805	 1.553648	 1.060105
H	 -0.352278	 0.452100	 0.113192
H	 0.809865	 1.141248	 -0.984425
C	 2.047371	 1.236340	 2.009186
H	 0.785428	 2.549827	 1.024242
H	 2.463527	 0.250172	 2.088298
H	 2.346543	 1.954758	 2.748397

	symmetry c1
}
set optking {
	frozen_dihedral = ("
		5 3 2 1
	")
}

ee,wfn = optimize('scf', return_wfn=True)
oeprop( wfn, 'DIPOLE', 'QUADRUPOLE', 'MULLIKEN_CHARGES')
f=open( 'psi4out.xyz', 'w' )
f.write( "10  " )
f.write( str(ee) + "\n" )
f.write( MOL.save_string_xyz() )
f.close()
--------------------------------------------------------------------------

    Molecular point group: c1
  Charge       = 0
  Multiplicity = 1
  Basis Set: CC-PVTZ
  Basis Set:
  @DF-RHF Final Energy:  -191.99643879056268
    Total Energy =                       -191.9964387905627348
    Molecular point group: c1
  Basis Set: CC-PVTZ
  Basis Set:
  Basis Set: CC-PVTZ
  Basis Set:
  @DF-RHF Final Energy:  -191.99069051641823
    Total Energy =                       -191.9906905164182831
  Basis Set: CC-PVTZ
  Basis Set:
  Basis Set: CC-PVTZ
  Basis Set:
  @DF-RHF Final Energy:  -191.99846848122161
    Total Energy =                       -191.9984684812216642
  Basis Set: CC-PVTZ
  Basis Set:
  Basis Set: CC-PVTZ
  Basis Set:
  @DF-RHF Final Energy:  -191.99605934983728
    Total Energy =                       -191.9960593498373669
  Basis Set: CC-PVTZ
  Basis Set:
  Basis Set: CC-PVTZ
  Basis Set:
  @DF-RHF Final Energy:  -191.99881635511520
    Total Energy =                       -191.9988163551152809
  Basis Set: CC-PVTZ
  Basis Set:
  Basis Set: CC-PVTZ
  Basis Set:
  @DF-RHF Final Energy:  -191.99885220979610
    Total Energy =                       -191.9988522097960413
  Basis Set: CC-PVTZ
  Basis Set:
  Basis Set: CC-PVTZ
  Basis Set:
  @DF-RHF Final Energy:  -191.99885386445362
    Total Energy =                       -191.9988538644536220
  Basis Set: CC-PVTZ
  Basis Set:
  Charge       = 0
  Multiplicity = 1
  Basis Set: CC-PVTZ
  Basis Set:

    Orbital Energies (a.u.)
    -----------------------

    Doubly Occupied:

       1A    -20.554484     2A    -11.278199     3A    -11.230674
       4A    -11.216899     5A     -1.374948     6A     -1.062444
       7A     -0.932442     8A     -0.772039     9A     -0.692159
      10A     -0.665644    11A     -0.621213    12A     -0.574217
      13A     -0.541159    14A     -0.496550    15A     -0.452661
      16A     -0.369297

  @DF-RHF Final Energy:  -191.99885396927550

   => Energetics <=

    Nuclear Repulsion Energy =            119.5475724151094710
    One-Electron Energy =                -497.4227914683441441
    Two-Electron Energy =                 185.8763650839591435
    DFT Exchange-Correlation Energy =       0.0000000000000000
    Empirical Dispersion Energy =           0.0000000000000000
    PCM Polarization Energy =               0.0000000000000000
    EFP Energy =                            0.0000000000000000
    Total Energy =                       -191.9988539692755296
    Molecular point group: c1
  Basis Set: CC-PVTZ
  Basis Set:

  -Total Gradient:
     Atom            X                  Y                   Z
    ------   -----------------  -----------------  -----------------
       1        0.000069823369     0.000025133250     0.000088655985
       2       -0.000115186490     0.000030186727    -0.000126303699
       3        0.000031925571    -0.000071472239     0.000127174330
       4       -0.000023102628    -0.000023118956     0.000011591700
       5        0.000025347846     0.000031044400    -0.000094802812
       6       -0.000000145147    -0.000004914297    -0.000006405613
       7       -0.000036308053    -0.000026454625     0.000005336710
       8        0.000003691223     0.000022797934    -0.000000507257
       9        0.000027736328     0.000003360169    -0.000000622248
      10        0.000016217979     0.000013437638    -0.000004117094

  **** Optimization is complete! (in 8 steps) ****
    Final optimized geometry and variables:
    Molecular point group: c1

    Geometry (in Angstrom), charge = 0, multiplicity = 1:

    H           -0.098615414595    -1.590015222834    -0.711842213159
    O            0.253653078373    -0.844765667050    -1.164592383934
    C           -0.438333156301     0.305118171436    -0.787322428946
    C           -0.301592549671     0.671032044296     0.663582711835
    H           -1.495800819709     0.218355096849    -1.030172385488
    H           -0.047680249002     1.111563578825    -1.396702793532
    C            0.479246091336     0.074535240855     1.536885249684
    H           -0.911851459615     1.502198203946     0.976560480367
    H            1.115245949670    -0.744417549963     1.259708337429
    H            0.516911080779     0.399028328574     2.559293069811

  Mulliken Charges: (a.u.)
   Center  Symbol    Alpha    Beta     Spin     Total
       1     H     0.39104  0.39104  0.00000  0.21792
       2     O     4.19936  4.19936  0.00000 -0.39872
       3     C     2.95022  2.95022  0.00000  0.09956
       4     C     3.08491  3.08491  0.00000 -0.16982
       5     H     0.46845  0.46845  0.00000  0.06309
       6     H     0.45346  0.45346  0.00000  0.09307
       7     C     3.17676  3.17676  0.00000 -0.35352
       8     H     0.42326  0.42326  0.00000  0.15348
       9     H     0.42447  0.42447  0.00000  0.15106
      10     H     0.42807  0.42807  0.00000  0.14386

   Total alpha = 16.00000, Total beta = 16.00000, Total charge =  0.00000

*** Psi4 exiting successfully. Buy a developer a beer!
