                              Psi4 1.0.54 Driver

  ==> Input File <==

--------------------------------------------------------------------------
set {
	reference rhf
	basis cc-pvtz
}

set_num_threads( 4 )
memory 2 gb

molecule MOL {
0 1

O	 -1.278239	 1.034789	 -0.784693
C	 -1.204115	 0.062668	 -0.112312
C	 -2.386398	 -0.667698	 0.460323
O	 -0.068058	 -0.518372	 0.226882
H	 -2.382952	 -1.693172	 0.114333
H	 -3.296656	 -0.175702	 0.158400
H	 -2.312537	 -0.685191	 1.540100
C	 1.169086	 0.037484	 -0.230612
C	 0.836968	 1.404488	 -0.794625
C	 1.803651	 -0.888385	 -1.252717
H	 1.823132	 0.137205	 0.622246
H	 0.382430	 2.030596	 -0.037569
H	 1.739635	 1.890762	 -1.144545
H	 0.148497	 1.319678	 -1.626942
H	 2.734537	 -0.463143	 -1.609256
H	 2.018839	 -1.853317	 -0.815395
H	 1.143807	 -1.026183	 -2.101776

	symmetry c1
}
set optking {
	frozen_dihedral = ("
		11 8 4 2
	")
}

ee,wfn = optimize('scf', return_wfn=True)
oeprop( wfn, 'DIPOLE', 'QUADRUPOLE', 'MULLIKEN_CHARGES')
f=open( 'psi4out.xyz', 'w' )
f.write( "17  " )
f.write( str(ee) + "\n" )
f.write( MOL.save_string_xyz() )
f.close()
--------------------------------------------------------------------------

    Molecular point group: c1
  Charge       = 0
  Multiplicity = 1
  Basis Set: CC-PVTZ
  Basis Set:
  @DF-RHF Final Energy:  -344.97876499702096
    Total Energy =                       -344.9787649970209031
    Molecular point group: c1
  Basis Set: CC-PVTZ
  Basis Set:
  Basis Set: CC-PVTZ
  Basis Set:
  @DF-RHF Final Energy:  -344.97155056635910
    Total Energy =                       -344.9715505663589852
  Basis Set: CC-PVTZ
  Basis Set:
  Basis Set: CC-PVTZ
  Basis Set:
  @DF-RHF Final Energy:  -345.02439598129081
    Total Energy =                       -345.0243959812909225
  Basis Set: CC-PVTZ
  Basis Set:
  Basis Set: CC-PVTZ
  Basis Set:
  @DF-RHF Final Energy:  -345.02944834421328
    Total Energy =                       -345.0294483442137334
  Basis Set: CC-PVTZ
  Basis Set:
  @DF-RHF Final Energy:  -345.02762881481965
    Total Energy =                       -345.0276288148197068
  @DF-RHF Final Energy:  -345.03160401768645
    Total Energy =                       -345.0316040176864476
  @DF-RHF Final Energy:  -345.03203205092069
    Total Energy =                       -345.0320320509206908
  Basis Set: CC-PVTZ
  Basis Set:
  @DF-RHF Final Energy:  -345.03211350724257
    Total Energy =                       -345.0321135072423431
  Basis Set: CC-PVTZ
  Basis Set:
  Basis Set: CC-PVTZ
  Basis Set:
  @DF-RHF Final Energy:  -345.03212395979295
    Total Energy =                       -345.0321239597929548
  Basis Set: CC-PVTZ
  Basis Set:
  Basis Set: CC-PVTZ
  Basis Set:
  @DF-RHF Final Energy:  -345.03212600715108
    Total Energy =                       -345.0321260071511347
  Basis Set: CC-PVTZ
  Basis Set:
  Charge       = 0
  Multiplicity = 1
  Basis Set: CC-PVTZ
  Basis Set:

    Orbital Energies (a.u.)
    -----------------------

    Doubly Occupied:

       1A    -20.587533     2A    -20.527036     3A    -11.366764
       4A    -11.295331     5A    -11.227561     6A    -11.217856
       7A    -11.210971     8A     -1.461031     9A     -1.363210
      10A     -1.080359    11A     -1.002460    12A     -0.946890
      13A     -0.867585    14A     -0.738174    15A     -0.690976
      16A     -0.676912    17A     -0.660459    18A     -0.616981
      19A     -0.584274    20A     -0.580042    21A     -0.565922
      22A     -0.549812    23A     -0.533157    24A     -0.517461
      25A     -0.508971    26A     -0.482332    27A     -0.441570
      28A     -0.431001

  @DF-RHF Final Energy:  -345.03212684282778

   => Energetics <=

    Nuclear Repulsion Energy =            324.5034344645770261
    One-Electron Energy =               -1113.6058712144968013
    Two-Electron Energy =                 444.0703099070922235
    DFT Exchange-Correlation Energy =       0.0000000000000000
    Empirical Dispersion Energy =           0.0000000000000000
    PCM Polarization Energy =               0.0000000000000000
    EFP Energy =                            0.0000000000000000
    Total Energy =                       -345.0321268428275516
    Molecular point group: c1
  Basis Set: CC-PVTZ
  Basis Set:

  -Total Gradient:
     Atom            X                  Y                   Z
    ------   -----------------  -----------------  -----------------
       1       -0.000014028379    -0.000007432518    -0.000011114395
       2        0.000320585368     0.000386426157     0.002943278337
       3        0.000026134412     0.000012310504     0.000095094257
       4       -0.000735446071    -0.000247789948    -0.004317289691
       5       -0.000003278743    -0.000002159792    -0.000052396719
       6       -0.000027365846     0.000012494252    -0.000005756766
       7        0.000004988379    -0.000019666334    -0.000007435614
       8        0.001069247253    -0.002460681996    -0.000411937264
       9        0.000000506156     0.000028435847     0.000018730083
      10        0.000024367541    -0.000005171614    -0.000010269610
      11       -0.000718958592     0.002286551253     0.001799916397
      12        0.000018857090     0.000002804075    -0.000014035048
      13        0.000013570028     0.000002755279    -0.000008836793
      14        0.000015882883     0.000014063209    -0.000002467960
      15        0.000010975453    -0.000002481639    -0.000013793715
      16        0.000001118137    -0.000000548564    -0.000005270130
      17       -0.000007155072     0.000000091830     0.000003584632

  **** Optimization is complete! (in 11 steps) ****
    Final optimized geometry and variables:
    Molecular point group: c1

    Geometry (in Angstrom), charge = 0, multiplicity = 1:

    O           -1.331821064229     1.048232660944     0.077035854945
    C           -1.110630182929    -0.087238380385     0.324483699893
    C           -2.159049002170    -1.061953327338     0.791355140874
    O            0.059060300147    -0.687465156513     0.218076653315
    H           -2.204746001556    -1.901760848934     0.110297151787
    H           -3.115942557876    -0.567777860327     0.837938254623
    H           -1.889481410852    -1.445195439332     1.767176960084
    C            1.336417093478    -0.082952323531    -0.050779255495
    C            1.422032650807     1.431132303831     0.071345747447
    C            1.796540710022    -0.585582088851    -1.406087637132
    H            1.963483783119    -0.497536670500     0.727336490528
    H            1.042289880212     1.779085633977     1.020983321908
    H            2.473008032540     1.693614808380     0.011156988148
    H            0.888980821046     1.942158884163    -0.714210809971
    H            2.815707752639    -0.270260623233    -1.595688113846
    H            1.757950097199    -1.666360574173    -1.445789906273
    H            1.164405461553    -0.188503067314    -2.191789003268

  Mulliken Charges: (a.u.)
   Center  Symbol    Alpha    Beta     Spin     Total
       1     O     4.19811  4.19811  0.00000 -0.39621
       2     C     2.80668  2.80668  0.00000  0.38665
       3     C     3.13666  3.13666  0.00000 -0.27332
       4     O     4.16409  4.16409  0.00000 -0.32819
       5     H     0.44601  0.44601  0.00000  0.10798
       6     H     0.43938  0.43938  0.00000  0.12125
       7     H     0.44735  0.44735  0.00000  0.10530
       8     C     2.93916  2.93916  0.00000  0.12167
       9     C     3.15432  3.15432  0.00000 -0.30865
      10     C     3.14339  3.14339  0.00000 -0.28677
      11     H     0.44404  0.44404  0.00000  0.11192
      12     H     0.44206  0.44206  0.00000  0.11587
      13     H     0.45193  0.45193  0.00000  0.09614
      14     H     0.43829  0.43829  0.00000  0.12342
      15     H     0.45278  0.45278  0.00000  0.09444
      16     H     0.44594  0.44594  0.00000  0.10813
      17     H     0.44982  0.44982  0.00000  0.10036

   Total alpha = 28.00000, Total beta = 28.00000, Total charge = -0.00000

*** Psi4 exiting successfully. Buy a developer a beer!
