  ==> Input File <==

--------------------------------------------------------------------------
set {
	reference rhf
	basis 6-31G*
}

set_num_threads( 4 )
memory 2 gb

molecule MOL {
0 1

H	 1.150536	 -4.110501	 3.822058
C	 1.294467	 -3.383538	 3.043675
C	 0.447389	 -3.353334	 1.941056
C	 2.321846	 -2.466070	 3.122398
H	 -0.358871	 -4.060909	 1.862879
C	 0.628852	 -2.422642	 0.941016
H	 2.986877	 -2.474449	 3.967826
C	 2.518527	 -1.520383	 2.121672
H	 -0.017965	 -2.388241	 0.084115
C	 1.668496	 -1.499093	 1.027106
H	 3.326313	 -0.820355	 2.211719
O	 1.765256	 -0.628444	 0.000000
C	 2.778419	 0.335181	 0.000000
H	 2.731280	 0.961222	 -0.884976
H	 3.711703	 -0.207767	 0.000000
H	 2.731280	 0.961222	 0.884976

	symmetry c1
}
set optking {
	frozen_dihedral = ("
		10 12 13 14
	")
}

ee = optimize('scf')
oeprop('DIPOLE', 'QUADRUPOLE', 'MULLIKEN_CHARGES')
f=open( 'psi4out.xyz', 'w' )
f.write( "16  " )
f.write( str(ee) + "\n" )
f.write( MOL.save_string_xyz() )
f.close()
--------------------------------------------------------------------------

    Molecular point group: c1
  Charge       = 0
  Multiplicity = 1
  Basis Set: 6-31G*
  Basis Set:
  @DF-RHF Final Energy:  -344.58070295621155
    Total Energy =                       -344.5807029562114963
    Molecular point group: c1
  Basis Set: 6-31G*
  Basis Set:
  Basis Set: 6-31G*
  Basis Set:
  @DF-RHF Final Energy:  -344.58234010897274
    Total Energy =                       -344.5823401089725735
  Basis Set: 6-31G*
  Basis Set:
  Basis Set: 6-31G*
  Basis Set:
  @DF-RHF Final Energy:  -344.58279447337856
    Total Energy =                       -344.5827944733786126
  Basis Set: 6-31G*
  Basis Set:
  Basis Set: 6-31G*
  Basis Set:
  @DF-RHF Final Energy:  -344.58279584220060
    Total Energy =                       -344.5827958422004258
  Basis Set: 6-31G*
  Basis Set:
  Charge       = 0
  Multiplicity = 1
  Basis Set: 6-31G*
  Basis Set:

    Orbital Energies (a.u.)
    -----------------------

    Doubly Occupied:

       1A    -20.585265     2A    -11.294024     3A    -11.279991
       4A    -11.232810     5A    -11.231298     6A    -11.223716
       7A    -11.219186     8A    -11.219104     9A     -1.414427
      10A     -1.145711    11A     -1.021762    12A     -1.012615
      13A     -0.941645    14A     -0.830282    15A     -0.804527
      16A     -0.721745    17A     -0.663827    18A     -0.661516
      19A     -0.656559    20A     -0.616843    21A     -0.586588
      22A     -0.575499    23A     -0.523794    24A     -0.520705
      25A     -0.508725    26A     -0.475345    27A     -0.462326
      28A     -0.334578    29A     -0.304827

  @DF-RHF Final Energy:  -344.58279664506188

   => Energetics <=

    Nuclear Repulsion Energy =            348.1407801029141638
    One-Electron Energy =               -1157.3086748288274066
    Two-Electron Energy =                 464.5850980808512531
    DFT Exchange-Correlation Energy =       0.0000000000000000
    Empirical Dispersion Energy =           0.0000000000000000
    PCM Polarization Energy =               0.0000000000000000
    EFP Energy =                            0.0000000000000000
    Total Energy =                       -344.5827966450619897
    Molecular point group: c1
  Basis Set: 6-31G*
  Basis Set:

  -Total Gradient:
     Atom            X                  Y                   Z
    ------   -----------------  -----------------  -----------------
       1        0.000002981597     0.000002676283     0.000001503392
       2        0.000015766543    -0.000007935918    -0.000004639376
       3       -0.000009167047     0.000019994688     0.000003400760
       4       -0.000007318119     0.000008073296     0.000013063580
       5        0.000002535732     0.000002420612    -0.000006042373
       6       -0.000008255468     0.000026786870     0.000003938274
       7        0.000001022233    -0.000000593053     0.000002214598
       8       -0.000007993347     0.000002486553     0.000016596421
       9       -0.000002049763    -0.000001612070    -0.000004946165
      10        0.000061724536    -0.000056811444    -0.000037216693
      11       -0.000004834547    -0.000005641353     0.000005945279
      12        0.000012121189     0.000060869635    -0.000007851678
      13        0.000010193133     0.000014096646     0.000011880318
      14       -0.000032699735    -0.000020575423     0.000003025257
      15       -0.000013143303    -0.000031435394     0.000003450736
      16       -0.000020883633    -0.000012799926    -0.000004322331

  **** Optimization is complete! (in 5 steps) ****
    Final optimized geometry and variables:
    Molecular point group: c1

    Geometry (in Angstrom), charge = 0, multiplicity = 1:

    H           -0.570177727344    -2.316935136384     2.352213766229
    C           -0.421751235645    -1.589312419829     1.575268255218
    C           -1.269059467022    -1.551631680736     0.472718932852
    C            0.611096823624    -0.678480377800     1.655570693955
    H           -2.079702776043    -2.254132732109     0.393573544438
    C           -1.081985230770    -0.620307526507    -0.525354750491
    H            1.276308406214    -0.692402413393     2.500796317310
    C            0.813527535376     0.268064030387     0.656465426756
    H           -1.728632442652    -0.579925205634    -1.382127610538
    C           -0.036339898106     0.296635258204    -0.437757882967
    H            1.625586779588     0.962903394214     0.747887200431
    O            0.064965022490     1.168696797282    -1.463037075188
    C            1.083616568559     2.126418992841    -1.461364208376
    H            0.961350018867     2.698700282428    -2.368773082560
    H            2.064654620680     1.662818064971    -1.462536906731
    H            1.002275143333     2.791351509632    -0.607793336767

  Mulliken Charges: (a.u.)
   Center  Symbol    Alpha    Beta     Spin     Total
       1     H     0.40127  0.40127  0.00000  0.19747
       2     C     3.11208  3.11208  0.00000 -0.22416
       3     C     3.09182  3.09182  0.00000 -0.18365
       4     C     3.09096  3.09096  0.00000 -0.18192
       5     H     0.39880  0.39880  0.00000  0.20240
       6     C     3.12542  3.12542  0.00000 -0.25084
       7     H     0.39970  0.39970  0.00000  0.20061
       8     C     3.14508  3.14508  0.00000 -0.29016
       9     H     0.39294  0.39294  0.00000  0.21412
      10     C     2.78223  2.78223  0.00000  0.43553
      11     H     0.39740  0.39740  0.00000  0.20519
      12     O     4.32592  4.32592  0.00000 -0.65183
      13     C     3.09242  3.09242  0.00000 -0.18485
      14     H     0.40460  0.40460  0.00000  0.19081
      15     H     0.41968  0.41968  0.00000  0.16063
      16     H     0.41968  0.41968  0.00000  0.16064

   Total alpha = 29.00000, Total beta = 29.00000, Total charge = -0.00000
