                              Psi4 1.0.54 Driver

  ==> Input File <==

--------------------------------------------------------------------------
set {
	reference rhf
	basis cc-pvtz
}

set_num_threads( 4 )
memory 2 gb

molecule MOL {
0 1

O	 0.107185	 -4.470096	 -2.628190
C	 0.416286	 -3.412656	 -3.072836
C	 0.371094	 -2.161552	 -2.218001
C	 0.886685	 -3.260554	 -4.499846
C	 1.651337	 -2.016962	 -1.385587
H	 -0.483363	 -2.245970	 -1.558540
H	 0.235608	 -1.284342	 -2.841708
C	 1.630207	 -0.772146	 -0.501001
H	 1.766948	 -2.908843	 -0.782751
H	 2.514322	 -1.970843	 -2.045458
C	 2.907848	 -0.545876	 0.309149
H	 0.781654	 -0.830265	 0.176169
H	 1.459791	 0.098726	 -1.128013
C	 3.373802	 0.906639	 0.372125
H	 3.699140	 -1.146831	 -0.127906
H	 2.764321	 -0.923458	 1.318191
H	 3.519798	 1.311927	 -0.623875
H	 4.316899	 0.983758	 0.900700
H	 2.661122	 1.540651	 0.885346
H	 0.148923	 -2.695251	 -5.060325
H	 1.017914	 -4.230782	 -4.953725
H	 1.815401	 -2.702427	 -4.539473

	symmetry c1
}
set optking {
	frozen_dihedral = ("
		12 8 11 15
	")
}

ee,wfn = optimize('scf', return_wfn=True)
oeprop( wfn, 'DIPOLE', 'QUADRUPOLE', 'MULLIKEN_CHARGES')
f=open( 'psi4out.xyz', 'w' )
f.write( "22  " )
f.write( str(ee) + "\n" )
f.write( MOL.save_string_xyz() )
f.close()
--------------------------------------------------------------------------

    Molecular point group: c1
  Charge       = 0
  Multiplicity = 1
  Basis Set: CC-PVTZ
  Basis Set:
  @DF-RHF Final Energy:  -348.22044374981391
    Total Energy =                       -348.2204437498141942
    Molecular point group: c1
  Basis Set: CC-PVTZ
  Basis Set:
  Basis Set: CC-PVTZ
  Basis Set:
  @DF-RHF Final Energy:  -348.22011306384138
    Total Energy =                       -348.2201130638413815
  Basis Set: CC-PVTZ
  Basis Set:
  Basis Set: CC-PVTZ
  Basis Set:
  @DF-RHF Final Energy:  -348.22116402963525
    Total Energy =                       -348.2211640296354176
  Basis Set: CC-PVTZ
  Basis Set:
  Basis Set: CC-PVTZ
  Basis Set:
  @DF-RHF Final Energy:  -348.22089577821117
    Total Energy =                       -348.2208957782112293
  Basis Set: CC-PVTZ
  Basis Set:
  @DF-RHF Final Energy:  -348.22117601784629
    Total Energy =                       -348.2211760178468580
  Basis Set: CC-PVTZ
  Basis Set:
  @DF-RHF Final Energy:  -348.22115886258598
    Total Energy =                       -348.2211588625858667
  Basis Set: CC-PVTZ
  Basis Set:
  Basis Set: CC-PVTZ
  Basis Set:
  @DF-RHF Final Energy:  -348.22118677195806
    Total Energy =                       -348.2211867719581733
  Basis Set: CC-PVTZ
  Basis Set:
  Basis Set: CC-PVTZ
  Basis Set:
  @DF-RHF Final Energy:  -348.22120603170049
    Total Energy =                       -348.2212060317007172
  Basis Set: CC-PVTZ
  Basis Set:
  Charge       = 0
  Multiplicity = 1
  Basis Set: CC-PVTZ
  Basis Set:

    Orbital Energies (a.u.)
    -----------------------

    Doubly Occupied:

       1A    -20.536694     2A    -11.319251     3A    -11.228599
       4A    -11.227431     5A    -11.226847     6A    -11.220408
       7A    -11.218565     8A    -11.211772     9A     -1.396833
      10A     -1.096707    11A     -1.046283    12A     -1.001630
      13A     -0.940237    14A     -0.847073    15A     -0.799611
      16A     -0.733912    17A     -0.664859    18A     -0.649714
      19A     -0.631162    20A     -0.612072    21A     -0.594577
      22A     -0.588709    23A     -0.561690    24A     -0.550039
      25A     -0.536216    26A     -0.513592    27A     -0.499314
      28A     -0.491208    29A     -0.474896    30A     -0.465401
      31A     -0.461275    32A     -0.398269

  @DF-RHF Final Energy:  -348.22120623058390

   => Energetics <=

    Nuclear Repulsion Energy =            369.5193858268751228
    One-Electron Energy =               -1203.9914947882889464
    Two-Electron Energy =                 486.2509027308300915
    DFT Exchange-Correlation Energy =       0.0000000000000000
    Empirical Dispersion Energy =           0.0000000000000000
    PCM Polarization Energy =               0.0000000000000000
    EFP Energy =                            0.0000000000000000
    Total Energy =                       -348.2212062305837321
    Molecular point group: c1
  Basis Set: CC-PVTZ
  Basis Set:

  -Total Gradient:
     Atom            X                  Y                   Z
    ------   -----------------  -----------------  -----------------
       1        0.000018499781     0.000020476503    -0.000012355505
       2        0.000001502008    -0.000017559061    -0.000006443386
       3       -0.000000600006     0.000010501169     0.000000532392
       4       -0.000030733956    -0.000031457035    -0.000000993153
       5        0.000006380119    -0.000003968696     0.000000989480
       6        0.000002332616    -0.000001645235    -0.000011572291
       7        0.000004762288     0.000000760599     0.000020920872
       8       -0.001115840281     0.004155194454     0.000398752733
       9       -0.000000794377     0.000001406695    -0.000000596823
      10        0.000000389326    -0.000012967415    -0.000016196653
      11        0.000990082344     0.003007372397    -0.002859748450
      12        0.000791328552    -0.003945252214     0.000142225976
      13        0.000013116853    -0.000000353769     0.000005574319
      14        0.000005315739     0.000039093890    -0.000037241298
      15       -0.000699467207    -0.003199093161     0.002375925524
      16       -0.000002419145    -0.000016292000    -0.000022827776
      17       -0.000015187576     0.000004106745     0.000035473282
      18       -0.000009667721     0.000001578379    -0.000014678043
      19        0.000025559858    -0.000028476022    -0.000013647638
      20        0.000009633709     0.000001633334    -0.000000379383
      21       -0.000001963291     0.000015458037     0.000006741460
      22        0.000007770365    -0.000000517597     0.000009544361

  **** Optimization is complete! (in 9 steps) ****
    Final optimized geometry and variables:
    Molecular point group: c1

    Geometry (in Angstrom), charge = 0, multiplicity = 1:

    O           -1.110818756621    -2.642057148462    -0.794152951710
    C           -0.963021624645    -1.567247506790    -1.278049308030
    C           -1.077179403535    -0.309660169374    -0.439593043225
    C           -0.638323657444    -1.396702513419    -2.743036904346
    C            0.250567918559     0.011852126259     0.256638050878
    H           -1.846069825953    -0.479895574507     0.303099611617
    H           -1.379908548772     0.528506424073    -1.058579339224
    C            0.175177385794     1.270706654146     1.119159076259
    H            0.534249611071    -0.835965183267     0.871102070548
    H            1.035304015084     0.133865302956    -0.485408092629
    C            1.481107134421     1.553848457416     1.879459946019
    H           -0.635637671852     1.137258260788     1.828399826483
    H           -0.084265089201     2.117961996918     0.491512700667
    C            1.807279294651     3.036941931833     2.008629225873
    H            2.303543684923     1.028195816667     1.404061696537
    H            1.410980054382     1.119250051494     2.871959736550
    H            1.947786289069     3.492645857639     1.034125902136
    H            2.714039566754     3.192076100837     2.581744432577
    H            1.005010612213     3.570044292350     2.508094684905
    H           -1.484067723232    -0.936456094411    -3.243897958459
    H           -0.432565558107    -2.356027465283    -3.192313827127
    H            0.210304650719    -0.734742204568    -2.873766461968

  Mulliken Charges: (a.u.)
   Center  Symbol    Alpha    Beta     Spin     Total
       1     O     4.17777  4.17777  0.00000 -0.35555
       2     C     2.85825  2.85825  0.00000  0.28350
       3     C     3.09929  3.09929  0.00000 -0.19857
       4     C     3.15521  3.15521  0.00000 -0.31042
       5     C     3.10175  3.10175  0.00000 -0.20351
       6     H     0.43902  0.43902  0.00000  0.12196
       7     H     0.44905  0.44905  0.00000  0.10189
       8     C     3.09081  3.09081  0.00000 -0.18161
       9     H     0.43998  0.43998  0.00000  0.12004
      10     H     0.45205  0.45205  0.00000  0.09590
      11     C     3.08733  3.08733  0.00000 -0.17466
      12     H     0.45009  0.45009  0.00000  0.09983
      13     H     0.45388  0.45388  0.00000  0.09225
      14     C     3.14796  3.14796  0.00000 -0.29591
      15     H     0.45364  0.45364  0.00000  0.09273
      16     H     0.45059  0.45059  0.00000  0.09882
      17     H     0.45616  0.45616  0.00000  0.08767
      18     H     0.44817  0.44817  0.00000  0.10367
      19     H     0.45369  0.45369  0.00000  0.09261
      20     H     0.44834  0.44834  0.00000  0.10332
      21     H     0.43603  0.43603  0.00000  0.12793
      22     H     0.45094  0.45094  0.00000  0.09812

   Total alpha = 32.00000, Total beta = 32.00000, Total charge = -0.00000

*** Psi4 exiting successfully. Buy a developer a beer!
