  ==> Input File <==

--------------------------------------------------------------------------
set {
	reference rhf
	basis 6-31G*
}

set_num_threads( 1 )
memory 2 gb

molecule MOL {
0 1

H	 -2.153054	 -2.250733	 0.000000
O	 -2.462445	 -1.355403	 0.000000
C	 -1.434260	 -0.483044	 0.000000
C	 -1.747402	 0.872187	 0.000000
C	 -0.112826	 -0.887672	 0.000000
H	 -2.781042	 1.162947	 0.000000
C	 -0.737782	 1.812486	 0.000000
H	 0.142965	 -1.932242	 0.000000
C	 0.894804	 0.073633	 0.000000
H	 -0.988012	 2.857452	 0.000000
C	 0.595063	 1.425424	 0.000000
C	 2.274807	 -0.357748	 0.000000
H	 1.382498	 2.154482	 0.000000
N	 3.358849	 -0.697974	 -0.002249

	symmetry c1
}
set optking {
	frozen_dihedral = ("
		5 3 2 1
	")
}

ee = energy('scf')
oeprop('DIPOLE', 'QUADRUPOLE', 'MULLIKEN_CHARGES')
f=open( 'psi4out.xyz', 'w' )
f.write( "14  " )
f.write( str(ee) + "\n" )
f.write( MOL.save_string_xyz() )
f.close()
--------------------------------------------------------------------------

    Molecular point group: c1

    Geometry (in Angstrom), charge = 0, multiplicity = 1:

       Center              X                  Y                   Z               Mass
    ------------   -----------------  -----------------  -----------------  -----------------
           H         -2.153099470687    -2.250878735160     0.000264563819     1.007825032070
           O         -2.462490470687    -1.355548735160     0.000264563819    15.994914619560
           C         -1.434305470687    -0.483189735160     0.000264563819    12.000000000000
           C         -1.747447470687     0.872041264840     0.000264563819    12.000000000000
           C         -0.112871470687    -0.887817735160     0.000264563819    12.000000000000
           H         -2.781087470687     1.162801264840     0.000264563819     1.007825032070
           C         -0.737827470687     1.812340264840     0.000264563819    12.000000000000
           H          0.142919529313    -1.932387735160     0.000264563819     1.007825032070
           C          0.894758529313     0.073487264840     0.000264563819    12.000000000000
           H         -0.988057470687     2.857306264840     0.000264563819     1.007825032070
           C          0.595017529313     1.425278264840     0.000264563819    12.000000000000
           C          2.274761529313    -0.357893735160     0.000264563819    12.000000000000
           H          1.382452529313     2.154336264840     0.000264563819     1.007825032070
           N          3.358803529313    -0.698119735160    -0.001984436181    14.003074004780

  Charge       = 0
  Multiplicity = 1
  Basis Set: 6-31G*
  Basis Set:

    Orbital Energies (a.u.)
    -----------------------

    Doubly Occupied:

       1A    -20.613357     2A    -15.576095     3A    -11.326476
       4A    -11.295199     5A    -11.277355     6A    -11.263923
       7A    -11.262492     8A    -11.259238     9A    -11.253928
      10A     -1.433722    11A     -1.233859    12A     -1.182278
      13A     -1.063259    14A     -1.039160    15A     -0.896238
      16A     -0.867777    17A     -0.778127    18A     -0.726555
      19A     -0.700218    20A     -0.664099    21A     -0.627029
      22A     -0.613997    23A     -0.592982    24A     -0.562273
      25A     -0.550738    26A     -0.538998    27A     -0.527028
      28A     -0.473335    29A     -0.473315    30A     -0.363598
      31A     -0.336672

  @DF-RHF Final Energy:  -397.29196333275098

   => Energetics <=

    Nuclear Repulsion Energy =            379.4048988050781759
    One-Electron Energy =               -1290.6470842112466926
    Two-Electron Energy =                 513.9502220734157163
    DFT Exchange-Correlation Energy =       0.0000000000000000
    Empirical Dispersion Energy =           0.0000000000000000
    PCM Polarization Energy =               0.0000000000000000
    EFP Energy =                            0.0000000000000000
    Total Energy =                       -397.2919633327528572

  Mulliken Charges: (a.u.)
   Center  Symbol    Alpha    Beta     Spin     Total
       1     H     0.26830  0.26830  0.00000  0.46340
       2     O     4.37595  4.37595  0.00000 -0.75190
       3     C     2.79154  2.79154  0.00000  0.41693
       4     C     3.11408  3.11408  0.00000 -0.22817
       5     C     3.13443  3.13443  0.00000 -0.26887
       6     H     0.38292  0.38292  0.00000  0.23416
       7     C     3.09574  3.09574  0.00000 -0.19148
       8     H     0.38534  0.38534  0.00000  0.22933
       9     C     2.99113  2.99113  0.00000  0.01775
      10     H     0.38857  0.38857  0.00000  0.22287
      11     C     3.09894  3.09894  0.00000 -0.19789
      12     C     2.86663  2.86663  0.00000  0.26674
      13     H     0.38126  0.38126  0.00000  0.23747
      14     N     3.72517  3.72517  0.00000 -0.45034

   Total alpha = 31.00000, Total beta = 31.00000, Total charge = -0.00000
