  ==> Input File <==

--------------------------------------------------------------------------
set {
	reference rhf
	basis 6-31G*
}

set_num_threads( 4 )
memory 2 gb

molecule MOL {
0 1

O	 0.749854	 1.307668	 -0.000040
C	 0.576249	 0.131685	 -0.000108
C	 -0.766779	 -0.556801	 -0.000461
O	 1.568443	 -0.749345	 -0.000005
C	 -1.945214	 0.412366	 0.000161
H	 -0.796911	 -1.211249	 -0.867467
H	 -0.796854	 -1.212390	 0.865687
C	 -3.287791	 -0.317055	 0.000105
H	 -1.876087	 1.060580	 -0.866812
H	 -1.875822	 1.059691	 0.867761
H	 -3.394745	 -0.949193	 -0.877058
H	 -4.111778	 0.388953	 0.000015
H	 -3.394954	 -0.949187	 0.877259
C	 2.690697	 -0.453312	 0.811239
H	 3.151016	 0.473239	 0.499545
H	 3.376542	 -1.275226	 0.677298
H	 2.399336	 -0.373850	 1.848690

	symmetry c1
}
set optking {
	frozen_dihedral = ("
		14 4 2 1
	")
}

ee = optimize('scf')
oeprop('DIPOLE', 'QUADRUPOLE', 'MULLIKEN_CHARGES')
f=open( 'psi4out.xyz', 'w' )
f.write( "17  " )
f.write( str(ee) + "\n" )
f.write( MOL.save_string_xyz() )
f.close()
--------------------------------------------------------------------------

    Molecular point group: c1
  Charge       = 0
  Multiplicity = 1
  Basis Set: 6-31G*
  Basis Set:
  @DF-RHF Final Energy:  -344.89832909506680
    Total Energy =                       -344.8983290950670835
    Molecular point group: c1
  Basis Set: 6-31G*
  Basis Set:
  Basis Set: 6-31G*
  Basis Set:
  @DF-RHF Final Energy:  -344.89554731451136
    Total Energy =                       -344.8955473145113046
  Basis Set: 6-31G*
  Basis Set:
  Basis Set: 6-31G*
  Basis Set:
  @DF-RHF Final Energy:  -344.89895308639132
    Total Energy =                       -344.8989530863912591
  Basis Set: 6-31G*
  Basis Set:
  Basis Set: 6-31G*
  Basis Set:
  @DF-RHF Final Energy:  -344.89901435490827
    Total Energy =                       -344.8990143549084451
  Basis Set: 6-31G*
  Basis Set:
  Basis Set: 6-31G*
  Basis Set:
  @DF-RHF Final Energy:  -344.89902357423466
    Total Energy =                       -344.8990235742347181
  Basis Set: 6-31G*
  Basis Set:
  Charge       = 0
  Multiplicity = 1
  Basis Set: 6-31G*
  Basis Set:

    Orbital Energies (a.u.)
    -----------------------

    Doubly Occupied:

       1A    -20.596446     2A    -20.550037     3A    -11.373914
       4A    -11.284556     5A    -11.236631     6A    -11.222311
       7A    -11.214970     8A     -1.464598     9A     -1.364638
      10A     -1.080425    11A     -0.998865    12A     -0.942377
      13A     -0.829064    14A     -0.766089    15A     -0.699616
      16A     -0.679771    17A     -0.672540    18A     -0.635996
      19A     -0.602761    20A     -0.576434    21A     -0.567164
      22A     -0.530751    23A     -0.521639    24A     -0.497799
      25A     -0.488019    26A     -0.479101    27A     -0.454481
      28A     -0.436066

  @DF-RHF Final Energy:  -344.89902363007633

   => Energetics <=

    Nuclear Repulsion Energy =            311.9999683516606979
    One-Electron Energy =               -1088.2638644849853335
    Two-Electron Energy =                 431.3648725032481366
    DFT Exchange-Correlation Energy =       0.0000000000000000
    Empirical Dispersion Energy =           0.0000000000000000
    PCM Polarization Energy =               0.0000000000000000
    EFP Energy =                            0.0000000000000000
    Total Energy =                       -344.8990236300764423
    Molecular point group: c1
  Basis Set: 6-31G*
  Basis Set:

  -Total Gradient:
     Atom            X                  Y                   Z
    ------   -----------------  -----------------  -----------------
       1       -0.000720787202     0.000304498948    -0.009830148903
       2       -0.000354520332    -0.002317710920     0.017430424667
       3        0.000019462530     0.000007298395     0.000098262295
       4        0.003921193066     0.005891848749    -0.013604644883
       5        0.000003952480    -0.000009660660    -0.000043368616
       6       -0.000031166102     0.000061752995    -0.000055443594
       7        0.000027111873    -0.000034253485    -0.000020026070
       8        0.000000577502    -0.000000542458     0.000014940604
       9        0.000003666346     0.000000207256    -0.000004758206
      10       -0.000000143182     0.000000732208     0.000001370310
      11       -0.000001035680     0.000006159093    -0.000004774182
      12        0.000003209367     0.000000480724     0.000006927819
      13        0.000002186466    -0.000005728065    -0.000001073364
      14       -0.002864501161    -0.003888370681     0.006016908956
      15        0.000000566597    -0.000006963567     0.000000918844
      16       -0.000009139639    -0.000004261339    -0.000004415766
      17       -0.000000632943    -0.000005487194    -0.000001099911

  **** Optimization is complete! (in 6 steps) ****
    Final optimized geometry and variables:
    Molecular point group: c1

    Geometry (in Angstrom), charge = 0, multiplicity = 1:

    O            0.763094779115     1.344886927440    -0.023295065549
    C            0.595553117992     0.170709613957    -0.046593463659
    C           -0.745712639115    -0.517524116480    -0.089755517243
    O            1.599445208107    -0.707849709105    -0.137967900916
    C           -1.926721452725     0.445230122712    -0.161946989479
    H           -0.734209523216    -1.194490567640    -0.939598174919
    H           -0.810201876955    -1.153560046983     0.790271562483
    C           -3.265906884652    -0.289555796797    -0.196885968190
    H           -1.824595703377     1.070060459418    -1.042950905411
    H           -1.894586364481     1.116157472605     0.689714356985
    H           -3.335798760236    -0.944085662956    -1.061204021224
    H           -4.091523744634     0.412671205744    -0.247518407981
    H           -3.405824228211    -0.899785160919     0.691151293876
    C            2.772173940847    -0.429392946748     0.605173704031
    H            3.222118112313     0.499097121850     0.286296596469
    H            3.446174007697    -1.251546142332     0.421712859353
    H            2.541083560267    -0.376180027910     1.661832035873

  Mulliken Charges: (a.u.)
   Center  Symbol    Alpha    Beta     Spin     Total
       1     O     4.27477  4.27477  0.00000 -0.54954
       2     C     2.60583  2.60583  0.00000  0.78833
       3     C     3.20849  3.20849  0.00000 -0.41697
       4     O     4.31157  4.31157  0.00000 -0.62314
       5     C     3.15231  3.15231  0.00000 -0.30461
       6     H     0.39889  0.39889  0.00000  0.20223
       7     H     0.40424  0.40424  0.00000  0.19152
       8     C     3.24267  3.24267  0.00000 -0.48534
       9     H     0.41084  0.41084  0.00000  0.17833
      10     H     0.41089  0.41089  0.00000  0.17822
      11     H     0.42098  0.42098  0.00000  0.15804
      12     H     0.41504  0.41504  0.00000  0.16991
      13     H     0.42173  0.42173  0.00000  0.15655
      14     C     3.09448  3.09448  0.00000 -0.18896
      15     H     0.40318  0.40318  0.00000  0.19364
      16     H     0.40656  0.40656  0.00000  0.18688
      17     H     0.41753  0.41753  0.00000  0.16493

   Total alpha = 28.00000, Total beta = 28.00000, Total charge = -0.00000
