                              Psi4 1.0.54 Driver

  ==> Input File <==

--------------------------------------------------------------------------
set {
	reference rhf
	basis cc-pvtz
}

set_num_threads( 4 )
memory 2 gb

molecule MOL {
0 1

H	 -0.000342	 -0.223902	 -3.352295
C	 -0.027146	 0.371068	 -2.446756
C	 0.024493	 -0.518541	 -1.216015
H	 -0.932586	 0.964979	 -2.449855
H	 0.819708	 1.049865	 -2.473332
N	 -0.042516	 0.263377	 0.000000
H	 -0.822211	 -1.197105	 -1.225584
H	 0.921114	 -1.142847	 -1.255206
C	 0.024493	 -0.518541	 1.216015
H	 0.682568	 0.950412	 0.000000
C	 -1.094508	 -0.145063	 2.173692
H	 -0.065609	 -1.565845	 0.946785
H	 0.987756	 -0.411420	 1.721853
H	 -2.060367	 -0.288907	 1.705732
H	 -1.050805	 -0.751558	 3.070889
H	 -1.019098	 0.895155	 2.475179

	symmetry c1
}
set optking {
	frozen_dihedral = ("
		12 9 6 3
	")
}

ee,wfn = optimize('scf', return_wfn=True)
oeprop( wfn, 'DIPOLE', 'QUADRUPOLE', 'MULLIKEN_CHARGES')
f=open( 'psi4out.xyz', 'w' )
f.write( "16  " )
f.write( str(ee) + "\n" )
f.write( MOL.save_string_xyz() )
f.close()
--------------------------------------------------------------------------

    Molecular point group: c1
  Charge       = 0
  Multiplicity = 1
  Basis Set: CC-PVTZ
  Basis Set:
  @DF-RHF Final Energy:  -212.38988080014281
    Total Energy =                       -212.3898808001426346
    Molecular point group: c1
  Basis Set: CC-PVTZ
  Basis Set:
  Basis Set: CC-PVTZ
  Basis Set:
  @DF-RHF Final Energy:  -212.38627913882650
    Total Energy =                       -212.3862791388265805
  Basis Set: CC-PVTZ
  Basis Set:
  Basis Set: CC-PVTZ
  Basis Set:
  @DF-RHF Final Energy:  -212.39033865417588
    Total Energy =                       -212.3903386541758778
  Basis Set: CC-PVTZ
  Basis Set:
  Basis Set: CC-PVTZ
  Basis Set:
  @DF-RHF Final Energy:  -212.39040207882994
    Total Energy =                       -212.3904020788300500
  Basis Set: CC-PVTZ
  Basis Set:
  Basis Set: CC-PVTZ
  Basis Set:
  @DF-RHF Final Energy:  -212.39040521420628
    Total Energy =                       -212.3904052142062255
  Basis Set: CC-PVTZ
  Basis Set:
  Charge       = 0
  Multiplicity = 1
  Basis Set: CC-PVTZ
  Basis Set:

    Orbital Energies (a.u.)
    -----------------------

    Doubly Occupied:

       1A    -15.526165     2A    -11.239951     3A    -11.239259
       4A    -11.206419     5A    -11.200202     6A     -1.202835
       7A     -1.026769     8A     -0.963980     9A     -0.835957
      10A     -0.815745    11A     -0.664664    12A     -0.626478
      13A     -0.608344    14A     -0.566240    15A     -0.560538
      16A     -0.525109    17A     -0.505893    18A     -0.490051
      19A     -0.484020    20A     -0.471566    21A     -0.356188

  @DF-RHF Final Energy:  -212.39040576972766

   => Energetics <=

    Nuclear Repulsion Energy =            189.3676739847952319
    One-Electron Energy =                -661.2834143508778197
    Two-Electron Energy =                 259.5253345963549805
    DFT Exchange-Correlation Energy =       0.0000000000000000
    Empirical Dispersion Energy =           0.0000000000000000
    PCM Polarization Energy =               0.0000000000000000
    EFP Energy =                            0.0000000000000000
    Total Energy =                       -212.3904057697275789
    Molecular point group: c1
  Basis Set: CC-PVTZ
  Basis Set:

  -Total Gradient:
     Atom            X                  Y                   Z
    ------   -----------------  -----------------  -----------------
       1        0.000004984097    -0.000001823773    -0.000014224245
       2        0.000008112407     0.000003023271     0.000001077199
       3       -0.001309255536    -0.000277275722    -0.000220625292
       4       -0.000004972884    -0.000004868169     0.000007408683
       5        0.000006550742     0.000006059162     0.000000867917
       6        0.002225983279     0.000423228681     0.000324356028
       7       -0.000006435390    -0.000005775731     0.000009077694
       8        0.000000224702     0.000010428609     0.000003268669
       9       -0.002675468406    -0.000225635408    -0.000255590109
      10        0.000025777930     0.000015117653     0.000004346928
      11        0.000036810688     0.000000065465    -0.000009843363
      12        0.001682423176     0.000064825692     0.000149844119
      13        0.000004651363     0.000008035028     0.000016383424
      14       -0.000002199040    -0.000006399551    -0.000008383319
      15       -0.000006552044    -0.000002097243    -0.000000213355
      16        0.000009364913    -0.000006907965    -0.000007750974

  **** Optimization is complete! (in 6 steps) ****
    Final optimized geometry and variables:
    Molecular point group: c1

    Geometry (in Angstrom), charge = 0, multiplicity = 1:

    H            0.821262040391    -0.162377502660    -3.211743133065
    C            0.564841689785     0.437196105970    -2.345972275785
    C            0.504139982900    -0.422553971561    -1.094778301903
    H           -0.389854362753     0.915553373739    -2.526055586534
    H            1.316881235466     1.214263177269    -2.249089898098
    N            0.128888420593     0.365417847742     0.059722149819
    H           -0.241338127287    -1.198979975685    -1.228884831851
    H            1.462150377726    -0.931793871747    -0.960487380280
    C            0.037863877664    -0.355381560102     1.321246187372
    H            0.724785097507     1.158668693986     0.146773457535
    C           -1.252826945508    -0.047914776848     2.065560384015
    H            0.104489016193    -1.420350682407     1.126558809789
    H            0.886286966561    -0.123751595769     1.962613757211
    H           -2.112092227048    -0.319524061696     1.464207919944
    H           -1.300661140388    -0.592551770144     3.003309982829
    H           -1.324554274448     1.011239651154     2.285298475680

  Mulliken Charges: (a.u.)
   Center  Symbol    Alpha    Beta     Spin     Total
       1     H     0.45418  0.45418  0.00000  0.09164
       2     C     3.14410  3.14410  0.00000 -0.28819
       3     C     3.02076  3.02076  0.00000 -0.04151
       4     H     0.44973  0.44973  0.00000  0.10054
       5     H     0.45950  0.45950  0.00000  0.08100
       6     N     3.64339  3.64339  0.00000 -0.28678
       7     H     0.45930  0.45930  0.00000  0.08141
       8     H     0.47349  0.47349  0.00000  0.05302
       9     C     3.03599  3.03599  0.00000 -0.07199
      10     H     0.44200  0.44200  0.00000  0.11600
      11     C     3.12728  3.12728  0.00000 -0.25456
      12     H     0.45819  0.45819  0.00000  0.08362
      13     H     0.45939  0.45939  0.00000  0.08123
      14     H     0.45511  0.45511  0.00000  0.08977
      15     H     0.46026  0.46026  0.00000  0.07948
      16     H     0.45733  0.45733  0.00000  0.08534

   Total alpha = 21.00000, Total beta = 21.00000, Total charge =  0.00000

*** Psi4 exiting successfully. Buy a developer a beer!
