                              Psi4 1.0.54 Driver

  ==> Input File <==

--------------------------------------------------------------------------
set {
	reference rhf
	basis cc-pvtz
}

set_num_threads( 4 )
memory 2 gb

molecule MOL {
0 1

H	 -0.556115	 3.923265	 2.434067
O	 0.122764	 3.335798	 2.158022
C	 -0.431315	 2.249496	 1.464220
C	 0.692071	 1.326931	 1.036433
H	 -1.132343	 1.710529	 2.098134
H	 -0.979441	 2.595534	 0.590353
C	 0.196029	 0.106276	 0.266738
H	 1.235278	 1.013163	 1.922263
H	 1.389493	 1.893718	 0.427934
C	 1.330220	 -0.826136	 -0.155230
H	 -0.518576	 -0.434762	 0.879381
H	 -0.344614	 0.431657	 -0.619498
C	 2.719700	 -0.407669	 0.328325
H	 1.339388	 -0.911200	 -1.239363
H	 1.119001	 -1.821953	 0.224128
C	 3.241564	 0.893452	 -0.276737
H	 3.418299	 -1.204729	 0.093035
H	 2.711776	 -0.323368	 1.411960
H	 3.254204	 0.841071	 -1.360784
H	 2.634460	 1.745075	 0.005842
H	 4.254264	 1.092401	 0.054971

	symmetry c1
}
set optking {
	frozen_dihedral = ("
		4 7 10 14
	")
}

ee,wfn = optimize('scf', return_wfn=True)
oeprop( wfn, 'DIPOLE', 'QUADRUPOLE', 'MULLIKEN_CHARGES')
f=open( 'psi4out.xyz', 'w' )
f.write( "21  " )
f.write( str(ee) + "\n" )
f.write( MOL.save_string_xyz() )
f.close()
--------------------------------------------------------------------------

    Molecular point group: c1
  Charge       = 0
  Multiplicity = 1
  Basis Set: CC-PVTZ
  Basis Set:
  @DF-RHF Final Energy:  -310.29667254483081
    Total Energy =                       -310.2966725448314378
    Molecular point group: c1
  Basis Set: CC-PVTZ
  Basis Set:
  Basis Set: CC-PVTZ
  Basis Set:
  @DF-RHF Final Energy:  -310.31506696209175
    Total Energy =                       -310.3150669620916347
  Basis Set: CC-PVTZ
  Basis Set:
  Basis Set: CC-PVTZ
  Basis Set:
  @DF-RHF Final Energy:  -310.31919204931643
    Total Energy =                       -310.3191920493163138
  Basis Set: CC-PVTZ
  Basis Set:
  Basis Set: CC-PVTZ
  Basis Set:
  @DF-RHF Final Energy:  -310.32004419533541
    Total Energy =                       -310.3200441953352993
  Basis Set: CC-PVTZ
  Basis Set:
  @DF-RHF Final Energy:  -310.32055662314662
    Total Energy =                       -310.3205566231461603
  @DF-RHF Final Energy:  -310.32074569273215
    Total Energy =                       -310.3207456927321459
  Basis Set: CC-PVTZ
  Basis Set:
  @DF-RHF Final Energy:  -310.32075642850810
    Total Energy =                       -310.3207564285082753
  Basis Set: CC-PVTZ
  Basis Set:
  Basis Set: CC-PVTZ
  Basis Set:
  @DF-RHF Final Energy:  -310.32077225666808
    Total Energy =                       -310.3207722566683060
  Basis Set: CC-PVTZ
  Basis Set:
  Basis Set: CC-PVTZ
  Basis Set:
  @DF-RHF Final Energy:  -310.32077517648457
    Total Energy =                       -310.3207751764845739
  Basis Set: CC-PVTZ
  Basis Set:
  Charge       = 0
  Multiplicity = 1
  Basis Set: CC-PVTZ
  Basis Set:

    Orbital Energies (a.u.)
    -----------------------

    Doubly Occupied:

       1A    -20.545559     2A    -11.264959     3A    -11.214501
       4A    -11.212254     5A    -11.211247     6A    -11.208656
       7A    -11.203240     8A     -1.363376     9A     -1.082099
      10A     -1.030825    11A     -0.956612    12A     -0.874531
      13A     -0.819828    14A     -0.766200    15A     -0.692320
      16A     -0.661551    17A     -0.625403    18A     -0.614549
      19A     -0.574749    20A     -0.570116    21A     -0.540864
      22A     -0.527197    23A     -0.504442    24A     -0.495234
      25A     -0.480228    26A     -0.450134    27A     -0.446235
      28A     -0.444766    29A     -0.437092

  @DF-RHF Final Energy:  -310.32077581085525

   => Energetics <=

    Nuclear Repulsion Energy =            319.1936494974819425
    One-Electron Energy =               -1053.3913150661096552
    Two-Electron Energy =                 423.8768897577724033
    DFT Exchange-Correlation Energy =       0.0000000000000000
    Empirical Dispersion Energy =           0.0000000000000000
    PCM Polarization Energy =               0.0000000000000000
    EFP Energy =                            0.0000000000000000
    Total Energy =                       -310.3207758108553094
    Molecular point group: c1
  Basis Set: CC-PVTZ
  Basis Set:

  -Total Gradient:
     Atom            X                  Y                   Z
    ------   -----------------  -----------------  -----------------
       1        0.000000038715    -0.000000793737     0.000001032462
       2       -0.000000061396    -0.000006723907    -0.000011033775
       3       -0.000016714948    -0.000004982640     0.000007978903
       4        0.000024471645     0.000306525677    -0.000411305658
       5        0.000012136795     0.000013087312    -0.000011811688
       6        0.000012353285    -0.000004314822     0.000013413350
       7        0.000048232430    -0.000298024550     0.000643870414
       8       -0.000008074084     0.000017704023    -0.000005082520
       9       -0.000035460006    -0.000016924049    -0.000000163610
      10       -0.000508025947    -0.000528581547    -0.000179368365
      11       -0.000000978752     0.000007460566     0.000008617697
      12       -0.000005059172    -0.000010912448    -0.000002749809
      13        0.000021941356     0.000008858329    -0.000008207907
      14        0.000439206976     0.000550634729    -0.000024724819
      15        0.000011893907    -0.000011342755    -0.000001350800
      16       -0.000029886826    -0.000014388000    -0.000000152432
      17       -0.000028651023     0.000032137344    -0.000012039390
      18        0.000004714276    -0.000003500051    -0.000031386803
      19       -0.000001509781     0.000000998463     0.000004868933
      20        0.000038730834    -0.000036544135     0.000004956879
      21        0.000020701716    -0.000000373800     0.000014638938

  **** Optimization is complete! (in 10 steps) ****
    Final optimized geometry and variables:
    Molecular point group: c1

    Geometry (in Angstrom), charge = 0, multiplicity = 1:

    H           -2.081409178764     2.763046242392     1.901835302188
    O           -1.327554740513     2.279130811101     1.619604514646
    C           -1.723709322690     1.166517633101     0.861968942739
    C           -0.480382118838     0.417146560364     0.423633906072
    H           -2.362976862961     0.512866973788     1.451496961089
    H           -2.293233749902     1.483044633772    -0.009248291852
    C           -0.832413514341    -0.812408493605    -0.413297913866
    H            0.070893300246     0.136718619998     1.313233357985
    H            0.144399440184     1.104811068301    -0.130930728392
    C            0.324261954086    -1.724685871434    -0.913120887843
    H           -1.513391811395    -1.423661054902     0.170724730860
    H           -1.406610367381    -0.482030445861    -1.273144011031
    C            1.764801649361    -1.409542134901    -0.483906769246
    H            0.305530628484    -1.749157856417    -1.997928556225
    H            0.101460536438    -2.736807850342    -0.595764723207
    C            2.461142396696    -0.334544704964    -1.316371492784
    H            2.340616816963    -2.325022599111    -0.577418749143
    H            1.801834091349    -1.145157350593     0.566488483619
    H            2.507466087000    -0.630416785138    -2.359432937033
    H            1.953165714487     0.619595265730    -1.269492303498
    H            3.478133457431    -0.180415831703    -0.973124093134

  Mulliken Charges: (a.u.)
   Center  Symbol    Alpha    Beta     Spin     Total
       1     H     0.39783  0.39783  0.00000  0.20434
       2     O     4.19437  4.19437  0.00000 -0.38874
       3     C     2.96767  2.96767  0.00000  0.06465
       4     C     3.09494  3.09494  0.00000 -0.18987
       5     H     0.47236  0.47236  0.00000  0.05527
       6     H     0.47360  0.47360  0.00000  0.05281
       7     C     3.10414  3.10414  0.00000 -0.20827
       8     H     0.44799  0.44799  0.00000  0.10401
       9     H     0.44621  0.44621  0.00000  0.10759
      10     C     3.09961  3.09961  0.00000 -0.19923
      11     H     0.45254  0.45254  0.00000  0.09492
      12     H     0.45165  0.45165  0.00000  0.09670
      13     C     3.09863  3.09863  0.00000 -0.19725
      14     H     0.45298  0.45298  0.00000  0.09404
      15     H     0.44566  0.44566  0.00000  0.10867
      16     C     3.14699  3.14699  0.00000 -0.29398
      17     H     0.44461  0.44461  0.00000  0.11078
      18     H     0.45044  0.45044  0.00000  0.09913
      19     H     0.45571  0.45571  0.00000  0.08858
      20     H     0.45324  0.45324  0.00000  0.09351
      21     H     0.44883  0.44883  0.00000  0.10235

   Total alpha = 29.00000, Total beta = 29.00000, Total charge =  0.00000

*** Psi4 exiting successfully. Buy a developer a beer!
