  ==> Input File <==

--------------------------------------------------------------------------
set {
	reference rhf
	basis 6-31G*
}

set_num_threads( 1 )
memory 2 gb

molecule MOL {
0 1

O	 -0.291628	 1.323815	 -0.000732
C	 -0.449655	 0.146360	 0.000961
C	 -1.783294	 -0.549321	 -0.000296
O	 0.550821	 -0.724572	 0.000672
H	 -1.863538	 -1.185371	 -0.874187
H	 -2.574672	 0.185258	 -0.002793
H	 -1.866414	 -1.182381	 0.875436
C	 1.753744	 -0.320366	 0.629858
H	 2.158179	 0.557497	 0.147007
H	 2.434024	 -1.151214	 0.526615
H	 1.581518	 -0.104348	 1.674376

	symmetry c1
}
set optking {
	frozen_dihedral = ("
		2 4 8 9
	")
}

ee = energy('scf')
oeprop('DIPOLE', 'QUADRUPOLE', 'MULLIKEN_CHARGES')
f=open( 'psi4out.xyz', 'w' )
f.write( "11  " )
f.write( str(ee) + "\n" )
f.write( MOL.save_string_xyz() )
f.close()
--------------------------------------------------------------------------

    Molecular point group: c1

    Geometry (in Angstrom), charge = 0, multiplicity = 1:

       Center              X                  Y                   Z               Mass
    ------------   -----------------  -----------------  -----------------  -----------------
           O         -0.268171855250     1.350804056798    -0.134856302261    15.994914619560
           C         -0.426198855250     0.173349056798    -0.133163302261    12.000000000000
           C         -1.759837855250    -0.522331943202    -0.134420302261    12.000000000000
           O          0.574277144750    -0.697582943202    -0.133452302261    15.994914619560
           H         -1.840081855250    -1.158381943202    -1.008311302261     1.007825032070
           H         -2.551215855250     0.212247056798    -0.136917302261     1.007825032070
           H         -1.842957855250    -1.155391943202     0.741311697739     1.007825032070
           C          1.777200144750    -0.293376943202     0.495733697739    12.000000000000
           H          2.181635144750     0.584486056798     0.012882697739     1.007825032070
           H          2.457480144750    -1.124224943202     0.392490697739     1.007825032070
           H          1.604974144750    -0.077358943202     1.540251697739     1.007825032070

  Charge       = 0
  Multiplicity = 1
  Basis Set: 6-31G*
  Basis Set:

    Orbital Energies (a.u.)
    -----------------------

    Doubly Occupied:

       1A    -20.601218     2A    -20.548319     3A    -11.376851
       4A    -11.284531     5A    -11.234782     6A     -1.469858
       7A     -1.365003     8A     -1.034665     9A     -0.955158
      10A     -0.778733    11A     -0.695817    12A     -0.680626
      13A     -0.676043    14A     -0.597916    15A     -0.592452
      16A     -0.563932    17A     -0.533696    18A     -0.513259
      19A     -0.456902    20A     -0.441237

  @DF-RHF Final Energy:  -266.83109674119163

   => Energetics <=

    Nuclear Repulsion Energy =            183.2183282315160113
    One-Electron Energy =                -727.2968878645430095
    Two-Electron Energy =                 277.2474628918346298
    DFT Exchange-Correlation Energy =       0.0000000000000000
    Empirical Dispersion Energy =           0.0000000000000000
    PCM Polarization Energy =               0.0000000000000000
    EFP Energy =                            0.0000000000000000
    Total Energy =                       -266.8310967411923684

  Mulliken Charges: (a.u.)
   Center  Symbol    Alpha    Beta     Spin     Total
       1     O     4.27690  4.27690  0.00000 -0.55380
       2     C     2.62263  2.62263  0.00000  0.75474
       3     C     3.28255  3.28255  0.00000 -0.56509
       4     O     4.30076  4.30076  0.00000 -0.60151
       5     H     0.39891  0.39891  0.00000  0.20218
       6     H     0.39727  0.39727  0.00000  0.20546
       7     H     0.40196  0.40196  0.00000  0.19609
       8     C     3.09429  3.09429  0.00000 -0.18857
       9     H     0.40281  0.40281  0.00000  0.19438
      10     H     0.40715  0.40715  0.00000  0.18569
      11     H     0.41478  0.41478  0.00000  0.17044

   Total alpha = 20.00000, Total beta = 20.00000, Total charge =  0.00000
