  ==> Input File <==

--------------------------------------------------------------------------
set {
	reference rhf
	basis 6-31G*
}

set_num_threads( 4 )
memory 2 gb

molecule MOL {
0 1

H	 -1.170201	 0.191129	 0.994127
C	 -0.790252	 0.431209	 0.000000
N	 0.538815	 0.649616	 0.000000
O	 -1.507160	 0.484090	 -0.955226
C	 1.521968	 -0.411503	 0.000000
H	 0.852804	 1.592852	 0.000000
H	 2.150599	 -0.357004	 -0.881901
H	 0.999455	 -1.354525	 0.000000
H	 2.150599	 -0.357004	 0.881901

	symmetry c1
}
set optking {
	frozen_dihedral = ("
		1 2 3 6
	")
}

ee = optimize('scf')
oeprop('DIPOLE', 'QUADRUPOLE', 'MULLIKEN_CHARGES')
f=open( 'psi4out.xyz', 'w' )
f.write( "9  " )
f.write( str(ee) + "\n" )
f.write( MOL.save_string_xyz() )
f.close()
--------------------------------------------------------------------------

    Molecular point group: c1
  Charge       = 0
  Multiplicity = 1
  Basis Set: 6-31G*
  Basis Set:
  @DF-RHF Final Energy:  -207.91812917304870
    Total Energy =                       -207.9181291730486407
    Molecular point group: c1
  Basis Set: 6-31G*
  Basis Set:
  Basis Set: 6-31G*
  Basis Set:
  @DF-RHF Final Energy:  -207.92230158445125
    Total Energy =                       -207.9223015844513327
  Basis Set: 6-31G*
  Basis Set:
  Basis Set: 6-31G*
  Basis Set:
  @DF-RHF Final Energy:  -207.92448618393701
    Total Energy =                       -207.9244861839371197
  Basis Set: 6-31G*
  Basis Set:
  Basis Set: 6-31G*
  Basis Set:
  @DF-RHF Final Energy:  -207.92786888711765
    Total Energy =                       -207.9278688871176257
  Basis Set: 6-31G*
  Basis Set:
  @DF-RHF Final Energy:  -207.93015475803065
    Total Energy =                       -207.9301547580306533
  @DF-RHF Final Energy:  -207.93033315871884
    Total Energy =                       -207.9303331587187813
  @DF-RHF Final Energy:  -207.93073195133616
    Total Energy =                       -207.9307319513361847
  @DF-RHF Final Energy:  -207.93174658029187
    Total Energy =                       -207.9317465802918719
  @DF-RHF Final Energy:  -207.93265732013651
    Total Energy =                       -207.9326573201364283
  @DF-RHF Final Energy:  -207.93482713914662
    Total Energy =                       -207.9348271391466483
  @DF-RHF Final Energy:  -207.93528576264418
    Total Energy =                       -207.9352857626442130
  @DF-RHF Final Energy:  -207.93573726155068
    Total Energy =                       -207.9357372615506279
  @DF-RHF Final Energy:  -207.92848481909783
    Total Energy =                       -207.9284848190977755
  @DF-RHF Final Energy:  -207.93609134098153
    Total Energy =                       -207.9360913409814771
  @DF-RHF Final Energy:  -207.93688664822446
    Total Energy =                       -207.9368866482244300
  @DF-RHF Final Energy:  -207.93735735558772
    Total Energy =                       -207.9373573555877783
  Basis Set: 6-31G*
  Basis Set:
  @DF-RHF Final Energy:  -207.93740434752098
    Total Energy =                       -207.9374043475210954
  Basis Set: 6-31G*
  Basis Set:
  Basis Set: 6-31G*
  Basis Set:
  @DF-RHF Final Energy:  -207.93743140181815
    Total Energy =                       -207.9374314018180883
  Basis Set: 6-31G*
  Basis Set:
  Basis Set: 6-31G*
  Basis Set:
  @DF-RHF Final Energy:  -207.93743628528858
    Total Energy =                       -207.9374362852885838
  Basis Set: 6-31G*
  Basis Set:
  Charge       = 0
  Multiplicity = 1
  Basis Set: 6-31G*
  Basis Set:

    Orbital Energies (a.u.)
    -----------------------

    Doubly Occupied:

       1A    -20.559515     2A    -15.577699     3A    -11.353839
       4A    -11.266116     5A     -1.413873     6A     -1.233087
       7A     -0.947849     8A     -0.830488     9A     -0.707672
      10A     -0.673002    11A     -0.645084    12A     -0.582392
      13A     -0.563349    14A     -0.529330    15A     -0.442469
      16A     -0.405007

  @DF-RHF Final Energy:  -207.93743648434884

   => Energetics <=

    Nuclear Repulsion Energy =            120.0617531684821415
    One-Electron Energy =                -520.5368399035684206
    Two-Electron Energy =                 192.5376502507374425
    DFT Exchange-Correlation Energy =       0.0000000000000000
    Empirical Dispersion Energy =           0.0000000000000000
    PCM Polarization Energy =               0.0000000000000000
    EFP Energy =                            0.0000000000000000
    Total Energy =                       -207.9374364843488365
    Molecular point group: c1
  Basis Set: 6-31G*
  Basis Set:

  -Total Gradient:
     Atom            X                  Y                   Z
    ------   -----------------  -----------------  -----------------
       1        0.001303734327     0.010124947656     0.004562542622
       2       -0.000657989383    -0.014297420324    -0.003745590285
       3       -0.005334390450     0.007110465025    -0.010982554611
       4       -0.000031235676     0.000051406402     0.000041273574
       5        0.000010569046     0.000021234228    -0.000108201805
       6        0.004704781678    -0.003016824235     0.010224940208
       7        0.000007155631    -0.000003617777     0.000012884907
       8        0.000002014136    -0.000003043260     0.000020368220
       9       -0.000004639311     0.000012852284    -0.000025662829

  **** Optimization is complete! (in 20 steps) ****
    Final optimized geometry and variables:
    Molecular point group: c1

    Geometry (in Angstrom), charge = 0, multiplicity = 1:

    H           -0.701725800305    -0.367335636648     1.252603286716
    C           -0.654343386490     0.077227647757     0.252948384411
    N            0.629681576912     0.160796638958    -0.301416159046
    O           -1.619047769099     0.548525009401    -0.244669093081
    C            1.588528841545    -0.792415907254     0.243257379534
    H            0.984999706447     1.091094031390    -0.190322437284
    H            2.549922587088    -0.623937729767    -0.222768017994
    H            1.277838647098    -1.800418116805    -0.000731613666
    H            1.712225310019    -0.723433243385     1.324039508578

  Mulliken Charges: (a.u.)
   Center  Symbol    Alpha    Beta     Spin     Total
       1     H     0.43113  0.43113  0.00000  0.13773
       2     C     2.76192  2.76192  0.00000  0.47615
       3     N     3.85597  3.85597  0.00000 -0.71194
       4     O     4.24007  4.24007  0.00000 -0.48014
       5     C     3.16413  3.16413  0.00000 -0.32827
       6     H     0.31237  0.31237  0.00000  0.37526
       7     H     0.40451  0.40451  0.00000  0.19099
       8     H     0.40630  0.40630  0.00000  0.18740
       9     H     0.42359  0.42359  0.00000  0.15281

   Total alpha = 16.00000, Total beta = 16.00000, Total charge =  0.00000
