  ==> Input File <==

--------------------------------------------------------------------------
set {
	reference rhf
	basis cc-pvtz
}

set_num_threads( 4 )
memory 2 gb

molecule MOL {
0 1

H	 -1.549485	 1.303985	 2.637589
O	 -1.193194	 2.028896	 2.157524
C	 -0.636540	 1.584536	 0.952194
C	 0.674373	 0.858264	 1.179854
H	 -1.320745	 0.938945	 0.410709
H	 -0.461677	 2.460231	 0.343703
O	 1.172093	 0.457955	 -0.054438
H	 0.513526	 -0.006251	 1.826104
H	 1.372963	 1.519770	 1.687748
C	 2.395478	 -0.199028	 -0.000366
H	 2.505946	 -0.901710	 -0.823354
H	 3.174616	 0.545641	 -0.071768
H	 2.513730	 -0.742241	 0.934223

	symmetry c1
}
set optking {
	frozen_dihedral = ("
		4 7 10 13
	")
}

ee = optimize('scf')
oeprop('DIPOLE', 'QUADRUPOLE', 'MULLIKEN_CHARGES')
f=open( 'psi4out.xyz', 'w' )
f.write( "13  " )
f.write( str(ee) + "\n" )
f.write( MOL.save_string_xyz() )
f.close()
--------------------------------------------------------------------------

    Molecular point group: c1
  Charge       = 0
  Multiplicity = 1
  Basis Set: CC-PVTZ
  Basis Set:
  @DF-RHF Final Energy:  -268.05972966864124
    Total Energy =                       -268.0597296686412392
    Molecular point group: c1
  Basis Set: CC-PVTZ
  Basis Set:
  Basis Set: CC-PVTZ
  Basis Set:
  @DF-RHF Final Energy:  -268.06034086539586
    Total Energy =                       -268.0603408653959718
  Basis Set: CC-PVTZ
  Basis Set:
  Basis Set: CC-PVTZ
  Basis Set:
  @DF-RHF Final Energy:  -268.06047222724499
    Total Energy =                       -268.0604722272450999
  Basis Set: CC-PVTZ
  Basis Set:
  Charge       = 0
  Multiplicity = 1
  Basis Set: CC-PVTZ
  Basis Set:

    Orbital Energies (a.u.)
    -----------------------

    Doubly Occupied:

       1A    -20.554232     2A    -20.552715     3A    -11.269564
       4A    -11.267598     5A    -11.267211     6A     -1.389839
       7A     -1.368863     8A     -1.019556     9A     -0.914123
      10A     -0.842815    11A     -0.711363    12A     -0.675147
      13A     -0.662545    14A     -0.638041    15A     -0.598584
      16A     -0.569243    17A     -0.549890    18A     -0.490777
      19A     -0.484169    20A     -0.441476    21A     -0.421486

  @DF-RHF Final Energy:  -268.06047328623777

   => Energetics <=

    Nuclear Repulsion Energy =            190.3505832346233433
    One-Electron Energy =                -743.4436393504104217
    Two-Electron Energy =                 285.0325828295492556
    DFT Exchange-Correlation Energy =       0.0000000000000000
    Empirical Dispersion Energy =           0.0000000000000000
    PCM Polarization Energy =               0.0000000000000000
    EFP Energy =                            0.0000000000000000
    Total Energy =                       -268.0604732862377659
    Molecular point group: c1
  Basis Set: CC-PVTZ
  Basis Set:

  -Total Gradient:
     Atom            X                  Y                   Z
    ------   -----------------  -----------------  -----------------
       1        0.000007152254    -0.000005086282    -0.000010347438
       2        0.000052059433     0.000002941817    -0.000011940881
       3       -0.000014575423    -0.000012572267    -0.000060382404
       4       -0.001054795390    -0.002091792689     0.000340484900
       5        0.000010862341     0.000000739617    -0.000006373936
       6       -0.000022165856     0.000019981357     0.000002250749
       7        0.001907619136     0.003492056027    -0.000031007172
       8        0.000003006978     0.000005941807     0.000019677522
       9        0.000013530200    -0.000014853699    -0.000051519758
      10       -0.001931303978    -0.003724601874    -0.001366488523
      11       -0.000072217764     0.000018683825     0.000001585306
      12       -0.000011715577     0.000015566713    -0.000004770571
      13        0.001112543642     0.002292995649     0.001178832207

  **** Optimization is complete! (in 4 steps) ****
    Final optimized geometry and variables:
    Molecular point group: c1

    Geometry (in Angstrom), charge = 0, multiplicity = 1:

    H           -2.031201400869     0.355068771085     1.756592697496
    O           -1.673763512625     1.081199749580     1.279235384697
    C           -1.106518865278     0.638346584498     0.078217693359
    C            0.205109027024    -0.083024572932     0.316414541480
    H           -1.783787271242    -0.010624557688    -0.467977302830
    H           -0.930932168943     1.514342250803    -0.529612633376
    O            0.707139867739    -0.488224272724    -0.915007111875
    H            0.043372445148    -0.945315726691     0.964294844083
    H            0.896942839860     0.584311520539     0.826172026366
    C            1.937215973781    -1.140156882614    -0.874941650037
    H            1.986229754945    -1.832365579299    -1.703396005677
    H            2.754726921941    -0.429331176236    -0.963448816079
    H            2.072501379748    -1.683508014091     0.055770108324

  Mulliken Charges: (a.u.)
   Center  Symbol    Alpha    Beta     Spin     Total
       1     H     0.39411  0.39411  0.00000  0.21178
       2     O     4.20212  4.20212  0.00000 -0.40425
       3     C     2.97445  2.97445  0.00000  0.05111
       4     C     2.96498  2.96498  0.00000  0.07003
       5     H     0.46716  0.46716  0.00000  0.06568
       6     H     0.45256  0.45256  0.00000  0.09488
       7     O     4.17797  4.17797  0.00000 -0.35594
       8     H     0.48088  0.48088  0.00000  0.03825
       9     H     0.47051  0.47051  0.00000  0.05899
      10     C     3.02941  3.02941  0.00000 -0.05881
      11     H     0.44965  0.44965  0.00000  0.10069
      12     H     0.46337  0.46337  0.00000  0.07325
      13     H     0.47283  0.47283  0.00000  0.05434

   Total alpha = 21.00000, Total beta = 21.00000, Total charge = -0.00000
