  ==> Input File <==

--------------------------------------------------------------------------
set {
	reference rhf
	basis 6-31G*
}

set_num_threads( 4 )
memory 2 gb

molecule MOL {
0 1

O	 0.074228	 1.262779	 -0.000085
C	 0.028650	 0.075053	 -0.000277
C	 -1.233602	 -0.752807	 0.000328
O	 1.109162	 -0.694619	 -0.000298
C	 -2.501530	 0.091881	 0.000126
H	 -1.193807	 -1.406641	 -0.865785
H	 -1.193516	 -1.405779	 0.867015
H	 -2.545121	 0.729328	 -0.874513
H	 -3.377167	 -0.548497	 0.000561
H	 -2.544818	 0.730135	 0.874258
C	 1.071880	 -1.854579	 0.811300
H	 0.928358	 -1.587898	 1.848458
H	 2.026821	 -2.338558	 0.678207
H	 0.272413	 -2.511049	 0.499258

	symmetry c1
}
set optking {
	frozen_dihedral = ("
		11 4 2 3
	")
}

ee = optimize('scf')
oeprop('DIPOLE', 'QUADRUPOLE', 'MULLIKEN_CHARGES')
f=open( 'psi4out.xyz', 'w' )
f.write( "14  " )
f.write( str(ee) + "\n" )
f.write( MOL.save_string_xyz() )
f.close()
--------------------------------------------------------------------------

    Molecular point group: c1
  Charge       = 0
  Multiplicity = 1
  Basis Set: 6-31G*
  Basis Set:
  @DF-RHF Final Energy:  -305.84617639766554
    Total Energy =                       -305.8461763976658858
    Molecular point group: c1
  Basis Set: 6-31G*
  Basis Set:
  Basis Set: 6-31G*
  Basis Set:
  @DF-RHF Final Energy:  -305.84758696955930
    Total Energy =                       -305.8475869695594156
  Basis Set: 6-31G*
  Basis Set:
  Basis Set: 6-31G*
  Basis Set:
  @DF-RHF Final Energy:  -305.85297332875871
    Total Energy =                       -305.8529733287585941
  Basis Set: 6-31G*
  Basis Set:
  Basis Set: 6-31G*
  Basis Set:
  @DF-RHF Final Energy:  -305.85428145097836
    Total Energy =                       -305.8542814509783057
  Basis Set: 6-31G*
  Basis Set:
  @DF-RHF Final Energy:  -305.85447054605140
    Total Energy =                       -305.8544705460514024
  Basis Set: 6-31G*
  Basis Set:
  @DF-RHF Final Energy:  -305.85450974445865
    Total Energy =                       -305.8545097444585394
  Basis Set: 6-31G*
  Basis Set:
  Basis Set: 6-31G*
  Basis Set:
  @DF-RHF Final Energy:  -305.85448988269070
    Total Energy =                       -305.8544898826907001
  Basis Set: 6-31G*
  Basis Set:
  Basis Set: 6-31G*
  Basis Set:
  @DF-RHF Final Energy:  -305.85451421743448
    Total Energy =                       -305.8545142174344846
  Basis Set: 6-31G*
  Basis Set:
  Charge       = 0
  Multiplicity = 1
  Basis Set: 6-31G*
  Basis Set:

    Orbital Energies (a.u.)
    -----------------------

    Doubly Occupied:

       1A    -20.597545     2A    -20.546770     3A    -11.374780
       4A    -11.296591     5A    -11.247659     6A    -11.220968
       7A     -1.462290     8A     -1.367721     9A     -1.063023
      10A     -0.984172    11A     -0.898585    12A     -0.768148
      13A     -0.703998    14A     -0.684267    15A     -0.673552
      16A     -0.627698    17A     -0.608379    18A     -0.560621
      19A     -0.548856    20A     -0.525738    21A     -0.512487
      22A     -0.495711    23A     -0.452682    24A     -0.434571

  @DF-RHF Final Energy:  -305.85451462407087

   => Energetics <=

    Nuclear Repulsion Energy =            247.2966769739298911
    One-Electron Energy =                -906.9887617934414266
    Two-Electron Energy =                 353.8375701954405486
    DFT Exchange-Correlation Energy =       0.0000000000000000
    Empirical Dispersion Energy =           0.0000000000000000
    PCM Polarization Energy =               0.0000000000000000
    EFP Energy =                            0.0000000000000000
    Total Energy =                       -305.8545146240710437
    Molecular point group: c1
  Basis Set: 6-31G*
  Basis Set:

  -Total Gradient:
     Atom            X                  Y                   Z
    ------   -----------------  -----------------  -----------------
       1        0.000039712020     0.000004377470    -0.000004919701
       2        0.000729947312     0.000647043350     0.005402828763
       3       -0.000089775615     0.000127110899    -0.002706230689
       4       -0.001800298017    -0.002334127005    -0.005081044146
       5        0.000005768542    -0.000015311659    -0.000003284382
       6        0.000008292565    -0.000009992642    -0.000011431254
       7       -0.000012203496    -0.000016857014    -0.000010439653
       8        0.000004537077    -0.000004341961     0.000007993183
       9       -0.000003027236    -0.000000836386     0.000001483275
      10       -0.000002471802     0.000002707865     0.000000446231
      11        0.001130860573     0.001591367975     0.002426114924
      12        0.000009098958    -0.000011115358     0.000001560690
      13       -0.000000872003     0.000014010910    -0.000005623185
      14       -0.000019568877     0.000005963555    -0.000017454055

  **** Optimization is complete! (in 9 steps) ****
    Final optimized geometry and variables:
    Molecular point group: c1

    Geometry (in Angstrom), charge = 0, multiplicity = 1:

    O            0.286030519793     1.541207516661    -0.128751351651
    C            0.218875118725     0.361628129056    -0.080097370347
    C           -1.090537740286    -0.403168818208    -0.082821157274
    O            1.342432899675    -0.369229665093    -0.126371663498
    C           -2.301740371034     0.510572189406    -0.229316592986
    H           -1.045116481619    -1.124261117508    -0.894527694712
    H           -1.167490103348    -0.984596411093     0.831956054124
    H           -2.253482718129     1.074283304400    -1.152417929642
    H           -3.213221808181    -0.077576726778    -0.232336043179
    H           -2.353169464806     1.220027487618     0.586854731260
    C            1.462732873967    -1.567373730918     0.605310640782
    H            1.239567137684    -1.409430962540     1.653863729524
    H            2.492743214144    -1.872533616242     0.507437679265
    H            0.823930047332    -2.348278169015     0.211103146560

  Mulliken Charges: (a.u.)
   Center  Symbol    Alpha    Beta     Spin     Total
       1     O     4.26007  4.26007  0.00000 -0.52013
       2     C     2.60685  2.60685  0.00000  0.78630
       3     C     3.22592  3.22592  0.00000 -0.45184
       4     O     4.30433  4.30433  0.00000 -0.60865
       5     C     3.23562  3.23562  0.00000 -0.47124
       6     H     0.40095  0.40095  0.00000  0.19809
       7     H     0.40550  0.40550  0.00000  0.18901
       8     H     0.40738  0.40738  0.00000  0.18524
       9     H     0.41867  0.41867  0.00000  0.16265
      10     H     0.40763  0.40763  0.00000  0.18475
      11     C     3.09481  3.09481  0.00000 -0.18961
      12     H     0.41565  0.41565  0.00000  0.16871
      13     H     0.39871  0.39871  0.00000  0.20258
      14     H     0.41793  0.41793  0.00000  0.16415

   Total alpha = 24.00000, Total beta = 24.00000, Total charge =  0.00000
