                              Psi4 1.0.54 Driver

  ==> Input File <==

--------------------------------------------------------------------------
set {
	reference rhf
	basis cc-pvtz
}

set_num_threads( 4 )
memory 2 gb

molecule MOL {
0 1

H	 -2.498963	 -0.741158	 -0.729149
O	 -2.346257	 -0.289210	 0.080372
C	 -1.183935	 0.486039	 -0.009831
C	 0.062853	 -0.375310	 0.027457
H	 -1.178881	 1.094526	 -0.908634
H	 -1.184406	 1.155156	 0.838676
O	 -0.321612	 -1.690580	 0.259192
H	 0.731903	 -0.027668	 0.816388
H	 0.596160	 -0.283892	 -0.916366
C	 0.725559	 -2.603710	 0.288306
H	 1.434225	 -2.370613	 1.079971
H	 0.306717	 -3.581999	 0.473261
H	 1.261081	 -2.624353	 -0.657903

	symmetry c1
}
set optking {
	frozen_dihedral = ("
		8 4 3 5
	")
}

ee,wfn = optimize('scf', return_wfn=True)
oeprop( wfn, 'DIPOLE', 'QUADRUPOLE', 'MULLIKEN_CHARGES')
f=open( 'psi4out.xyz', 'w' )
f.write( "13  " )
f.write( str(ee) + "\n" )
f.write( MOL.save_string_xyz() )
f.close()
--------------------------------------------------------------------------

    Molecular point group: c1
  Charge       = 0
  Multiplicity = 1
  Basis Set: CC-PVTZ
  Basis Set:
  @DF-RHF Final Energy:  -268.04864767319208
    Total Energy =                       -268.0486476731921357
    Molecular point group: c1
  Basis Set: CC-PVTZ
  Basis Set:
  Basis Set: CC-PVTZ
  Basis Set:
  @DF-RHF Final Energy:  -268.04990186130942
    Total Energy =                       -268.0499018613091948
  Basis Set: CC-PVTZ
  Basis Set:
  Basis Set: CC-PVTZ
  Basis Set:
  @DF-RHF Final Energy:  -268.05172068157822
    Total Energy =                       -268.0517206815782174
  Basis Set: CC-PVTZ
  Basis Set:
  Basis Set: CC-PVTZ
  Basis Set:
  @DF-RHF Final Energy:  -268.05216720398448
    Total Energy =                       -268.0521672039844816
  Basis Set: CC-PVTZ
  Basis Set:
  @DF-RHF Final Energy:  -268.05301056059534
    Total Energy =                       -268.0530105605952258
  @DF-RHF Final Energy:  -268.05371139201907
    Total Energy =                       -268.0537113920190109
  @DF-RHF Final Energy:  -268.05435925087147
    Total Energy =                       -268.0543592508715847
  @DF-RHF Final Energy:  -268.05491903598289
    Total Energy =                       -268.0549190359829481
  @DF-RHF Final Energy:  -268.05509725664081
    Total Energy =                       -268.0550972566408632
  @DF-RHF Final Energy:  -268.05522013574227
    Total Energy =                       -268.0552201357423314
  @DF-RHF Final Energy:  -268.05533618191362
    Total Energy =                       -268.0553361819136171
  @DF-RHF Final Energy:  -268.05560320584215
    Total Energy =                       -268.0556032058422034
  @DF-RHF Final Energy:  -268.05577696362991
    Total Energy =                       -268.0557769636297962
  Basis Set: CC-PVTZ
  Basis Set:
  @DF-RHF Final Energy:  -268.05581419442240
    Total Energy =                       -268.0558141944224531
  Basis Set: CC-PVTZ
  Basis Set:
  Basis Set: CC-PVTZ
  Basis Set:
  @DF-RHF Final Energy:  -268.05582130471157
    Total Energy =                       -268.0558213047115714
  Basis Set: CC-PVTZ
  Basis Set:
  Basis Set: CC-PVTZ
  Basis Set:
  @DF-RHF Final Energy:  -268.05582474352315
    Total Energy =                       -268.0558247435229760
  Basis Set: CC-PVTZ
  Basis Set:
  Charge       = 0
  Multiplicity = 1
  Basis Set: CC-PVTZ
  Basis Set:

    Orbital Energies (a.u.)
    -----------------------

    Doubly Occupied:

       1A    -20.566245     2A    -20.533018     3A    -11.278155
       4A    -11.275290     5A    -11.267106     6A     -1.403499
       7A     -1.350947     8A     -1.016524     9A     -0.927279
      10A     -0.836790    11A     -0.702279    12A     -0.690503
      13A     -0.668996    14A     -0.630159    15A     -0.601128
      16A     -0.568588    17A     -0.550264    18A     -0.497289
      19A     -0.476674    20A     -0.449368    21A     -0.416400

  @DF-RHF Final Energy:  -268.05582497756268

   => Energetics <=

    Nuclear Repulsion Energy =            195.3068402498991247
    One-Electron Energy =                -753.3123317260467502
    Two-Electron Energy =                 289.9496664985847474
    DFT Exchange-Correlation Energy =       0.0000000000000000
    Empirical Dispersion Energy =           0.0000000000000000
    PCM Polarization Energy =               0.0000000000000000
    EFP Energy =                            0.0000000000000000
    Total Energy =                       -268.0558249775629065
    Molecular point group: c1
  Basis Set: CC-PVTZ
  Basis Set:

  -Total Gradient:
     Atom            X                  Y                   Z
    ------   -----------------  -----------------  -----------------
       1       -0.000003070602    -0.000014148402     0.000006112617
       2       -0.000005402532    -0.000007325626    -0.000003955408
       3        0.002649618562     0.003882432220     0.004156926493
       4        0.002251396882     0.003423003669    -0.004815782216
       5       -0.002588805374    -0.003813146073    -0.002729315815
       6        0.000004757446     0.000002946115    -0.000002620509
       7       -0.000008569330    -0.000007214706    -0.000004530880
       8       -0.002295645963    -0.003447681317     0.003390925635
       9       -0.000003824095    -0.000007739312     0.000003419270
      10        0.000001469152    -0.000012160902    -0.000002500973
      11       -0.000003631397     0.000002205321    -0.000000526168
      12        0.000002777423    -0.000001911035     0.000000681559
      13       -0.000001070171     0.000000740047     0.000001166394

  **** Optimization is complete! (in 17 steps) ****
    Final optimized geometry and variables:
    Molecular point group: c1

    Geometry (in Angstrom), charge = 0, multiplicity = 1:

    H           -1.596959560678    -0.225029096606     0.169242601010
    O           -1.771860653775     0.640692233767    -0.155020432653
    C           -0.599547489011     1.394738590650    -0.094013321520
    C            0.681276149521     0.531345124165    -0.105150356791
    H           -0.606830585881     2.028013589396    -0.971461714982
    H           -0.608477145111     2.024793655839     0.788976180088
    O            0.340234920926    -0.799789180407     0.145925324944
    H            1.351229507880     0.863148567624     0.683852401166
    H            1.196485359516     0.606311761595    -1.058130089283
    C            1.419804528818    -1.675306581116     0.191915411351
    H            2.113943281511    -1.406415755263     0.984125554835
    H            1.034294199828    -2.665297903580     0.385882298121
    H            1.958755780222    -1.686501190753    -0.751837398519

  Mulliken Charges: (a.u.)
   Center  Symbol    Alpha    Beta     Spin     Total
       1     H     0.38182  0.38182  0.00000  0.23635
       2     O     4.20812  4.20812  0.00000 -0.41625
       3     C     2.95714  2.95714  0.00000  0.08572
       4     C     2.97297  2.97297  0.00000  0.05406
       5     H     0.46793  0.46793  0.00000  0.06415
       6     H     0.47501  0.47501  0.00000  0.04998
       7     O     4.18125  4.18125  0.00000 -0.36251
       8     H     0.47162  0.47162  0.00000  0.05675
       9     H     0.47043  0.47043  0.00000  0.05913
      10     C     3.03073  3.03073  0.00000 -0.06146
      11     H     0.46891  0.46891  0.00000  0.06219
      12     H     0.44580  0.44580  0.00000  0.10841
      13     H     0.46826  0.46826  0.00000  0.06347

   Total alpha = 21.00000, Total beta = 21.00000, Total charge =  0.00000

*** Psi4 exiting successfully. Buy a developer a beer!
