  ==> Input File <==

--------------------------------------------------------------------------
set {
	reference rhf
	basis 6-31G*
}

set_num_threads( 4 )
memory 2 gb

molecule MOL {
0 1

O	 0.074228	 1.262779	 -0.000085
C	 0.028650	 0.075053	 -0.000277
C	 -1.233602	 -0.752807	 0.000328
O	 1.109162	 -0.694619	 -0.000298
C	 -2.501530	 0.091881	 0.000126
H	 -1.193807	 -1.406641	 -0.865785
H	 -1.193516	 -1.405779	 0.867015
H	 -2.545121	 0.729328	 -0.874513
H	 -3.377167	 -0.548497	 0.000561
H	 -2.544818	 0.730135	 0.874258
C	 0.944639	 -2.033197	 0.431824
H	 0.590625	 -2.062017	 1.452244
H	 1.920395	 -2.487956	 0.361425
H	 0.242025	 -2.553690	 -0.202914

	symmetry c1
}
set optking {
	frozen_dihedral = ("
		11 4 2 3
	")
}

ee = optimize('scf')
oeprop('DIPOLE', 'QUADRUPOLE', 'MULLIKEN_CHARGES')
f=open( 'psi4out.xyz', 'w' )
f.write( "14  " )
f.write( str(ee) + "\n" )
f.write( MOL.save_string_xyz() )
f.close()
--------------------------------------------------------------------------

    Molecular point group: c1
  Charge       = 0
  Multiplicity = 1
  Basis Set: 6-31G*
  Basis Set:
  @DF-RHF Final Energy:  -305.84585231036431
    Total Energy =                       -305.8458523103643074
    Molecular point group: c1
  Basis Set: 6-31G*
  Basis Set:
  Basis Set: 6-31G*
  Basis Set:
  @DF-RHF Final Energy:  -305.84506369756093
    Total Energy =                       -305.8450636975610450
  Basis Set: 6-31G*
  Basis Set:
  Basis Set: 6-31G*
  Basis Set:
  @DF-RHF Final Energy:  -305.85375940270262
    Total Energy =                       -305.8537594027027353
  Basis Set: 6-31G*
  Basis Set:
  Basis Set: 6-31G*
  Basis Set:
  @DF-RHF Final Energy:  -305.85535756374321
    Total Energy =                       -305.8553575637432687
  Basis Set: 6-31G*
  Basis Set:
  @DF-RHF Final Energy:  -305.85555708979177
    Total Energy =                       -305.8555570897917733
  Basis Set: 6-31G*
  Basis Set:
  @DF-RHF Final Energy:  -305.85632286423942
    Total Energy =                       -305.8563228642392460
  Basis Set: 6-31G*
  Basis Set:
  Basis Set: 6-31G*
  Basis Set:
  @DF-RHF Final Energy:  -305.85638401230062
    Total Energy =                       -305.8563840123006798
  Basis Set: 6-31G*
  Basis Set:
  Basis Set: 6-31G*
  Basis Set:
  @DF-RHF Final Energy:  -305.85638739821167
    Total Energy =                       -305.8563873982115524
  Basis Set: 6-31G*
  Basis Set:
  Charge       = 0
  Multiplicity = 1
  Basis Set: 6-31G*
  Basis Set:

    Orbital Energies (a.u.)
    -----------------------

    Doubly Occupied:

       1A    -20.601961     2A    -20.541600     3A    -11.374615
       4A    -11.297217     5A    -11.248938     6A    -11.221042
       7A     -1.463674     8A     -1.366267     9A     -1.063602
      10A     -0.987008    11A     -0.899687    12A     -0.768698
      13A     -0.705670    14A     -0.687758    15A     -0.673009
      16A     -0.626660    17A     -0.605180    18A     -0.558965
      19A     -0.553035    20A     -0.526540    21A     -0.510633
      22A     -0.502012    23A     -0.448772    24A     -0.433197

  @DF-RHF Final Energy:  -305.85638807681772

   => Energetics <=

    Nuclear Repulsion Energy =            247.5221652930264895
    One-Electron Energy =                -907.4256260116899284
    Two-Electron Energy =                 354.0470726418457161
    DFT Exchange-Correlation Energy =       0.0000000000000000
    Empirical Dispersion Energy =           0.0000000000000000
    PCM Polarization Energy =               0.0000000000000000
    EFP Energy =                            0.0000000000000000
    Total Energy =                       -305.8563880768176659
    Molecular point group: c1
  Basis Set: 6-31G*
  Basis Set:

  -Total Gradient:
     Atom            X                  Y                   Z
    ------   -----------------  -----------------  -----------------
       1       -0.000056576613     0.000015771734    -0.000000810013
       2        0.000170184881     0.000233419306     0.002917706272
       3       -0.000002062076     0.000018151478    -0.001349487207
       4       -0.000447234329    -0.000689989030    -0.003077015442
       5        0.000013517250    -0.000004797068     0.000002882043
       6        0.000022855070    -0.000004400720    -0.000003647234
       7       -0.000003679787     0.000019275227    -0.000018982807
       8        0.000003420640     0.000001701949    -0.000008963479
       9        0.000008453277     0.000001105806     0.000001596999
      10       -0.000001570234     0.000004140266     0.000007918436
      11        0.000294007826     0.000456638982     0.001553633594
      12        0.000021471377    -0.000061171423    -0.000008335561
      13       -0.000003475787    -0.000014057481    -0.000002186393
      14       -0.000019311496     0.000024210972    -0.000014309210

  **** Optimization is complete! (in 9 steps) ****
    Final optimized geometry and variables:
    Molecular point group: c1

    Geometry (in Angstrom), charge = 0, multiplicity = 1:

    O            0.313769834161     1.556530323698    -0.085461438397
    C            0.235160311947     0.376302855772    -0.045225388974
    C           -1.086220999220    -0.368337545321    -0.056937527574
    O            1.356545685154    -0.351334039362    -0.051678103334
    C           -2.282090740538     0.574674335650    -0.120952156777
    H           -1.082638125702    -1.041642018903    -0.910035485766
    H           -1.150018103265    -0.999800559028     0.824489980729
    H           -2.244644720232     1.188603594362    -1.011647148744
    H           -3.204498159167     0.003926068951    -0.133351665405
    H           -2.299212625521     1.237658700894     0.734757580569
    C            1.386875889477    -1.704138154589     0.337507971707
    H            1.047126453974    -1.829159818070     1.358409151745
    H            2.420886992112    -2.004820091121     0.272808604964
    H            0.796482547634    -2.328614889291    -0.320983614781

  Mulliken Charges: (a.u.)
   Center  Symbol    Alpha    Beta     Spin     Total
       1     O     4.26549  4.26549  0.00000 -0.53098
       2     C     2.60246  2.60246  0.00000  0.79507
       3     C     3.22975  3.22975  0.00000 -0.45950
       4     O     4.30213  4.30213  0.00000 -0.60426
       5     C     3.23469  3.23469  0.00000 -0.46938
       6     H     0.40195  0.40195  0.00000  0.19610
       7     H     0.40508  0.40508  0.00000  0.18985
       8     H     0.40653  0.40653  0.00000  0.18694
       9     H     0.41898  0.41898  0.00000  0.16203
      10     H     0.40756  0.40756  0.00000  0.18487
      11     C     3.09427  3.09427  0.00000 -0.18854
      12     H     0.41581  0.41581  0.00000  0.16837
      13     H     0.39790  0.39790  0.00000  0.20420
      14     H     0.41739  0.41739  0.00000  0.16523

   Total alpha = 24.00000, Total beta = 24.00000, Total charge =  0.00000
