  ==> Input File <==

--------------------------------------------------------------------------
set {
	reference rhf
	basis 6-31G*
}

set_num_threads( 1 )
memory 2 gb

molecule MOL {
0 1

H	 -4.031818	 -0.453427	 -0.000094
C	 -2.967712	 -0.297022	 -0.000064
C	 -2.458620	 0.992929	 0.000032
C	 -2.109895	 -1.385637	 -0.000122
H	 -3.124998	 1.836319	 0.000077
C	 -1.090278	 1.193236	 0.000070
H	 -2.506361	 -2.384847	 -0.000198
C	 -0.739812	 -1.187531	 -0.000085
H	 -0.678594	 2.184290	 0.000146
C	 -0.226438	 0.104061	 0.000012
H	 -0.072310	 -2.027032	 -0.000131
C	 1.239129	 0.373821	 0.000060
O	 1.542367	 1.594005	 0.416954
O	 2.061737	 -0.418636	 -0.337856
C	 2.916635	 1.936101	 0.449046
H	 3.454718	 1.278460	 1.115958
H	 2.958086	 2.952013	 0.809681
H	 3.346030	 1.870646	 -0.540021

	symmetry c1
}
set optking {
	frozen_dihedral = ("
		12 13 15 16,
		10 12 13 15
	")
}

ee = energy('scf')
oeprop('DIPOLE', 'QUADRUPOLE', 'MULLIKEN_CHARGES')
f=open( 'psi4out.xyz', 'w' )
f.write( "18  " )
f.write( str(ee) + "\n" )
f.write( MOL.save_string_xyz() )
f.close()
--------------------------------------------------------------------------

    Molecular point group: c1

    Geometry (in Angstrom), charge = 0, multiplicity = 1:

       Center              X                  Y                   Z               Mass
    ------------   -----------------  -----------------  -----------------  -----------------
           H         -3.971128671633    -0.783130604989    -0.059253639609     1.007825032070
           C         -2.907022671633    -0.626725604989    -0.059223639609    12.000000000000
           C         -2.397930671633     0.663225395011    -0.059127639609    12.000000000000
           C         -2.049205671633    -1.715340604989    -0.059281639609    12.000000000000
           H         -3.064308671633     1.506615395011    -0.059082639609     1.007825032070
           C         -1.029588671633     0.863532395011    -0.059089639609    12.000000000000
           H         -2.445671671633    -2.714550604989    -0.059357639609     1.007825032070
           C         -0.679122671633    -1.517234604989    -0.059244639609    12.000000000000
           H         -0.617904671633     1.854586395011    -0.059013639609     1.007825032070
           C         -0.165748671633    -0.225642604989    -0.059147639609    12.000000000000
           H         -0.011620671633    -2.356735604989    -0.059290639609     1.007825032070
           C          1.299818328367     0.044117395011    -0.059099639609    12.000000000000
           O          1.603056328367     1.264301395011     0.357794360391    15.994914619560
           O          2.122426328367    -0.748339604989    -0.397015639609    15.994914619560
           C          2.977324328367     1.606397395011     0.389886360391    12.000000000000
           H          3.515407328367     0.948756395011     1.056798360391     1.007825032070
           H          3.018775328367     2.622309395011     0.750521360391     1.007825032070
           H          3.406719328367     1.540942395011    -0.599180639609     1.007825032070

  Charge       = 0
  Multiplicity = 1
  Basis Set: 6-31G*
  Basis Set:

    Orbital Energies (a.u.)
    -----------------------

    Doubly Occupied:

       1A    -20.608342     2A    -20.544255     3A    -11.377650
       4A    -11.283527     5A    -11.246415     6A    -11.244850
       7A    -11.244410     8A    -11.242252     9A    -11.237892
      10A    -11.237324    11A     -1.473269    12A     -1.363532
      13A     -1.165721    14A     -1.049191    15A     -1.025073
      16A     -0.978052    17A     -0.860180    18A     -0.835155
      19A     -0.778054    20A     -0.739928    21A     -0.684773
      22A     -0.677822    23A     -0.671723    24A     -0.631826
      25A     -0.624144    26A     -0.598377    27A     -0.585749
      28A     -0.559095    29A     -0.530381    30A     -0.519328
      31A     -0.504272    32A     -0.498825    33A     -0.458623
      34A     -0.442662    35A     -0.344403    36A     -0.341514

  @DF-RHF Final Energy:  -457.34826612590859

   => Energetics <=

    Nuclear Repulsion Energy =            493.1528817334915402
    One-Electron Energy =               -1600.5852748855318168
    Two-Electron Energy =                 650.0841270261311138
    DFT Exchange-Correlation Energy =       0.0000000000000000
    Empirical Dispersion Energy =           0.0000000000000000
    PCM Polarization Energy =               0.0000000000000000
    EFP Energy =                            0.0000000000000000
    Total Energy =                       -457.3482661259091628

  Mulliken Charges: (a.u.)
   Center  Symbol    Alpha    Beta     Spin     Total
       1     H     0.39553  0.39553  0.00000  0.20895
       2     C     3.09079  3.09079  0.00000 -0.18159
       3     C     3.10586  3.10586  0.00000 -0.21173
       4     C     3.10702  3.10702  0.00000 -0.21403
       5     H     0.39636  0.39636  0.00000  0.20728
       6     C     3.08961  3.08961  0.00000 -0.17922
       7     H     0.39520  0.39520  0.00000  0.20960
       8     C     3.08714  3.08714  0.00000 -0.17429
       9     H     0.37970  0.37970  0.00000  0.24060
      10     C     3.06461  3.06461  0.00000 -0.12922
      11     H     0.37990  0.37990  0.00000  0.24020
      12     C     2.59224  2.59224  0.00000  0.81552
      13     O     4.31160  4.31160  0.00000 -0.62321
      14     O     4.28954  4.28954  0.00000 -0.57907
      15     C     3.09251  3.09251  0.00000 -0.18502
      16     H     0.40719  0.40719  0.00000  0.18562
      17     H     0.40777  0.40777  0.00000  0.18447
      18     H     0.40744  0.40744  0.00000  0.18513

   Total alpha = 36.00000, Total beta = 36.00000, Total charge = -0.00000
