  ==> Input File <==

--------------------------------------------------------------------------
set {
	reference rhf
	basis 6-31G*
}

set_num_threads( 4 )
memory 2 gb

molecule MOL {
0 1

O	 -2.630048	 0.547913	 0.530317
C	 -2.113865	 -0.473663	 0.192126
C	 -0.889235	 -0.467034	 -0.705952
C	 -2.627522	 -1.816298	 0.662086
C	 0.379448	 -0.143569	 0.099626
H	 -1.040919	 0.294385	 -1.463273
H	 -0.777157	 -1.424551	 -1.206579
C	 1.631333	 -0.777471	 -0.511575
H	 0.482768	 0.934507	 0.149241
H	 0.263088	 -0.495696	 1.123449
C	 2.915987	 -0.544314	 0.291766
H	 1.766672	 -0.399098	 -1.523130
H	 1.471257	 -1.849544	 -0.605828
C	 3.373361	 0.914346	 0.347591
H	 3.708709	 -1.142521	 -0.150311
H	 2.780642	 -0.921148	 1.303579
H	 3.506512	 1.320010	 -0.651625
H	 4.322697	 0.999599	 0.867103
H	 2.660624	 1.545032	 0.868198
H	 -3.019004	 -2.374301	 -0.184459
H	 -3.411175	 -1.677453	 1.393792
H	 -1.823050	 -2.407191	 1.090425

	symmetry c1
}
set optking {
	frozen_dihedral = ("
		6 3 5 8
	")
}

ee = optimize('scf')
oeprop('DIPOLE', 'QUADRUPOLE', 'MULLIKEN_CHARGES')
f=open( 'psi4out.xyz', 'w' )
f.write( "22  " )
f.write( str(ee) + "\n" )
f.write( MOL.save_string_xyz() )
f.close()
--------------------------------------------------------------------------

    Molecular point group: c1
  Charge       = 0
  Multiplicity = 1
  Basis Set: 6-31G*
  Basis Set:
  @DF-RHF Final Energy:  -348.09532002364631
    Total Energy =                       -348.0953200236459679
    Molecular point group: c1
  Basis Set: 6-31G*
  Basis Set:
  Basis Set: 6-31G*
  Basis Set:
  @DF-RHF Final Energy:  -348.09559079973053
    Total Energy =                       -348.0955907997305872
  Basis Set: 6-31G*
  Basis Set:
  Basis Set: 6-31G*
  Basis Set:
  @DF-RHF Final Energy:  -348.09539069928644
    Total Energy =                       -348.0953906992865541
  Basis Set: 6-31G*
  Basis Set:
  Basis Set: 6-31G*
  Basis Set:
  @DF-RHF Final Energy:  -348.09560199192600
    Total Energy =                       -348.0956019919257756
  Basis Set: 6-31G*
  Basis Set:
  @DF-RHF Final Energy:  -348.09565426353186
    Total Energy =                       -348.0956542635315145
  @DF-RHF Final Energy:  -348.09569987507660
    Total Energy =                       -348.0956998750767752
  Basis Set: 6-31G*
  Basis Set:
  @DF-RHF Final Energy:  -348.09570621113284
    Total Energy =                       -348.0957062111327218
  Basis Set: 6-31G*
  Basis Set:
  Basis Set: 6-31G*
  Basis Set:
  @DF-RHF Final Energy:  -348.09571014634298
    Total Energy =                       -348.0957101463426966
  Basis Set: 6-31G*
  Basis Set:
  Basis Set: 6-31G*
  Basis Set:
  @DF-RHF Final Energy:  -348.09571156303628
    Total Energy =                       -348.0957115630364456
  Basis Set: 6-31G*
  Basis Set:
  Charge       = 0
  Multiplicity = 1
  Basis Set: 6-31G*
  Basis Set:

    Orbital Energies (a.u.)
    -----------------------

    Doubly Occupied:

       1A    -20.546826     2A    -11.323901     3A    -11.231399
       4A    -11.229045     5A    -11.227949     6A    -11.224265
       7A    -11.222009     8A    -11.212719     9A     -1.392600
      10A     -1.096470    11A     -1.044952    12A     -0.998320
      13A     -0.939429    14A     -0.859265    15A     -0.788525
      16A     -0.732683    17A     -0.660573    18A     -0.646121
      19A     -0.626620    20A     -0.621371    21A     -0.596417
      22A     -0.576921    23A     -0.569311    24A     -0.543517
      25A     -0.536244    26A     -0.516032    27A     -0.499687
      28A     -0.491585    29A     -0.471713    30A     -0.466185
      31A     -0.458674    32A     -0.395464

  @DF-RHF Final Energy:  -348.09571169331838

   => Energetics <=

    Nuclear Repulsion Energy =            373.0481220750744455
    One-Electron Energy =               -1210.7940835587849051
    Two-Electron Energy =                 489.6502497903925359
    DFT Exchange-Correlation Energy =       0.0000000000000000
    Empirical Dispersion Energy =           0.0000000000000000
    PCM Polarization Energy =               0.0000000000000000
    EFP Energy =                            0.0000000000000000
    Total Energy =                       -348.0957116933179805
    Molecular point group: c1
  Basis Set: 6-31G*
  Basis Set:

  -Total Gradient:
     Atom            X                  Y                   Z
    ------   -----------------  -----------------  -----------------
       1       -0.000000278452    -0.000011951347     0.000003647571
       2       -0.000008830456     0.000020191314    -0.000017165092
       3        0.002685205633    -0.003553568859    -0.002871010162
       4       -0.000006068487    -0.000011146314    -0.000013586748
       5        0.000112412163     0.004040119192    -0.001416777205
       6       -0.002305990601     0.002079614425     0.002811154229
       7       -0.000005124299    -0.000004438391    -0.000004308165
       8       -0.000479495449    -0.002574915795     0.001517439159
       9        0.000012186916     0.000014034842    -0.000008696335
      10       -0.000002036976     0.000002169185    -0.000003577514
      11       -0.000000760443    -0.000001264133    -0.000006936556
      12       -0.000002291006     0.000004270917     0.000007334675
      13        0.000009575857    -0.000003592094    -0.000000388640
      14       -0.000001736884     0.000004477283    -0.000001972634
      15       -0.000006210641    -0.000006473725    -0.000004542606
      16       -0.000001685977    -0.000001288052    -0.000001205373
      17        0.000005405450     0.000003471957    -0.000000867672
      18       -0.000003558451    -0.000000759532     0.000002525639
      19       -0.000005840299     0.000001535466    -0.000002630209
      20        0.000003578557    -0.000001365137     0.000004868462
      21        0.000004723955     0.000002128099     0.000002448359
      22       -0.000003180107    -0.000001249297     0.000004246816

  **** Optimization is complete! (in 10 steps) ****
    Final optimized geometry and variables:
    Molecular point group: c1

    Geometry (in Angstrom), charge = 0, multiplicity = 1:

    O           -2.725905044791     0.885804641111     0.281114663770
    C           -2.130229572419    -0.118914483230     0.036724826579
    C           -0.893121994740    -0.105353034391    -0.843600345010
    C           -2.561934080102    -1.453991148764     0.604650883951
    C            0.371339665799     0.155929632852     0.004313207857
    H           -1.033648375794     0.698744534001    -1.555693890588
    H           -0.803888463820    -1.045403051190    -1.379337887405
    C            1.634291854467    -0.445875271365    -0.617682780999
    H            0.472748646663     1.224325285982     0.151520724135
    H            0.246214488830    -0.275252045468     0.996360948287
    C            2.913611271882    -0.214725579246     0.194164955998
    H            1.770099517998    -0.048895268158    -1.622641303098
    H            1.482817180243    -1.516948169684    -0.732096612585
    C            3.368565162864     1.244329723864     0.260331368981
    H            3.710239756567    -0.808911781272    -0.246303136577
    H            2.773408998627    -0.597009400075     1.203327463175
    H            3.511320728009     1.653645797559    -0.736047550255
    H            4.312608053983     1.328592960246     0.789447246864
    H            2.650341505045     1.872435161089     0.776531314904
    H           -2.964117546343    -2.070718726237    -0.195034661474
    H           -3.324318600344    -1.306434681768     1.356899975910
    H           -1.720204820536    -1.990781771126     1.031104281472

  Mulliken Charges: (a.u.)
   Center  Symbol    Alpha    Beta     Spin     Total
       1     O     4.26174  4.26174  0.00000 -0.52349
       2     C     2.73924  2.73924  0.00000  0.52153
       3     C     3.20102  3.20102  0.00000 -0.40204
       4     C     3.28932  3.28932  0.00000 -0.57863
       5     C     3.16277  3.16277  0.00000 -0.32554
       6     H     0.39956  0.39956  0.00000  0.20087
       7     H     0.41527  0.41527  0.00000  0.16946
       8     C     3.15398  3.15398  0.00000 -0.30796
       9     H     0.40525  0.40525  0.00000  0.18950
      10     H     0.41978  0.41978  0.00000  0.16044
      11     C     3.15383  3.15383  0.00000 -0.30767
      12     H     0.42101  0.42101  0.00000  0.15797
      13     H     0.42193  0.42193  0.00000  0.15614
      14     C     3.24185  3.24185  0.00000 -0.48369
      15     H     0.41931  0.41931  0.00000  0.16137
      16     H     0.42256  0.42256  0.00000  0.15488
      17     H     0.42111  0.42111  0.00000  0.15778
      18     H     0.41778  0.41778  0.00000  0.16443
      19     H     0.41868  0.41868  0.00000  0.16263
      20     H     0.40637  0.40637  0.00000  0.18725
      21     H     0.39699  0.39699  0.00000  0.20602
      22     H     0.41063  0.41063  0.00000  0.17873

   Total alpha = 32.00000, Total beta = 32.00000, Total charge =  0.00000
