  ==> Input File <==

--------------------------------------------------------------------------
set {
	reference rhf
	basis 6-31G*
}

set_num_threads( 1 )
memory 2 gb

molecule MOL {
0 1

H	 2.591676	 2.013956	 0.335017
O	 3.341076	 1.666752	 -0.126416
C	 3.569581	 0.339145	 0.272707
C	 2.539767	 -0.640285	 -0.279495
H	 4.553106	 0.084646	 -0.100901
H	 3.608576	 0.269204	 1.359154
C	 1.115811	 -0.397273	 0.226630
H	 2.556196	 -0.582511	 -1.364741
H	 2.852081	 -1.648031	 -0.010655
C	 0.649943	 -1.467303	 1.218004
H	 0.436108	 -0.366878	 -0.620391
H	 1.063793	 0.580469	 0.705854
C	 -0.738414	 -1.225208	 1.821489
H	 0.665075	 -2.439520	 0.728706
H	 1.372535	 -1.525511	 2.029283
C	 -1.897931	 -1.309877	 0.825080
H	 -0.902273	 -1.959751	 2.607246
H	 -0.753137	 -0.252235	 2.310308
C	 -3.268017	 -1.166542	 1.491231
H	 -1.852264	 -2.263653	 0.301310
H	 -1.795001	 -0.539481	 0.064687
C	 -4.426940	 -1.244272	 0.497993
H	 -3.385383	 -1.943400	 2.243696
H	 -3.312014	 -0.218400	 2.023186
H	 -4.429878	 -2.195150	 -0.027406
H	 -5.383770	 -1.141427	 1.000520
H	 -4.358751	 -0.456550	 -0.247130

	symmetry c1
}
set optking {
	frozen_dihedral = ("
		14 10 7 4,
		14 10 13 16,
		8 4 3 2,
		10 13 16 20,
		20 16 19 22,
		4 3 2 1
	")
}

ee = energy('scf')
oeprop('DIPOLE', 'QUADRUPOLE', 'MULLIKEN_CHARGES')
f=open( 'psi4out.xyz', 'w' )
f.write( "27  " )
f.write( str(ee) + "\n" )
f.write( MOL.save_string_xyz() )
f.close()
--------------------------------------------------------------------------

    Molecular point group: c1

    Geometry (in Angstrom), charge = 0, multiplicity = 1:

       Center              X                  Y                   Z               Mass
    ------------   -----------------  -----------------  -----------------  -----------------
           H          2.457647922820     2.577814590063    -0.312796965766     1.007825032070
           O          3.207047922820     2.230610590063    -0.774229965766    15.994914619560
           C          3.435552922820     0.903003590063    -0.375106965766    12.000000000000
           C          2.405738922820    -0.076426409937    -0.927308965766    12.000000000000
           H          4.419077922820     0.648504590063    -0.748714965766     1.007825032070
           H          3.474547922820     0.833062590063     0.711340034234     1.007825032070
           C          0.981782922820     0.166585590063    -0.421183965766    12.000000000000
           H          2.422167922820    -0.018652409937    -2.012554965766     1.007825032070
           H          2.718052922820    -1.084172409937    -0.658468965766     1.007825032070
           C          0.515914922820    -0.903444409937     0.570190034234    12.000000000000
           H          0.302079922820     0.196980590063    -1.268204965766     1.007825032070
           H          0.929764922820     1.144327590063     0.058040034234     1.007825032070
           C         -0.872442077180    -0.661349409937     1.173675034234    12.000000000000
           H          0.531046922820    -1.875661409937     0.080892034234     1.007825032070
           H          1.238506922820    -0.961652409937     1.381469034234     1.007825032070
           C         -2.031959077180    -0.746018409937     0.177266034234    12.000000000000
           H         -1.036301077180    -1.395892409937     1.959432034234     1.007825032070
           H         -0.887165077180     0.311623590063     1.662494034234     1.007825032070
           C         -3.402045077180    -0.602683409937     0.843417034234    12.000000000000
           H         -1.986292077180    -1.699794409937    -0.346503965766     1.007825032070
           H         -1.929029077180     0.024377590063    -0.583126965766     1.007825032070
           C         -4.560968077180    -0.680413409937    -0.149820965766    12.000000000000
           H         -3.519411077180    -1.379541409937     1.595882034234     1.007825032070
           H         -3.446042077180     0.345458590063     1.375372034234     1.007825032070
           H         -4.563906077180    -1.631291409937    -0.675219965766     1.007825032070
           H         -5.517798077180    -0.577568409937     0.352706034234     1.007825032070
           H         -4.492779077180     0.107308590063    -0.894943965766     1.007825032070

  Charge       = 0
  Multiplicity = 1
  Basis Set: 6-31G*
  Basis Set:

    Orbital Energies (a.u.)
    -----------------------

    Doubly Occupied:

       1A    -20.551957     2A    -11.267230     3A    -11.219819
       4A    -11.218664     5A    -11.216452     6A    -11.216327
       7A    -11.214671     8A    -11.214006     9A    -11.209573
      10A     -1.358974    11A     -1.096233    12A     -1.062102
      13A     -1.011251    14A     -0.947931    15A     -0.890117
      16A     -0.822668    17A     -0.800146    18A     -0.777742
      19A     -0.698411    20A     -0.647211    21A     -0.634764
      22A     -0.614942    23A     -0.606462    24A     -0.585945
      25A     -0.574969    26A     -0.556956    27A     -0.543046
      28A     -0.525084    29A     -0.510241    30A     -0.496410
      31A     -0.487137    32A     -0.474691    33A     -0.469535
      34A     -0.461724    35A     -0.447029    36A     -0.438760
      37A     -0.425605

  @DF-RHF Final Energy:  -388.27628161833604

   => Energetics <=

    Nuclear Repulsion Energy =            459.9046159074123352
    One-Electron Energy =               -1437.7722764706595626
    Two-Electron Energy =                 589.5913789449094793
    DFT Exchange-Correlation Energy =       0.0000000000000000
    Empirical Dispersion Energy =           0.0000000000000000
    PCM Polarization Energy =               0.0000000000000000
    EFP Energy =                            0.0000000000000000
    Total Energy =                       -388.2762816183377481

  Mulliken Charges: (a.u.)
   Center  Symbol    Alpha    Beta     Spin     Total
       1     H     0.27919  0.27919  0.00000  0.44163
       2     O     4.37139  4.37139  0.00000 -0.74278
       3     C     2.99956  2.99956  0.00000  0.00087
       4     C     3.16401  3.16401  0.00000 -0.32801
       5     H     0.41465  0.41465  0.00000  0.17069
       6     H     0.43225  0.43225  0.00000  0.13551
       7     C     3.15768  3.15768  0.00000 -0.31535
       8     H     0.41275  0.41275  0.00000  0.17451
       9     H     0.42130  0.42130  0.00000  0.15740
      10     C     3.15587  3.15587  0.00000 -0.31175
      11     H     0.41374  0.41374  0.00000  0.17253
      12     H     0.43525  0.43525  0.00000  0.12949
      13     C     3.15365  3.15365  0.00000 -0.30731
      14     H     0.42151  0.42151  0.00000  0.15698
      15     H     0.42256  0.42256  0.00000  0.15488
      16     C     3.15281  3.15281  0.00000 -0.30563
      17     H     0.42137  0.42137  0.00000  0.15726
      18     H     0.42482  0.42482  0.00000  0.15036
      19     C     3.15114  3.15114  0.00000 -0.30228
      20     H     0.42418  0.42418  0.00000  0.15163
      21     H     0.42214  0.42214  0.00000  0.15572
      22     C     3.23926  3.23926  0.00000 -0.47852
      23     H     0.42301  0.42301  0.00000  0.15398
      24     H     0.42324  0.42324  0.00000  0.15351
      25     H     0.42168  0.42168  0.00000  0.15664
      26     H     0.41919  0.41919  0.00000  0.16161
      27     H     0.42180  0.42180  0.00000  0.15639

   Total alpha = 37.00000, Total beta = 37.00000, Total charge =  0.00000
