  ==> Input File <==

--------------------------------------------------------------------------
set {
	reference rhf
	basis 6-31G*
}

set_num_threads( 4 )
memory 2 gb

molecule MOL {
0 1

H	 1.150596	 -0.362073	 -0.681632
C	 0.850167	 0.441173	 0.000644
C	 -0.623425	 0.760064	 0.000248
O	 1.662153	 0.988704	 0.673425
C	 -1.518387	 -0.473136	 -0.000101
H	 -0.818289	 1.390622	 -0.866171
H	 -0.818694	 1.390413	 0.866696
H	 -1.333417	 -1.085530	 -0.874338
H	 -2.563510	 -0.183466	 -0.000351
H	 -1.333864	 -1.085676	 0.874123

	symmetry c1
}
set optking {
	frozen_dihedral = ("
		4 2 3 6
	")
}

ee = optimize('scf')
oeprop('DIPOLE', 'QUADRUPOLE', 'MULLIKEN_CHARGES')
f=open( 'psi4out.xyz', 'w' )
f.write( "10  " )
f.write( str(ee) + "\n" )
f.write( MOL.save_string_xyz() )
f.close()
--------------------------------------------------------------------------

    Molecular point group: c1
  Charge       = 0
  Multiplicity = 1
  Basis Set: 6-31G*
  Basis Set:
  @DF-RHF Final Energy:  -191.94976534217852
    Total Energy =                       -191.9497653421784662
    Molecular point group: c1
  Basis Set: 6-31G*
  Basis Set:
  Basis Set: 6-31G*
  Basis Set:
  @DF-RHF Final Energy:  -191.94932426185693
    Total Energy =                       -191.9493242618569866
  Basis Set: 6-31G*
  Basis Set:
  Basis Set: 6-31G*
  Basis Set:
  @DF-RHF Final Energy:  -191.94981562563322
    Total Energy =                       -191.9498156256332777
  Basis Set: 6-31G*
  Basis Set:
  Basis Set: 6-31G*
  Basis Set:
  @DF-RHF Final Energy:  -191.95009246280119
    Total Energy =                       -191.9500924628012228
  Basis Set: 6-31G*
  Basis Set:
  Charge       = 0
  Multiplicity = 1
  Basis Set: 6-31G*
  Basis Set:

    Orbital Energies (a.u.)
    -----------------------

    Doubly Occupied:

       1A    -20.563763     2A    -11.328251     3A    -11.239318
       4A    -11.233600     5A     -1.403935     6A     -1.067141
       7A     -0.903761     8A     -0.795816     9A     -0.669195
      10A     -0.640502    11A     -0.622819    12A     -0.561668
      13A     -0.544124    14A     -0.519053    15A     -0.493537
      16A     -0.412697

  @DF-RHF Final Energy:  -191.95009329173723

   => Energetics <=

    Nuclear Repulsion Energy =            117.0787346723613638
    One-Electron Energy =                -492.0592994459655074
    Two-Electron Energy =                 183.0304714818668117
    DFT Exchange-Correlation Energy =       0.0000000000000000
    Empirical Dispersion Energy =           0.0000000000000000
    PCM Polarization Energy =               0.0000000000000000
    EFP Energy =                            0.0000000000000000
    Total Energy =                       -191.9500932917373461
    Molecular point group: c1
  Basis Set: 6-31G*
  Basis Set:

  -Total Gradient:
     Atom            X                  Y                   Z
    ------   -----------------  -----------------  -----------------
       1       -0.000027870318    -0.000005210083     0.000000723749
       2       -0.000091424078    -0.000473826690     0.000628667697
       3       -0.000087985692    -0.000451603994    -0.000529489354
       4        0.000039629102     0.000420206618    -0.000406389979
       5        0.000032208129     0.000028954929     0.000022237645
       6        0.000139062947     0.000453941056     0.000300251823
       7       -0.000004289518     0.000016410184     0.000006865830
       8       -0.000003699262    -0.000008573488    -0.000004028284
       9       -0.000004707151     0.000018830027    -0.000001247909
      10        0.000009075834     0.000000871441    -0.000017591219

  **** Optimization is complete! (in 5 steps) ****
    Final optimized geometry and variables:
    Molecular point group: c1

    Geometry (in Angstrom), charge = 0, multiplicity = 1:

    H            1.041784972829    -0.800961236290    -0.850014483464
    C            0.752779769750     0.008891111295    -0.169188411051
    C           -0.717995575354     0.344735713281    -0.151993412460
    O            1.577108978903     0.569064131970     0.477285408432
    C           -1.607885451765    -0.899722578867    -0.172279301147
    H           -0.916645552003     0.954167041148    -1.032499329368
    H           -0.911247206946     0.962955050522     0.716501562732
    H           -1.410232921288    -1.513332503080    -1.046140711555
    H           -2.654622543102    -0.619628838151    -0.196422018250
    H           -1.448253550881    -1.512391656940     0.709266263964

  Mulliken Charges: (a.u.)
   Center  Symbol    Alpha    Beta     Spin     Total
       1     H     0.43193  0.43193  0.00000  0.13614
       2     C     2.83054  2.83054  0.00000  0.33893
       3     C     3.20785  3.20785  0.00000 -0.41571
       4     O     4.23732  4.23732  0.00000 -0.47464
       5     C     3.25210  3.25210  0.00000 -0.50419
       6     H     0.40498  0.40498  0.00000  0.19003
       7     H     0.39782  0.39782  0.00000  0.20436
       8     H     0.41660  0.41660  0.00000  0.16679
       9     H     0.40905  0.40905  0.00000  0.18191
      10     H     0.41181  0.41181  0.00000  0.17638

   Total alpha = 16.00000, Total beta = 16.00000, Total charge =  0.00000
