  ==> Input File <==

--------------------------------------------------------------------------
set {
	reference rhf
	basis cc-pvtz
}

set_num_threads( 4 )
memory 2 gb

molecule MOL {
0 1

H	 -4.022669	 -0.467479	 0.154292
C	 -2.960734	 -0.311179	 0.160493
C	 -2.451400	 0.959109	 0.361962
C	 -2.106137	 -1.379942	 -0.032881
H	 -3.115334	 1.788195	 0.511990
C	 -1.086698	 1.159167	 0.369798
H	 -2.502128	 -2.364664	 -0.189038
C	 -0.739406	 -1.181230	 -0.025306
H	 -0.675383	 2.135893	 0.524342
C	 -0.225716	 0.089995	 0.176238
H	 -0.074817	 -2.006770	 -0.174757
C	 1.240758	 0.358464	 0.193537
O	 1.968286	 -0.725612	 -0.000027
O	 1.712532	 1.432641	 0.363107
C	 3.373556	 -0.568203	 0.000011
H	 3.695416	 -0.031588	 -0.879663
H	 3.782700	 -1.565294	 -0.000152
H	 3.695405	 -0.031851	 0.879862

	symmetry c1
}
set optking {
	frozen_dihedral = ("
		12 13 15 16
	")
}

ee = optimize('scf')
oeprop('DIPOLE', 'QUADRUPOLE', 'MULLIKEN_CHARGES')
f=open( 'psi4out.xyz', 'w' )
f.write( "18  " )
f.write( str(ee) + "\n" )
f.write( MOL.save_string_xyz() )
f.close()
--------------------------------------------------------------------------

    Molecular point group: c1
  Charge       = 0
  Multiplicity = 1
  Basis Set: CC-PVTZ
  Basis Set:
  @DF-RHF Final Energy:  -457.51008323533159
    Total Energy =                       -457.5100832353316491
    Molecular point group: c1
  Basis Set: CC-PVTZ
  Basis Set:
  Basis Set: CC-PVTZ
  Basis Set:
  @DF-RHF Final Energy:  -457.51009373888860
    Total Energy =                       -457.5100937388893954
  Basis Set: CC-PVTZ
  Basis Set:
  Basis Set: CC-PVTZ
  Basis Set:
  @DF-RHF Final Energy:  -457.51002153206957
    Total Energy =                       -457.5100215320694588
  Basis Set: CC-PVTZ
  Basis Set:
  Basis Set: CC-PVTZ
  Basis Set:
  @DF-RHF Final Energy:  -457.51010099699255
    Total Energy =                       -457.5101009969928327
  Basis Set: CC-PVTZ
  Basis Set:
  Charge       = 0
  Multiplicity = 1
  Basis Set: CC-PVTZ
  Basis Set:

    Orbital Energies (a.u.)
    -----------------------

    Doubly Occupied:

       1A    -20.600963     2A    -20.534433     3A    -11.371839
       4A    -11.281208     5A    -11.244994     6A    -11.243511
       7A    -11.242711     8A    -11.240063     9A    -11.236078
      10A    -11.235317    11A     -1.476909    12A     -1.368525
      13A     -1.170804    14A     -1.051866    15A     -1.029071
      16A     -0.980636    17A     -0.863238    18A     -0.838484
      19A     -0.781199    20A     -0.745045    21A     -0.687895
      22A     -0.681758    23A     -0.676408    24A     -0.634109
      25A     -0.630081    26A     -0.601310    27A     -0.587485
      28A     -0.565548    29A     -0.531452    30A     -0.520325
      31A     -0.509573    32A     -0.502236    33A     -0.464112
      34A     -0.449443    35A     -0.350235    36A     -0.346268

  @DF-RHF Final Energy:  -457.51010155298491

   => Energetics <=

    Nuclear Repulsion Energy =            494.0067802289045176
    One-Electron Energy =               -1602.4835029407743150
    Two-Electron Energy =                 650.9666211588843225
    DFT Exchange-Correlation Energy =       0.0000000000000000
    Empirical Dispersion Energy =           0.0000000000000000
    PCM Polarization Energy =               0.0000000000000000
    EFP Energy =                            0.0000000000000000
    Total Energy =                       -457.5101015529854749
    Molecular point group: c1
  Basis Set: CC-PVTZ
  Basis Set:

  -Total Gradient:
     Atom            X                  Y                   Z
    ------   -----------------  -----------------  -----------------
       1        0.000000038683    -0.000000602855    -0.000000508144
       2       -0.000002161166     0.000014676589     0.000004228261
       3       -0.000009984597    -0.000007736889    -0.000005033843
       4        0.000017053473    -0.000005704325     0.000000297057
       5        0.000001124917     0.000000618324     0.000001553067
       6        0.000014565687    -0.000005701739     0.000003549716
       7       -0.000000330330     0.000000636303    -0.000001237918
       8       -0.000011018371    -0.000008556215    -0.000004189486
       9       -0.000000121778     0.000002124984    -0.000001283980
      10        0.000007687771     0.000011778288    -0.000000936018
      11        0.000003699607    -0.000000834169     0.000001078623
      12        0.000013275451    -0.000125333910     0.000744706464
      13       -0.000009017445    -0.000035114516    -0.001168807933
      14       -0.000010216971     0.000009899187     0.000000307691
      15       -0.000089691844     0.000899845685     0.000858095923
      16        0.000086573563    -0.000750166313    -0.000433577892
      17       -0.000004609434     0.000000888720     0.000001039868
      18       -0.000006867216    -0.000000717143     0.000000718545

  **** Optimization is complete! (in 5 steps) ****
    Final optimized geometry and variables:
    Molecular point group: c1

    Geometry (in Angstrom), charge = 0, multiplicity = 1:

    H           -4.023738905515    -0.458377134656     0.006127285922
    C           -2.961917533745    -0.300988565029     0.010106502559
    C           -2.453508195753     0.970166077585     0.209037399972
    C           -2.106491520932    -1.368981580438    -0.183656385081
    H           -3.118048496634     1.798789839654     0.359321880062
    C           -1.089030095364     1.171697642146     0.213941753146
    H           -2.501549555847    -2.354407741183    -0.337933703877
    C           -0.739840840390    -1.168776774516    -0.178931223659
    H           -0.678577994635     2.149177731448     0.366361680499
    C           -0.227225600453     0.103165088440     0.020113806944
    H           -0.074771514976    -1.993925681658    -0.328771576101
    C            1.239250654165     0.373674819072     0.034522549124
    O            1.967194271834    -0.709473412076    -0.162155212915
    O            1.709493105849     1.448546864835     0.203550343233
    C            3.372851549993    -0.557905400794    -0.148280235271
    H            3.701769783029    -0.013990719775    -1.021852458653
    H            3.778083542460    -1.556717182957    -0.164924554092
    H            3.693394822940    -0.037279319938     0.740294147912

  Mulliken Charges: (a.u.)
   Center  Symbol    Alpha    Beta     Spin     Total
       1     H     0.42029  0.42029  0.00000  0.15943
       2     C     3.06974  3.06974  0.00000 -0.13948
       3     C     3.07551  3.07551  0.00000 -0.15102
       4     C     3.07494  3.07494  0.00000 -0.14987
       5     H     0.42038  0.42038  0.00000  0.15924
       6     C     3.07589  3.07589  0.00000 -0.15177
       7     H     0.42189  0.42189  0.00000  0.15623
       8     C     3.08212  3.08212  0.00000 -0.16424
       9     H     0.40665  0.40665  0.00000  0.18669
      10     C     3.01284  3.01284  0.00000 -0.02567
      11     H     0.41104  0.41104  0.00000  0.17792
      12     C     2.78179  2.78179  0.00000  0.43642
      13     O     4.14849  4.14849  0.00000 -0.29698
      14     O     4.21131  4.21131  0.00000 -0.42263
      15     C     3.03665  3.03665  0.00000 -0.07329
      16     H     0.45424  0.45424  0.00000  0.09152
      17     H     0.44566  0.44566  0.00000  0.10869
      18     H     0.45060  0.45060  0.00000  0.09881

   Total alpha = 36.00000, Total beta = 36.00000, Total charge = -0.00000
