  ==> Input File <==

--------------------------------------------------------------------------
set {
	reference rhf
	basis cc-pvtz
}

set_num_threads( 4 )
memory 2 gb

molecule MOL {
0 1

H	 1.830346	 -1.485262	 1.035497
C	 0.987200	 -0.849358	 1.246595
O	 0.462329	 -0.453336	 -0.000137
H	 1.321923	 0.006899	 1.818437
H	 0.255824	 -1.406582	 1.818283
C	 -0.590565	 0.341382	 0.000062
O	 -1.693898	 -0.053880	 0.000252
H	 -0.340426	 1.403822	 0.000200

	symmetry c1
}
set optking {
	frozen_dihedral = ("
		2 3 6 7
	")
}

ee = optimize('scf')
oeprop('DIPOLE', 'QUADRUPOLE', 'MULLIKEN_CHARGES')
f=open( 'psi4out.xyz', 'w' )
f.write( "8  " )
f.write( str(ee) + "\n" )
f.write( MOL.save_string_xyz() )
f.close()
--------------------------------------------------------------------------

    Molecular point group: c1
  Charge       = 0
  Multiplicity = 1
  Basis Set: CC-PVTZ
  Basis Set:
  @DF-RHF Final Energy:  -227.85879928679719
    Total Energy =                       -227.8587992867970797
    Molecular point group: c1
  Basis Set: CC-PVTZ
  Basis Set:
  Basis Set: CC-PVTZ
  Basis Set:
  @DF-RHF Final Energy:  -227.85782735556444
    Total Energy =                       -227.8578273555644387
  Basis Set: CC-PVTZ
  Basis Set:
  Basis Set: CC-PVTZ
  Basis Set:
  @DF-RHF Final Energy:  -227.85903651281421
    Total Energy =                       -227.8590365128141570
  Basis Set: CC-PVTZ
  Basis Set:
  Basis Set: CC-PVTZ
  Basis Set:
  @DF-RHF Final Energy:  -227.85931460807137
    Total Energy =                       -227.8593146080713154
  Basis Set: CC-PVTZ
  Basis Set:
  Basis Set: CC-PVTZ
  Basis Set:
  @DF-RHF Final Energy:  -227.85932174073707
    Total Energy =                       -227.8593217407370446
  Basis Set: CC-PVTZ
  Basis Set:
  Charge       = 0
  Multiplicity = 1
  Basis Set: CC-PVTZ
  Basis Set:

    Orbital Energies (a.u.)
    -----------------------

    Doubly Occupied:

       1A    -20.589745     2A    -20.563489     3A    -11.376418
       4A    -11.296873     5A     -1.473158     6A     -1.384909
       7A     -0.986571     8A     -0.834878     9A     -0.740757
      10A     -0.690856    11A     -0.668570    12A     -0.628385
      13A     -0.564366    14A     -0.515012    15A     -0.476271
      16A     -0.460800

  @DF-RHF Final Energy:  -227.85932224546113

   => Energetics <=

    Nuclear Repulsion Energy =            122.0647843522247911
    One-Electron Energy =                -553.3461001688273200
    Two-Electron Energy =                 203.4219935711414848
    DFT Exchange-Correlation Energy =       0.0000000000000000
    Empirical Dispersion Energy =           0.0000000000000000
    PCM Polarization Energy =               0.0000000000000000
    EFP Energy =                            0.0000000000000000
    Total Energy =                       -227.8593222454610157
    Molecular point group: c1
  Basis Set: CC-PVTZ
  Basis Set:

  -Total Gradient:
     Atom            X                  Y                   Z
    ------   -----------------  -----------------  -----------------
       1       -0.000011868549     0.000014496781    -0.000018089277
       2        0.000302832719     0.000429438919     0.000013447803
       3       -0.000456072752    -0.000636075110    -0.000367249780
       4        0.000006572050     0.000002062273    -0.000003961571
       5        0.000012542992    -0.000010488158     0.000021154583
       6        0.000159740804     0.000193971091     0.001091970267
       7       -0.000008186760     0.000024081600    -0.000732008261
       8       -0.000005560504    -0.000017487397    -0.000005263765

  **** Optimization is complete! (in 6 steps) ****
    Final optimized geometry and variables:
    Molecular point group: c1

    Geometry (in Angstrom), charge = 0, multiplicity = 1:

    H            2.048229488388    -1.210147310279     0.714237021324
    C            1.187351778723    -0.593577359562     0.911875438298
    O            0.669687242422    -0.206340210817    -0.345011556635
    H            1.493481023778     0.272530080793     1.488736764153
    H            0.451489394750    -1.159924204489     1.466882502901
    C           -0.396997487797     0.601832366579    -0.321555857502
    O           -1.506065316297     0.227880486278    -0.306995062856
    H           -0.129886071396     1.657390676687    -0.350872204683

  Mulliken Charges: (a.u.)
   Center  Symbol    Alpha    Beta     Spin     Total
       1     H     0.44399  0.44399  0.00000  0.11203
       2     C     3.02223  3.02223  0.00000 -0.04445
       3     O     4.15496  4.15496  0.00000 -0.30991
       4     H     0.46664  0.46664  0.00000  0.06672
       5     H     0.45421  0.45421  0.00000  0.09158
       6     C     2.83085  2.83085  0.00000  0.33829
       7     O     4.16208  4.16208  0.00000 -0.32416
       8     H     0.46505  0.46505  0.00000  0.06990

   Total alpha = 16.00000, Total beta = 16.00000, Total charge = -0.00000
