  ==> Input File <==

--------------------------------------------------------------------------
set {
	reference rhf
	basis 6-31G*
}

set_num_threads( 4 )
memory 2 gb

molecule MOL {
0 1

O	 1.016666	 0.786744	 0.888715
C	 0.576249	 0.131685	 -0.000108
C	 -0.766779	 -0.556801	 -0.000461
O	 1.227282	 -0.083260	 -1.136162
C	 -1.945214	 0.412366	 0.000161
H	 -0.796911	 -1.211249	 -0.867467
H	 -0.796854	 -1.212390	 0.865687
C	 -3.287791	 -0.317055	 0.000105
H	 -1.876087	 1.060580	 -0.866812
H	 -1.875822	 1.059691	 0.867761
H	 -3.394745	 -0.949193	 -0.877058
H	 -4.111778	 0.388953	 0.000015
H	 -3.394954	 -0.949187	 0.877259
C	 2.506614	 0.509779	 -1.265863
H	 2.435833	 1.585550	 -1.193407
H	 2.866870	 0.223576	 -2.241654
H	 3.174098	 0.145180	 -0.498371

	symmetry c1
}
set optking {
	frozen_dihedral = ("
		1 2 3 6
	")
}

ee = optimize('scf')
oeprop('DIPOLE', 'QUADRUPOLE', 'MULLIKEN_CHARGES')
f=open( 'psi4out.xyz', 'w' )
f.write( "17  " )
f.write( str(ee) + "\n" )
f.write( MOL.save_string_xyz() )
f.close()
--------------------------------------------------------------------------

    Molecular point group: c1
  Charge       = 0
  Multiplicity = 1
  Basis Set: 6-31G*
  Basis Set:
  @DF-RHF Final Energy:  -344.90456158153683
    Total Energy =                       -344.9045615815368819
    Molecular point group: c1
  Basis Set: 6-31G*
  Basis Set:
  Basis Set: 6-31G*
  Basis Set:
  @DF-RHF Final Energy:  -344.90520707245997
    Total Energy =                       -344.9052070724600298
  Basis Set: 6-31G*
  Basis Set:
  Basis Set: 6-31G*
  Basis Set:
  @DF-RHF Final Energy:  -344.90497542885709
    Total Energy =                       -344.9049754288572558
  Basis Set: 6-31G*
  Basis Set:
  Basis Set: 6-31G*
  Basis Set:
  @DF-RHF Final Energy:  -344.90525801179376
    Total Energy =                       -344.9052580117939897
  Basis Set: 6-31G*
  Basis Set:
  Basis Set: 6-31G*
  Basis Set:
  @DF-RHF Final Energy:  -344.90526976759804
    Total Energy =                       -344.9052697675980426
  Basis Set: 6-31G*
  Basis Set:
  Charge       = 0
  Multiplicity = 1
  Basis Set: 6-31G*
  Basis Set:

    Orbital Energies (a.u.)
    -----------------------

    Doubly Occupied:

       1A    -20.606122     2A    -20.542385     3A    -11.371547
       4A    -11.280978     5A    -11.234156     6A    -11.230335
       7A    -11.217687     8A     -1.469687     9A     -1.361513
      10A     -1.082736    11A     -1.000354    12A     -0.941674
      13A     -0.829112    14A     -0.772703    15A     -0.698307
      16A     -0.679986    17A     -0.672995    18A     -0.636225
      19A     -0.594712    20A     -0.582721    21A     -0.558567
      22A     -0.536967    23A     -0.525824    24A     -0.504048
      25A     -0.485001    26A     -0.483770    27A     -0.453983
      28A     -0.433819

  @DF-RHF Final Energy:  -344.90526987780305

   => Energetics <=

    Nuclear Repulsion Energy =            313.1681984925424445
    One-Electron Energy =               -1090.5711040979331301
    Two-Electron Energy =                 432.4976357275875216
    DFT Exchange-Correlation Energy =       0.0000000000000000
    Empirical Dispersion Energy =           0.0000000000000000
    PCM Polarization Energy =               0.0000000000000000
    EFP Energy =                            0.0000000000000000
    Total Energy =                       -344.9052698778032209
    Molecular point group: c1
  Basis Set: 6-31G*
  Basis Set:

  -Total Gradient:
     Atom            X                  Y                   Z
    ------   -----------------  -----------------  -----------------
       1        0.000078345196    -0.000145965764     0.000120025032
       2       -0.000107071951     0.000206004830    -0.000077056972
       3       -0.000066168975     0.000126550568    -0.000136997505
       4       -0.000004873435     0.000011586591    -0.000038785251
       5        0.000008225221    -0.000010883762     0.000023764088
       6        0.000078109662    -0.000177357458     0.000098846494
       7       -0.000002327304     0.000009132135    -0.000005914290
       8        0.000010203939    -0.000000490061    -0.000000591125
       9        0.000000055952    -0.000014715120     0.000003672111
      10       -0.000011226134     0.000008901784     0.000007997498
      11        0.000010860469    -0.000000017431     0.000001628796
      12        0.000002275928     0.000006472470    -0.000002391711
      13        0.000003727715     0.000005820328    -0.000001512390
      14        0.000010514393    -0.000038962974     0.000024315906
      15       -0.000006025222     0.000003952871    -0.000000647497
      16       -0.000009932427     0.000000060049    -0.000005704268
      17        0.000005306965     0.000009910943    -0.000010648917

  **** Optimization is complete! (in 6 steps) ****
    Final optimized geometry and variables:
    Molecular point group: c1

    Geometry (in Angstrom), charge = 0, multiplicity = 1:

    O            1.049826943039     0.617189998905     1.120086713825
    C            0.640362392439    -0.034934104884     0.212933480224
    C           -0.696918728043    -0.734774983036     0.209692410180
    O            1.310069825677    -0.207506467557    -0.917403431128
    C           -1.851121205726     0.277140818957     0.203518313929
    H           -0.761171217006    -1.397781226373    -0.643709096605
    H           -0.745955355109    -1.334532268846     1.112591889740
    C           -3.215765091521    -0.406804866296     0.251924049625
    H           -1.784379621563     0.892417643875    -0.690130230333
    H           -1.737806614219     0.942006167907     1.052690782500
    H           -3.359217194299    -1.061774932942    -0.602497581662
    H           -4.016150836248     0.325856019864     0.245829161725
    H           -3.321793006327    -1.006069040123     1.151501196671
    C            2.571591397196     0.428612982405    -1.018608524019
    H            2.464612031488     1.499843225089    -0.926980996627
    H            2.953647075634     0.172210718854    -1.994390431119
    H            3.239395972447     0.071109241338    -0.248246555564

  Mulliken Charges: (a.u.)
   Center  Symbol    Alpha    Beta     Spin     Total
       1     O     4.28698  4.28698  0.00000 -0.57396
       2     C     2.61242  2.61242  0.00000  0.77516
       3     C     3.19845  3.19845  0.00000 -0.39690
       4     O     4.30267  4.30267  0.00000 -0.60535
       5     C     3.16323  3.16323  0.00000 -0.32646
       6     H     0.40180  0.40180  0.00000  0.19639
       7     H     0.40139  0.40139  0.00000  0.19723
       8     C     3.24124  3.24124  0.00000 -0.48249
       9     H     0.41534  0.41534  0.00000  0.16933
      10     H     0.40393  0.40393  0.00000  0.19214
      11     H     0.41976  0.41976  0.00000  0.16047
      12     H     0.41509  0.41509  0.00000  0.16983
      13     H     0.41873  0.41873  0.00000  0.16254
      14     C     3.09352  3.09352  0.00000 -0.18704
      15     H     0.40867  0.40867  0.00000  0.18266
      16     H     0.40844  0.40844  0.00000  0.18311
      17     H     0.40833  0.40833  0.00000  0.18333

   Total alpha = 28.00000, Total beta = 28.00000, Total charge = -0.00000
