  ==> Input File <==

--------------------------------------------------------------------------
set {
	reference rhf
	basis 6-31G*
}

set_num_threads( 4 )
memory 2 gb

molecule MOL {
0 1

H	 -1.303844	 1.004383	 -0.773293
C	 -0.790252	 0.431209	 0.000000
N	 0.538815	 0.649616	 0.000000
O	 -1.378747	 -0.297340	 0.743034
C	 1.521968	 -0.411503	 0.000000
H	 0.852804	 1.592852	 0.000000
H	 2.150599	 -0.357004	 -0.881901
H	 0.999455	 -1.354525	 0.000000
H	 2.150599	 -0.357004	 0.881901

	symmetry c1
}
set optking {
	frozen_dihedral = ("
		1 2 3 6
	")
}

ee = optimize('scf')
oeprop('DIPOLE', 'QUADRUPOLE', 'MULLIKEN_CHARGES')
f=open( 'psi4out.xyz', 'w' )
f.write( "9  " )
f.write( str(ee) + "\n" )
f.write( MOL.save_string_xyz() )
f.close()
--------------------------------------------------------------------------

    Molecular point group: c1
  Charge       = 0
  Multiplicity = 1
  Basis Set: 6-31G*
  Basis Set:
  @DF-RHF Final Energy:  -207.93642401466354
    Total Energy =                       -207.9364240146636007
    Molecular point group: c1
  Basis Set: 6-31G*
  Basis Set:
  Basis Set: 6-31G*
  Basis Set:
  @DF-RHF Final Energy:  -207.94313635239075
    Total Energy =                       -207.9431363523908090
  Basis Set: 6-31G*
  Basis Set:
  Basis Set: 6-31G*
  Basis Set:
  @DF-RHF Final Energy:  -207.94890235485286
    Total Energy =                       -207.9489023548529758
  Basis Set: 6-31G*
  Basis Set:
  Basis Set: 6-31G*
  Basis Set:
  @DF-RHF Final Energy:  -207.95328661212625
    Total Energy =                       -207.9532866121261918
  Basis Set: 6-31G*
  Basis Set:
  @DF-RHF Final Energy:  -207.95410630727713
    Total Energy =                       -207.9541063072771863
  @DF-RHF Final Energy:  -207.95460485992413
    Total Energy =                       -207.9546048599241317
  Basis Set: 6-31G*
  Basis Set:
  @DF-RHF Final Energy:  -207.95513755810666
    Total Energy =                       -207.9551375581066566
  Basis Set: 6-31G*
  Basis Set:
  Basis Set: 6-31G*
  Basis Set:
  @DF-RHF Final Energy:  -207.95520384180946
    Total Energy =                       -207.9552038418094355
  Basis Set: 6-31G*
  Basis Set:
  Basis Set: 6-31G*
  Basis Set:
  @DF-RHF Final Energy:  -207.95520847063395
    Total Energy =                       -207.9552084706340054
  Basis Set: 6-31G*
  Basis Set:
  Charge       = 0
  Multiplicity = 1
  Basis Set: 6-31G*
  Basis Set:

    Orbital Energies (a.u.)
    -----------------------

    Doubly Occupied:

       1A    -20.543766     2A    -15.586858     3A    -11.347922
       4A    -11.255619     5A     -1.403062     6A     -1.233554
       7A     -0.958629     8A     -0.806036     9A     -0.738633
      10A     -0.645960    11A     -0.638839    12A     -0.579274
      13A     -0.551216    14A     -0.533317    15A     -0.434842
      16A     -0.404162

  @DF-RHF Final Energy:  -207.95520860629608

   => Energetics <=

    Nuclear Repulsion Energy =            122.8326464889556036
    One-Electron Energy =                -526.2523345135400632
    Two-Electron Energy =                 195.4644794182884482
    DFT Exchange-Correlation Energy =       0.0000000000000000
    Empirical Dispersion Energy =           0.0000000000000000
    PCM Polarization Energy =               0.0000000000000000
    EFP Energy =                            0.0000000000000000
    Total Energy =                       -207.9552086062959972
    Molecular point group: c1
  Basis Set: 6-31G*
  Basis Set:

  -Total Gradient:
     Atom            X                  Y                   Z
    ------   -----------------  -----------------  -----------------
       1       -0.002267544908    -0.005697445142    -0.006639548519
       2        0.003993654063     0.006906655774     0.011275856661
       3       -0.005469138927     0.000678886468    -0.013536545881
       4        0.000032134019     0.000011446556    -0.000014058055
       5       -0.000041791442    -0.000004058781    -0.000028702295
       6        0.003734332662    -0.001879931702     0.008934834489
       7        0.000004487142    -0.000002365277     0.000001539125
       8        0.000012547809    -0.000009597182     0.000006992099
       9        0.000001319585    -0.000003590711    -0.000000367623

  **** Optimization is complete! (in 10 steps) ****
    Final optimized geometry and variables:
    Molecular point group: c1

    Geometry (in Angstrom), charge = 0, multiplicity = 1:

    H           -1.468467079015     1.182186293262    -0.449129458866
    C           -0.791361195685     0.432510765956    -0.038082066439
    N            0.476927133148     0.523594916686    -0.550353902994
    O           -1.181646341659    -0.445694207217     0.665455665928
    C            1.437432784449    -0.482518214991    -0.119546111150
    H            0.852210066953     1.449580144793    -0.515625832393
    H            2.362244603679    -0.327314209920    -0.659408732606
    H            1.054153135853    -1.462638571613    -0.360726147210
    H            1.634187849034    -0.447904198271     0.947287449540

  Mulliken Charges: (a.u.)
   Center  Symbol    Alpha    Beta     Spin     Total
       1     H     0.42026  0.42026  0.00000  0.15948
       2     C     2.76136  2.76136  0.00000  0.47728
       3     N     3.86204  3.86204  0.00000 -0.72407
       4     O     4.26538  4.26538  0.00000 -0.53077
       5     C     3.14940  3.14940  0.00000 -0.29879
       6     H     0.31541  0.31541  0.00000  0.36918
       7     H     0.41405  0.41405  0.00000  0.17190
       8     H     0.39867  0.39867  0.00000  0.20266
       9     H     0.41343  0.41343  0.00000  0.17314

   Total alpha = 16.00000, Total beta = 16.00000, Total charge =  0.00000
