                              Psi4 1.0.54 Driver

  ==> Input File <==

--------------------------------------------------------------------------
set {
	reference rhf
	basis cc-pvtz
}

set_num_threads( 4 )
memory 2 gb

molecule MOL {
0 1

O	 -2.071633	 -1.227563	 -0.223463
C	 -1.652164	 -0.152425	 0.058082
C	 -0.327811	 0.006324	 0.778296
C	 -2.402515	 1.108629	 -0.298924
C	 0.843231	 -0.001575	 -0.211665
H	 -0.319484	 0.928173	 1.350354
H	 -0.227804	 -0.823091	 1.466705
C	 2.197693	 0.138030	 0.476937
H	 0.722944	 0.805202	 -0.930230
H	 0.813976	 -0.926978	 -0.776588
C	 3.178530	 0.998513	 -0.312171
H	 2.056888	 0.565217	 1.465981
H	 2.623925	 -0.849390	 0.628157
H	 2.795147	 2.004060	 -0.449748
H	 3.363667	 0.578712	 -1.294952
H	 4.130625	 1.075155	 0.199729
H	 -3.240910	 0.874416	 -0.936711
H	 -1.747554	 1.818823	 -0.790984
H	 -2.760419	 1.579708	 0.610998

	symmetry c1
}
set optking {
	frozen_dihedral = ("
		11 8 5 9
	")
}

ee,wfn = optimize('scf', return_wfn=True)
oeprop( wfn, 'DIPOLE', 'QUADRUPOLE', 'MULLIKEN_CHARGES')
f=open( 'psi4out.xyz', 'w' )
f.write( "19  " )
f.write( str(ee) + "\n" )
f.write( MOL.save_string_xyz() )
f.close()
--------------------------------------------------------------------------

    Molecular point group: c1
  Charge       = 0
  Multiplicity = 1
  Basis Set: CC-PVTZ
  Basis Set:
  @DF-RHF Final Energy:  -309.17312936802841
    Total Energy =                       -309.1731293680285262
    Molecular point group: c1
  Basis Set: CC-PVTZ
  Basis Set:
  Basis Set: CC-PVTZ
  Basis Set:
  @DF-RHF Final Energy:  -309.17326212303783
    Total Energy =                       -309.1732621230374889
  Basis Set: CC-PVTZ
  Basis Set:
  Basis Set: CC-PVTZ
  Basis Set:
  @DF-RHF Final Energy:  -309.17335130941893
    Total Energy =                       -309.1733513094191039
  Basis Set: CC-PVTZ
  Basis Set:
  Basis Set: CC-PVTZ
  Basis Set:
  @DF-RHF Final Energy:  -309.17332010162778
    Total Energy =                       -309.1733201016274961
  Basis Set: CC-PVTZ
  Basis Set:
  Basis Set: CC-PVTZ
  Basis Set:
  @DF-RHF Final Energy:  -309.17344688680924
    Total Energy =                       -309.1734468868096428
  Basis Set: CC-PVTZ
  Basis Set:
  Basis Set: CC-PVTZ
  Basis Set:
  @DF-RHF Final Energy:  -309.17345931072560
    Total Energy =                       -309.1734593107257183
  Basis Set: CC-PVTZ
  Basis Set:
  Charge       = 0
  Multiplicity = 1
  Basis Set: CC-PVTZ
  Basis Set:

    Orbital Energies (a.u.)
    -----------------------

    Doubly Occupied:

       1A    -20.537104     2A    -11.319511     3A    -11.228833
       4A    -11.228171     5A    -11.227059     6A    -11.222908
       7A    -11.214329     8A     -1.397187     9A     -1.091343
      10A     -1.030324    11A     -0.985011    12A     -0.891214
      13A     -0.808050    14A     -0.735607    15A     -0.663728
      16A     -0.645848    17A     -0.624047    18A     -0.615288
      19A     -0.587335    20A     -0.572096    21A     -0.557463
      22A     -0.535767    23A     -0.512078    24A     -0.506915
      25A     -0.483112    26A     -0.471766    27A     -0.469235
      28A     -0.399158

  @DF-RHF Final Energy:  -309.17345964409151

   => Energetics <=

    Nuclear Repulsion Energy =            301.8839921960504853
    One-Electron Energy =               -1016.9939162129398937
    Two-Electron Energy =                 405.9364643727981274
    DFT Exchange-Correlation Energy =       0.0000000000000000
    Empirical Dispersion Energy =           0.0000000000000000
    PCM Polarization Energy =               0.0000000000000000
    EFP Energy =                            0.0000000000000000
    Total Energy =                       -309.1734596440912810
    Molecular point group: c1
  Basis Set: CC-PVTZ
  Basis Set:

  -Total Gradient:
     Atom            X                  Y                   Z
    ------   -----------------  -----------------  -----------------
       1       -0.000011321377    -0.000042594981    -0.000006405902
       2        0.000010711569     0.000027098928    -0.000023980936
       3       -0.000002008261    -0.000002571761     0.000013808995
       4       -0.000008939603     0.000002013039     0.000008620246
       5       -0.002374502331     0.004163110194     0.004188283585
       6        0.000008868775     0.000011004124     0.000001894637
       7        0.000001769825    -0.000009803084     0.000021859839
       8        0.001633857364    -0.004167308321    -0.002669338206
       9        0.001622773691    -0.002537739320    -0.002965983962
      10       -0.000026732087    -0.000036683589    -0.000021512294
      11       -0.000892630170     0.002564725916     0.001424370172
      12        0.000001099367     0.000019110451     0.000031742779
      13        0.000018596975    -0.000026264012     0.000007992895
      14       -0.000006694519     0.000050662191     0.000015091178
      15       -0.000007689246    -0.000007827744    -0.000042642214
      16        0.000036409047    -0.000017646001     0.000019353429
      17       -0.000006907799    -0.000005859170    -0.000008784305
      18        0.000001530250     0.000004440102    -0.000000462136
      19        0.000001808528     0.000012133036     0.000006092199

  **** Optimization is complete! (in 7 steps) ****
    Final optimized geometry and variables:
    Molecular point group: c1

    Geometry (in Angstrom), charge = 0, multiplicity = 1:

    O           -2.054840152879    -1.351388131020    -0.189926307729
    C           -1.634614187517    -0.266498691014     0.050014885633
    C           -0.304768806035    -0.080343013737     0.753619336497
    C           -2.389586680135     0.980433499852    -0.344872247327
    C            0.858757908056    -0.111989402833    -0.242799301121
    H           -0.295338564488     0.857922662045     1.298233787157
    H           -0.194016658850    -0.888646240702     1.465541328628
    C            2.236858566665    -0.008346082163     0.429962058351
    H            0.752831259322     0.675933365027    -0.982882342745
    H            0.800472104605    -1.038030635551    -0.804270706361
    C            3.248348216121     0.789183104261    -0.387026824191
    H            2.129766552873     0.470915008368     1.398778917142
    H            2.619978050935    -1.003087476205     0.628827650040
    H            2.914570208365     1.812546010739    -0.520982769693
    H            3.390440668510     0.356997566364    -1.372343877871
    H            4.214366969232     0.815824036118     0.103780752693
    H           -3.232230729805     0.722970097842    -0.967953059918
    H           -1.739417420704     1.674111691785    -0.865936211128
    H           -2.741818520804     1.482131253913     0.550821826608

  Mulliken Charges: (a.u.)
   Center  Symbol    Alpha    Beta     Spin     Total
       1     O     4.17701  4.17701  0.00000 -0.35402
       2     C     2.85883  2.85883  0.00000  0.28234
       3     C     3.09770  3.09770  0.00000 -0.19540
       4     C     3.15542  3.15542  0.00000 -0.31085
       5     C     3.10148  3.10148  0.00000 -0.20296
       6     H     0.44938  0.44938  0.00000  0.10124
       7     H     0.43874  0.43874  0.00000  0.12251
       8     C     3.08617  3.08617  0.00000 -0.17235
       9     H     0.45211  0.45211  0.00000  0.09577
      10     H     0.44022  0.44022  0.00000  0.11955
      11     C     3.14853  3.14853  0.00000 -0.29707
      12     H     0.45513  0.45513  0.00000  0.08974
      13     H     0.44756  0.44756  0.00000  0.10488
      14     H     0.45591  0.45591  0.00000  0.08817
      15     H     0.45284  0.45284  0.00000  0.09432
      16     H     0.44779  0.44779  0.00000  0.10443
      17     H     0.43597  0.43597  0.00000  0.12805
      18     H     0.45078  0.45078  0.00000  0.09845
      19     H     0.44841  0.44841  0.00000  0.10317

   Total alpha = 28.00000, Total beta = 28.00000, Total charge = -0.00000

*** Psi4 exiting successfully. Buy a developer a beer!
