  ==> Input File <==

--------------------------------------------------------------------------
set {
	reference rhf
	basis 6-31G*
}

set_num_threads( 4 )
memory 2 gb

molecule MOL {
0 1

H	 -2.362706	 -1.735408	 -1.457353
N	 -1.462363	 -1.713880	 -1.019298
C	 -1.417035	 -0.694718	 0.014318
H	 -0.789669	 -1.499516	 -1.729678
C	 -0.037760	 -0.651799	 0.637931
H	 -1.663434	 0.305573	 -0.344441
H	 -2.137023	 -0.950571	 0.785640
O	 0.874168	 -0.245412	 -0.342030
H	 -0.024251	 0.046504	 1.474489
H	 0.225301	 -1.638745	 1.012057
C	 2.202317	 -0.244239	 0.074611
H	 2.711377	 -1.041390	 -0.449894
H	 2.692099	 0.699270	 -0.159667
H	 2.283185	 -0.418429	 1.145558

	symmetry c1
}
set optking {
	frozen_dihedral = ("
		5 8 11 13
	")
}

ee = optimize('scf')
oeprop('DIPOLE', 'QUADRUPOLE', 'MULLIKEN_CHARGES')
f=open( 'psi4out.xyz', 'w' )
f.write( "14  " )
f.write( str(ee) + "\n" )
f.write( MOL.save_string_xyz() )
f.close()
--------------------------------------------------------------------------

    Molecular point group: c1
  Charge       = 0
  Multiplicity = 1
  Basis Set: 6-31G*
  Basis Set:
  @DF-RHF Final Energy:  -248.12094798476448
    Total Energy =                       -248.1209479847644843
    Molecular point group: c1
  Basis Set: 6-31G*
  Basis Set:
  Basis Set: 6-31G*
  Basis Set:
  @DF-RHF Final Energy:  -248.12151656995789
    Total Energy =                       -248.1215165699578051
  Basis Set: 6-31G*
  Basis Set:
  Basis Set: 6-31G*
  Basis Set:
  @DF-RHF Final Energy:  -248.12164206238373
    Total Energy =                       -248.1216420623838417
  Basis Set: 6-31G*
  Basis Set:
  Charge       = 0
  Multiplicity = 1
  Basis Set: 6-31G*
  Basis Set:

    Orbital Energies (a.u.)
    -----------------------

    Doubly Occupied:

       1A    -20.553735     2A    -15.527918     3A    -11.266067
       4A    -11.265817     5A    -11.240220     6A     -1.376467
       7A     -1.173018     8A     -0.998808     9A     -0.907495
      10A     -0.814707    11A     -0.682452    12A     -0.671482
      13A     -0.642444    14A     -0.609675    15A     -0.605025
      16A     -0.538984    17A     -0.535729    18A     -0.495917
      19A     -0.471422    20A     -0.412354    21A     -0.379621

  @DF-RHF Final Energy:  -248.12164256545887

   => Energetics <=

    Nuclear Repulsion Energy =            194.4009822964326588
    One-Electron Energy =                -722.7065374749672628
    Two-Electron Energy =                 280.1839126130757904
    DFT Exchange-Correlation Energy =       0.0000000000000000
    Empirical Dispersion Energy =           0.0000000000000000
    PCM Polarization Energy =               0.0000000000000000
    EFP Energy =                            0.0000000000000000
    Total Energy =                       -248.1216425654588420
    Molecular point group: c1
  Basis Set: 6-31G*
  Basis Set:

  -Total Gradient:
     Atom            X                  Y                   Z
    ------   -----------------  -----------------  -----------------
       1        0.000012468814     0.000001711971    -0.000012189266
       2        0.000000325385     0.000014515708    -0.000008696913
       3       -0.000038399053    -0.000099858133     0.000078939862
       4       -0.000002856288     0.000010840052    -0.000024443576
       5       -0.000196754027     0.001357107195     0.000389722914
       6        0.000054572160    -0.000032240962     0.000021367490
       7       -0.000054065817    -0.000007457235     0.000006018282
       8        0.000208178086    -0.001614649707    -0.000236659039
       9       -0.000001989598    -0.000022748108     0.000031928547
      10       -0.000004287102     0.000028553238    -0.000054788617
      11        0.000429221092    -0.000187033454    -0.001540843067
      12        0.000004289667    -0.000002221996    -0.000003231729
      13       -0.000410543359     0.000554343605     0.001344998386
      14       -0.000000159964    -0.000000862174     0.000007876726

  **** Optimization is complete! (in 4 steps) ****
    Final optimized geometry and variables:
    Molecular point group: c1

    Geometry (in Angstrom), charge = 0, multiplicity = 1:

    H           -2.405699795625    -1.006545791800    -1.330528319578
    N           -1.508917772838    -0.992514251250    -0.885004800873
    C           -1.466273390868     0.020613083316     0.154676701369
    H           -0.829416913552    -0.777123365385    -1.588545308154
    C           -0.092709858987     0.052084636218     0.791123436356
    H           -1.702726581554     1.024327734300    -0.201025896792
    H           -2.194784008109    -0.234529042055     0.918328764536
    O            0.828116483016     0.453766864350    -0.184194642624
    H           -0.082933144626     0.749487652268     1.627658196371
    H            0.156149022451    -0.937682501561     1.165731162540
    C            2.170353145052     0.461450321676     0.205280964816
    H            2.713857536687    -0.332859514891    -0.296159384973
    H            2.610094078605     1.416279546123    -0.058789790802
    H            2.278605728385     0.327367290012     1.277474425549

  Mulliken Charges: (a.u.)
   Center  Symbol    Alpha    Beta     Spin     Total
       1     H     0.33296  0.33296  0.00000  0.33408
       2     N     3.92528  3.92528  0.00000 -0.85056
       3     C     3.06899  3.06899  0.00000 -0.13798
       4     H     0.32358  0.32358  0.00000  0.35284
       5     C     2.98976  2.98976  0.00000  0.02048
       6     H     0.42676  0.42676  0.00000  0.14648
       7     H     0.42069  0.42069  0.00000  0.15861
       8     O     4.31446  4.31446  0.00000 -0.62892
       9     H     0.43080  0.43080  0.00000  0.13839
      10     H     0.42241  0.42241  0.00000  0.15518
      11     C     3.07557  3.07557  0.00000 -0.15114
      12     H     0.42124  0.42124  0.00000  0.15752
      13     H     0.41870  0.41870  0.00000  0.16261
      14     H     0.42880  0.42880  0.00000  0.14240

   Total alpha = 21.00000, Total beta = 21.00000, Total charge =  0.00000
