  ==> Input File <==

--------------------------------------------------------------------------
set {
	reference rhf
	basis cc-pvtz
}

set_num_threads( 4 )
memory 2 gb

molecule MOL {
0 1

H	 -1.835082	 1.385983	 0.000069
C	 -1.300516	 0.441153	 -0.000028
O	 -0.006604	 0.654344	 -0.000106
O	 -1.828920	 -0.612308	 0.000113
C	 0.852093	 -0.482521	 -0.000161
C	 0.234665	 -1.526763	 0.899307
H	 1.829489	 -0.181956	 0.349577
H	 0.957038	 -0.840901	 -1.014317
H	 0.132124	 -1.152984	 1.910121
H	 0.865348	 -2.407448	 0.921351
H	 -0.744730	 -1.815226	 0.539385

	symmetry c1
}
set optking {
	frozen_dihedral = ("
		7 5 3 2
	")
}

ee = optimize('scf')
oeprop('DIPOLE', 'QUADRUPOLE', 'MULLIKEN_CHARGES')
f=open( 'psi4out.xyz', 'w' )
f.write( "11  " )
f.write( str(ee) + "\n" )
f.write( MOL.save_string_xyz() )
f.close()
--------------------------------------------------------------------------

    Molecular point group: c1
  Charge       = 0
  Multiplicity = 1
  Basis Set: CC-PVTZ
  Basis Set:
  @DF-RHF Final Energy:  -266.89880431020379
    Total Energy =                       -266.8988043102036727
    Molecular point group: c1
  Basis Set: CC-PVTZ
  Basis Set:
  Basis Set: CC-PVTZ
  Basis Set:
  @DF-RHF Final Energy:  -266.91955897307275
    Total Energy =                       -266.9195589730726965
  Basis Set: CC-PVTZ
  Basis Set:
  Basis Set: CC-PVTZ
  Basis Set:
  @DF-RHF Final Energy:  -266.91857046194468
    Total Energy =                       -266.9185704619448529
  Basis Set: CC-PVTZ
  Basis Set:
  Basis Set: CC-PVTZ
  Basis Set:
  @DF-RHF Final Energy:  -266.91910236160959
    Total Energy =                       -266.9191023616095322
  Basis Set: CC-PVTZ
  Basis Set:
  @DF-RHF Final Energy:  -266.92459016310568
    Total Energy =                       -266.9245901631057905
  Basis Set: CC-PVTZ
  Basis Set:
  @DF-RHF Final Energy:  -266.92484435898120
    Total Energy =                       -266.9248443589812041
  Basis Set: CC-PVTZ
  Basis Set:
  Basis Set: CC-PVTZ
  Basis Set:
  @DF-RHF Final Energy:  -266.92488249279273
    Total Energy =                       -266.9248824927928467
  Basis Set: CC-PVTZ
  Basis Set:
  Basis Set: CC-PVTZ
  Basis Set:
  @DF-RHF Final Energy:  -266.92489009101394
    Total Energy =                       -266.9248900910139355
  Basis Set: CC-PVTZ
  Basis Set:
  Charge       = 0
  Multiplicity = 1
  Basis Set: CC-PVTZ
  Basis Set:

    Orbital Energies (a.u.)
    -----------------------

    Doubly Occupied:

       1A    -20.603324     2A    -20.543740     3A    -11.370568
       4A    -11.294169     5A    -11.218951     6A     -1.474716
       7A     -1.377033     8A     -1.049508     9A     -0.917749
      10A     -0.795288    11A     -0.734104    12A     -0.687025
      13A     -0.666715    14A     -0.624375    15A     -0.577696
      16A     -0.543990    17A     -0.530003    18A     -0.504811
      19A     -0.460542    20A     -0.450266

  @DF-RHF Final Energy:  -266.92489039194038

   => Energetics <=

    Nuclear Repulsion Energy =            182.9993591281997567
    One-Electron Energy =                -726.9993521136635763
    Two-Electron Energy =                 277.0751025935237521
    DFT Exchange-Correlation Energy =       0.0000000000000000
    Empirical Dispersion Energy =           0.0000000000000000
    PCM Polarization Energy =               0.0000000000000000
    EFP Energy =                            0.0000000000000000
    Total Energy =                       -266.9248903919400391
    Molecular point group: c1
  Basis Set: CC-PVTZ
  Basis Set:

  -Total Gradient:
     Atom            X                  Y                   Z
    ------   -----------------  -----------------  -----------------
       1       -0.000021999176     0.000004248447     0.000000630354
       2       -0.000094171742     0.000138235507     0.005691579075
       3       -0.000223949544    -0.000350763883    -0.007569090848
       4        0.000012152618     0.000012831950     0.000009401838
       5        0.002014516723     0.001278175365    -0.003762675086
       6        0.000007780801     0.000002548199    -0.000013028032
       7       -0.001717003989    -0.001078001213     0.005635732364
       8        0.000010494868    -0.000025261149     0.000010082565
       9       -0.000001729433     0.000004530541    -0.000000915482
      10        0.000002724574     0.000003241980    -0.000000091558
      11        0.000011184300     0.000010214255    -0.000001625192

  **** Optimization is complete! (in 9 steps) ****
    Final optimized geometry and variables:
    Molecular point group: c1

    Geometry (in Angstrom), charge = 0, multiplicity = 1:

    H           -1.283591480942     1.859744944402    -0.071866591757
    C           -0.885075068615     0.855945549955    -0.187215114292
    O            0.424374806773     0.904090825896    -0.174990252989
    O           -1.562540404070    -0.098318428018    -0.324866015070
    C            1.243681833460    -0.266610491042    -0.139061204771
    C            0.791334320373    -1.362720123268     0.810697045026
    H            2.188709295045     0.108971551774     0.221370676708
    H            1.356240257796    -0.638215671919    -1.147917823585
    H            0.591895349866    -0.956704063851     1.795643711546
    H            1.605125666965    -2.073604956056     0.903381683312
    H           -0.087016611233    -1.879821025489     0.464555459749

  Mulliken Charges: (a.u.)
   Center  Symbol    Alpha    Beta     Spin     Total
       1     H     0.44760  0.44760  0.00000  0.10480
       2     C     2.84168  2.84168  0.00000  0.31664
       3     O     4.14860  4.14860  0.00000 -0.29719
       4     O     4.19667  4.19667  0.00000 -0.39334
       5     C     2.97416  2.97416  0.00000  0.05169
       6     C     3.15551  3.15551  0.00000 -0.31102
       7     H     0.44737  0.44737  0.00000  0.10525
       8     H     0.45312  0.45312  0.00000  0.09376
       9     H     0.45164  0.45164  0.00000  0.09671
      10     H     0.45021  0.45021  0.00000  0.09958
      11     H     0.43344  0.43344  0.00000  0.13312

   Total alpha = 20.00000, Total beta = 20.00000, Total charge = -0.00000
