  ==> Input File <==

--------------------------------------------------------------------------
set {
	reference rhf
	basis 6-31G*
}

set_num_threads( 4 )
memory 2 gb

molecule MOL {
0 1

H	 -3.420663	 1.227371	 -1.044276
O	 -3.452007	 0.283848	 -0.965577
C	 -3.181085	 -0.079926	 0.364119
C	 -1.765924	 0.277073	 0.805136
H	 -3.327791	 -1.152017	 0.410903
H	 -3.905698	 0.375695	 1.036898
C	 -0.677594	 -0.417312	 -0.014550
H	 -1.637766	 1.358238	 0.744969
H	 -1.659588	 0.017670	 1.857098
C	 0.738335	 -0.034840	 0.421385
H	 -0.814977	 -0.178223	 -1.064632
H	 -0.802730	 -1.495410	 0.071702
C	 1.822265	 -0.738362	 -0.399735
H	 0.853533	 1.043532	 0.342250
H	 0.871597	 -0.279636	 1.474438
C	 3.258060	 -0.455774	 0.057203
H	 1.718003	 -0.459167	 -1.447053
H	 1.651028	 -1.811884	 -0.354513
C	 3.951856	 -1.635758	 0.740349
H	 3.240619	 0.384521	 0.747052
H	 3.850470	 -0.133795	 -0.796952
H	 3.375168	 -1.987532	 1.591715
H	 4.933588	 -1.347848	 1.103872
H	 4.088812	 -2.473497	 0.064627

	symmetry c1
}
set optking {
	frozen_dihedral = ("
		20 16 13 17
	")
}

ee = optimize('scf')
oeprop('DIPOLE', 'QUADRUPOLE', 'MULLIKEN_CHARGES')
f=open( 'psi4out.xyz', 'w' )
f.write( "24  " )
f.write( str(ee) + "\n" )
f.write( MOL.save_string_xyz() )
f.close()
--------------------------------------------------------------------------

    Molecular point group: c1
  Charge       = 0
  Multiplicity = 1
  Basis Set: 6-31G*
  Basis Set:
  @DF-RHF Final Energy:  -349.24355764404561
    Total Energy =                       -349.2435576440456089
    Molecular point group: c1
  Basis Set: 6-31G*
  Basis Set:
  Basis Set: 6-31G*
  Basis Set:
  @DF-RHF Final Energy:  -349.24393333661374
    Total Energy =                       -349.2439333366137362
  Basis Set: 6-31G*
  Basis Set:
  Basis Set: 6-31G*
  Basis Set:
  @DF-RHF Final Energy:  -349.24400891110878
    Total Energy =                       -349.2440089111086650
  Basis Set: 6-31G*
  Basis Set:
  Basis Set: 6-31G*
  Basis Set:
  @DF-RHF Final Energy:  -349.24400637460917
    Total Energy =                       -349.2440063746092278
  Basis Set: 6-31G*
  Basis Set:
  Basis Set: 6-31G*
  Basis Set:
  @DF-RHF Final Energy:  -349.24401070771552
    Total Energy =                       -349.2440107077150060
  Basis Set: 6-31G*
  Basis Set:
  Charge       = 0
  Multiplicity = 1
  Basis Set: 6-31G*
  Basis Set:

    Orbital Energies (a.u.)
    -----------------------

    Doubly Occupied:

       1A    -20.553627     2A    -11.267766     3A    -11.217588
       4A    -11.213447     5A    -11.213329     6A    -11.211085
       7A    -11.210991     8A    -11.207618     9A     -1.360229
      10A     -1.087677    11A     -1.047635    12A     -0.987243
      13A     -0.913374    14A     -0.844375    15A     -0.798926
      16A     -0.785951    17A     -0.678946    18A     -0.654125
      19A     -0.625616    20A     -0.615622    21A     -0.596965
      22A     -0.585085    23A     -0.556085    24A     -0.536510
      25A     -0.522057    26A     -0.509513    27A     -0.493405
      28A     -0.472845    29A     -0.466876    30A     -0.459803
      31A     -0.455905    32A     -0.451293    33A     -0.418305

  @DF-RHF Final Energy:  -349.24401077489148

   => Energetics <=

    Nuclear Repulsion Energy =            382.0183306437922397
    One-Electron Energy =               -1230.4850440464433632
    Two-Electron Energy =                 499.2227026277596451
    DFT Exchange-Correlation Energy =       0.0000000000000000
    Empirical Dispersion Energy =           0.0000000000000000
    PCM Polarization Energy =               0.0000000000000000
    EFP Energy =                            0.0000000000000000
    Total Energy =                       -349.2440107748914215
    Molecular point group: c1
  Basis Set: 6-31G*
  Basis Set:

  -Total Gradient:
     Atom            X                  Y                   Z
    ------   -----------------  -----------------  -----------------
       1        0.000000147167     0.000000726492    -0.000001133350
       2        0.000002311274     0.000000985185     0.000001389187
       3        0.000000785109    -0.000005236042     0.000000005882
       4        0.000001036997    -0.000005166010     0.000004887687
       5       -0.000000898418    -0.000001317940     0.000001766884
       6        0.000000809959     0.000001731097    -0.000001182428
       7        0.000006430400     0.000020910360    -0.000001048932
       8       -0.000000879322    -0.000003394373    -0.000002203481
       9        0.000000579610     0.000001584250     0.000003668003
      10       -0.000006796836     0.000022178590    -0.000000941375
      11       -0.000005446725     0.000006317383    -0.000002992526
      12        0.000006326897     0.000000593238    -0.000003836748
      13       -0.000806795584     0.002133175288     0.001141441207
      14        0.000000735539    -0.000002792993     0.000004782440
      15       -0.000007660400    -0.000006486177    -0.000007208608
      16        0.000399333243     0.001185422178    -0.002188528540
      17        0.000643131938    -0.001960964233    -0.000580041083
      18        0.000044514591    -0.000003444686     0.000013592460
      19        0.000006878010    -0.000039421503    -0.000004289833
      20       -0.000275260582    -0.001350567935     0.001632337601
      21       -0.000011061996     0.000000832079    -0.000018755471
      22       -0.000001349690     0.000007994487     0.000004148190
      23       -0.000002671489    -0.000007127418    -0.000005136298
      24        0.000005800316     0.000003468680     0.000009279130

  **** Optimization is complete! (in 6 steps) ****
    Final optimized geometry and variables:
    Molecular point group: c1

    Geometry (in Angstrom), charge = 0, multiplicity = 1:

    H           -3.439311899714     1.592816468270    -1.136814292113
    O           -3.479992628641     0.648751972057    -1.070213185142
    C           -3.211059393405     0.265258925129     0.254338378524
    C           -1.791749587329     0.602253923707     0.697765725806
    H           -3.368413876942    -0.805739287613     0.287483575745
    H           -3.930127167246     0.719375888959     0.933975854779
    C           -0.711583461899    -0.090737549363    -0.133905577193
    H           -1.653204824275     1.682838479681     0.652610440736
    H           -1.686058034100     0.326925739806     1.745744023011
    C            0.707898168888     0.273883175732     0.302298528860
    H           -0.849791989694     0.162752113068    -1.180517681624
    H           -0.845377885103    -1.168843963112    -0.061029028122
    C            1.791238696759    -0.419630899735    -0.526360437988
    H            0.841514182637     1.352316257577     0.233425318416
    H            0.842228128161     0.018501923763     1.352772288924
    C            3.228622140140    -0.097094366682    -0.062278283053
    H            1.668793279767    -0.157613146798    -1.574222526086
    H            1.632450541569    -1.495220456609    -0.480230618543
    C            3.910505381525    -1.270042957246     0.645326855918
    H            3.207860038148     0.747352235592     0.622237624301
    H            3.837285217134     0.208179866433    -0.908073775076
    H            3.336360395476    -1.592251988056     1.509981976459
    H            4.903946506838    -0.999491331814     0.990433959889
    H            4.010984750261    -2.123330716111    -0.019259654646

  Mulliken Charges: (a.u.)
   Center  Symbol    Alpha    Beta     Spin     Total
       1     H     0.28338  0.28338  0.00000  0.43324
       2     O     4.36829  4.36829  0.00000 -0.73658
       3     C     2.99613  2.99613  0.00000  0.00774
       4     C     3.16908  3.16908  0.00000 -0.33815
       5     H     0.41632  0.41632  0.00000  0.16737
       6     H     0.42814  0.42814  0.00000  0.14372
       7     C     3.15271  3.15271  0.00000 -0.30543
       8     H     0.42820  0.42820  0.00000  0.14360
       9     H     0.42236  0.42236  0.00000  0.15528
      10     C     3.15332  3.15332  0.00000 -0.30664
      11     H     0.41198  0.41198  0.00000  0.17603
      12     H     0.42338  0.42338  0.00000  0.15324
      13     C     3.15520  3.15520  0.00000 -0.31040
      14     H     0.42436  0.42436  0.00000  0.15127
      15     H     0.42494  0.42494  0.00000  0.15013
      16     C     3.15505  3.15505  0.00000 -0.31011
      17     H     0.42033  0.42033  0.00000  0.15934
      18     H     0.42130  0.42130  0.00000  0.15740
      19     C     3.23965  3.23965  0.00000 -0.47929
      20     H     0.42111  0.42111  0.00000  0.15777
      21     H     0.41996  0.41996  0.00000  0.16008
      22     H     0.42258  0.42258  0.00000  0.15485
      23     H     0.42087  0.42087  0.00000  0.15827
      24     H     0.42137  0.42137  0.00000  0.15727

   Total alpha = 33.00000, Total beta = 33.00000, Total charge =  0.00000
