  ==> Input File <==

--------------------------------------------------------------------------
set {
	reference rhf
	basis 6-31G*
}

set_num_threads( 4 )
memory 2 gb

molecule MOL {
0 1

H	 2.989605	 0.683837	 -1.050595
N	 2.173369	 0.103111	 -1.045115
C	 1.267428	 0.496480	 0.024474
H	 2.489062	 -0.838597	 -0.909324
C	 -0.016086	 -0.325158	 -0.029487
H	 1.027311	 1.546060	 -0.116095
H	 1.712826	 0.407676	 1.018513
C	 -1.282277	 0.529072	 0.046735
H	 -0.012495	 -0.908639	 -0.945788
H	 -0.015903	 -1.041248	 0.791956
C	 -2.563920	 -0.301775	 -0.006060
H	 -1.284084	 1.244622	 -0.773004
H	 -1.271387	 1.115393	 0.963286
H	 -2.621848	 -0.873522	 -0.927727
H	 -3.445135	 0.329952	 0.047812
H	 -2.609542	 -1.004582	 0.821105

	symmetry c1
}
set optking {
	frozen_dihedral = ("
		6 3 5 9
	")
}

ee = optimize('scf')
oeprop('DIPOLE', 'QUADRUPOLE', 'MULLIKEN_CHARGES')
f=open( 'psi4out.xyz', 'w' )
f.write( "16  " )
f.write( str(ee) + "\n" )
f.write( MOL.save_string_xyz() )
f.close()
--------------------------------------------------------------------------

    Molecular point group: c1
  Charge       = 0
  Multiplicity = 1
  Basis Set: 6-31G*
  Basis Set:
  @DF-RHF Final Energy:  -212.31150303380653
    Total Energy =                       -212.3115030338066163
    Molecular point group: c1
  Basis Set: 6-31G*
  Basis Set:
  Basis Set: 6-31G*
  Basis Set:
  @DF-RHF Final Energy:  -212.31174916825398
    Total Energy =                       -212.3117491682539253
  Basis Set: 6-31G*
  Basis Set:
  Basis Set: 6-31G*
  Basis Set:
  @DF-RHF Final Energy:  -212.31183564725137
    Total Energy =                       -212.3118356472512005
  Basis Set: 6-31G*
  Basis Set:
  Basis Set: 6-31G*
  Basis Set:
  @DF-RHF Final Energy:  -212.31183148981287
    Total Energy =                       -212.3118314898127892
  Basis Set: 6-31G*
  Basis Set:
  Basis Set: 6-31G*
  Basis Set:
  @DF-RHF Final Energy:  -212.31183852973581
    Total Energy =                       -212.3118385297358941
  Basis Set: 6-31G*
  Basis Set:
  Charge       = 0
  Multiplicity = 1
  Basis Set: 6-31G*
  Basis Set:

    Orbital Energies (a.u.)
    -----------------------

    Doubly Occupied:

       1A    -15.533146     2A    -11.239791     3A    -11.214103
       4A    -11.209448     5A    -11.206736     6A     -1.175948
       7A     -1.057759     8A     -0.956520     9A     -0.844376
      10A     -0.792563    11A     -0.653921    12A     -0.646428
      13A     -0.596136    14A     -0.576099    15A     -0.571122
      16A     -0.516332    17A     -0.503731    18A     -0.467058
      19A     -0.464339    20A     -0.461757    21A     -0.379432

  @DF-RHF Final Energy:  -212.31183856015301

   => Energetics <=

    Nuclear Repulsion Energy =            186.2502772718644053
    One-Electron Energy =                -654.9907420685585748
    Two-Electron Energy =                 256.4286262365411631
    DFT Exchange-Correlation Energy =       0.0000000000000000
    Empirical Dispersion Energy =           0.0000000000000000
    PCM Polarization Energy =               0.0000000000000000
    EFP Energy =                            0.0000000000000000
    Total Energy =                       -212.3118385601529781
    Molecular point group: c1
  Basis Set: 6-31G*
  Basis Set:

  -Total Gradient:
     Atom            X                  Y                   Z
    ------   -----------------  -----------------  -----------------
       1        0.000000594741     0.000000606619     0.000000790282
       2       -0.000001998700    -0.000013237981    -0.000003181572
       3        0.000668420092    -0.000801654269    -0.003215940769
       4        0.000008123950    -0.000005656999    -0.000005402760
       5       -0.001661134022     0.002701785666    -0.000960190109
       6       -0.000320866967     0.000277609648     0.002847938162
       7       -0.000000435445    -0.000006171324    -0.000001772204
       8        0.000003434716     0.000002608086     0.000004302182
       9        0.001301889433    -0.002153068834     0.001335220003
      10       -0.000002400476    -0.000000577120     0.000000546164
      11        0.000002991138    -0.000000896469    -0.000003749942
      12       -0.000004542838    -0.000001687877    -0.000000430357
      13        0.000003903902    -0.000001084257    -0.000000364740
      14        0.000002058780    -0.000001828477     0.000001885160
      15        0.000000873642     0.000000690320    -0.000002331436
      16       -0.000000911945     0.000002563270     0.000002681935

  **** Optimization is complete! (in 6 steps) ****
    Final optimized geometry and variables:
    Molecular point group: c1

    Geometry (in Angstrom), charge = 0, multiplicity = 1:

    H            3.086698563873     0.571661020379    -0.782813593159
    N            2.253140858706     0.016998177776    -0.826618884665
    C            1.323918624787     0.406082491497     0.225833912943
    H            2.536865187641    -0.937120731429    -0.705850607024
    C            0.025039889445    -0.417048172771     0.160858174413
    H            1.097786016059     1.460077439151     0.099260011280
    H            1.756726815341     0.317403776892     1.224544914925
    C           -1.244441662904     0.431126669267     0.247965202699
    H            0.025513329355    -0.989342278993    -0.762322797257
    H            0.015559205697    -1.149670439242     0.965774746650
    C           -2.523052218861    -0.404449987820     0.223348984920
    H           -1.255805359199     1.137577804802    -0.578636452595
    H           -1.219552018523     1.025852479520     1.159315319164
    H           -2.590337265065    -0.988780756073    -0.689939167013
    H           -3.405771161124     0.225116143500     0.279205319579
    H           -2.556525322133    -1.096021281955     1.060660901750

  Mulliken Charges: (a.u.)
   Center  Symbol    Alpha    Beta     Spin     Total
       1     H     0.33341  0.33341  0.00000  0.33318
       2     N     3.92030  3.92030  0.00000 -0.84061
       3     C     3.06413  3.06413  0.00000 -0.12826
       4     H     0.33537  0.33537  0.00000  0.32925
       5     C     3.15767  3.15767  0.00000 -0.31534
       6     H     0.41838  0.41838  0.00000  0.16324
       7     H     0.43309  0.43309  0.00000  0.13382
       8     C     3.15552  3.15552  0.00000 -0.31104
       9     H     0.41191  0.41191  0.00000  0.17619
      10     H     0.42481  0.42481  0.00000  0.15039
      11     C     3.24002  3.24002  0.00000 -0.48003
      12     H     0.41874  0.41874  0.00000  0.16251
      13     H     0.42417  0.42417  0.00000  0.15165
      14     H     0.42051  0.42051  0.00000  0.15899
      15     H     0.41949  0.41949  0.00000  0.16103
      16     H     0.42248  0.42248  0.00000  0.15503

   Total alpha = 21.00000, Total beta = 21.00000, Total charge = -0.00000
