  ==> Input File <==

--------------------------------------------------------------------------
set {
	reference rhf
	basis 6-31G*
}

set_num_threads( 4 )
memory 2 gb

molecule MOL {
0 1

O	 3.225979	 0.970355	 -0.599647
C	 2.701189	 0.057885	 -0.047330
C	 1.245376	 -0.013843	 0.345420
O	 3.347903	 -1.046386	 0.304773
C	 0.455112	 1.231400	 -0.050772
H	 0.838542	 -0.913825	 -0.103701
H	 1.208210	 -0.175333	 1.419774
C	 -0.998893	 1.219485	 0.433193
H	 0.482531	 1.345121	 -1.130325
H	 0.957290	 2.103070	 0.354729
C	 -1.883438	 0.145884	 -0.207175
H	 -1.431207	 2.195402	 0.224832
H	 -1.019646	 1.105716	 1.516076
C	 -3.347647	 0.245583	 0.225435
H	 -1.822183	 0.231698	 -1.291012
H	 -1.510341	 -0.844814	 0.042401
C	 -4.239992	 -0.825570	 -0.404234
H	 -3.732888	 1.230466	 -0.033079
H	 -3.408585	 0.170602	 1.310038
C	 -5.400597	 -0.239670	 -1.207614
H	 -3.638196	 -1.460635	 -1.050900
H	 -4.633063	 -1.472159	 0.377558
H	 -6.014531	 -1.023097	 -1.641127
H	 -5.039324	 0.384836	 -2.019815
H	 -6.041433	 0.373693	 -0.580407
C	 4.728119	 -1.109107	 -0.004993
H	 4.882018	 -1.033965	 -1.071845
H	 5.068212	 -2.067527	 0.355250
H	 5.265056	 -0.311663	 0.488280

	symmetry c1
}
set optking {
	frozen_dihedral = ("
		21 17 14 11
	")
}

ee = optimize('scf')
oeprop('DIPOLE', 'QUADRUPOLE', 'MULLIKEN_CHARGES')
f=open( 'psi4out.xyz', 'w' )
f.write( "29  " )
f.write( str(ee) + "\n" )
f.write( MOL.save_string_xyz() )
f.close()
--------------------------------------------------------------------------

    Molecular point group: c1
  Charge       = 0
  Multiplicity = 1
  Basis Set: 6-31G*
  Basis Set:
  @DF-RHF Final Energy:  -501.03824045098986
    Total Energy =                       -501.0382404509904291
    Molecular point group: c1
  Basis Set: 6-31G*
  Basis Set:
  Basis Set: 6-31G*
  Basis Set:
  @DF-RHF Final Energy:  -501.03846955330482
    Total Energy =                       -501.0384695533045942
  Basis Set: 6-31G*
  Basis Set:
  Basis Set: 6-31G*
  Basis Set:
  @DF-RHF Final Energy:  -501.03854661137291
    Total Energy =                       -501.0385466113725670
  Basis Set: 6-31G*
  Basis Set:
  Basis Set: 6-31G*
  Basis Set:
  @DF-RHF Final Energy:  -501.03853327263755
    Total Energy =                       -501.0385332726375509
  Basis Set: 6-31G*
  Basis Set:
  Basis Set: 6-31G*
  Basis Set:
  @DF-RHF Final Energy:  -501.03854823111180
    Total Energy =                       -501.0385482311119176
  Basis Set: 6-31G*
  Basis Set:
  Charge       = 0
  Multiplicity = 1
  Basis Set: 6-31G*
  Basis Set:

    Orbital Energies (a.u.)
    -----------------------

    Doubly Occupied:

       1A    -20.603371     2A    -20.545198     3A    -11.372008
       4A    -11.280664     5A    -11.234747     6A    -11.219129
       7A    -11.217457     8A    -11.216309     9A    -11.215462
      10A    -11.214123    11A    -11.209233    12A     -1.469070
      13A     -1.362511    14A     -1.097343    15A     -1.064941
      16A     -1.018846    17A     -0.977050    18A     -0.928167
      19A     -0.862239    20A     -0.800646    21A     -0.789709
      22A     -0.764011    23A     -0.700595    24A     -0.682324
      25A     -0.672129    26A     -0.642288    27A     -0.631165
      28A     -0.602546    29A     -0.600815    30A     -0.581672
      31A     -0.564539    32A     -0.553101    33A     -0.531804
      34A     -0.522744    35A     -0.518205    36A     -0.515183
      37A     -0.496076    38A     -0.476809    39A     -0.472895
      40A     -0.459267    41A     -0.455947    42A     -0.455110
      43A     -0.440310    44A     -0.434846

  @DF-RHF Final Energy:  -501.03854761039156

   => Energetics <=

    Nuclear Repulsion Energy =            611.0833249786010128
    One-Electron Energy =               -1893.2985453435912859
    Two-Electron Energy =                 781.1766727545987123
    DFT Exchange-Correlation Energy =       0.0000000000000000
    Empirical Dispersion Energy =           0.0000000000000000
    PCM Polarization Energy =               0.0000000000000000
    EFP Energy =                            0.0000000000000000
    Total Energy =                       -501.0385476103915607
    Molecular point group: c1
  Basis Set: 6-31G*
  Basis Set:

  -Total Gradient:
     Atom            X                  Y                   Z
    ------   -----------------  -----------------  -----------------
       1        0.000024623705     0.000036410503     0.000086984896
       2       -0.000064998438    -0.000104844223    -0.000230312446
       3        0.000043880158     0.000043882819     0.000080056866
       4        0.000021026868     0.000033165361     0.000066547665
       5        0.000008535519     0.000015169332    -0.000009207170
       6        0.000059839314     0.000027784519    -0.000002112991
       7       -0.000021610809    -0.000008077357     0.000013370004
       8        0.000022982028    -0.000021297285     0.000023404225
       9       -0.000001946059    -0.000023081147     0.000001157431
      10        0.000014711961     0.000017793992    -0.000018889269
      11       -0.000170247447     0.000305821477    -0.000350663352
      12        0.000017424767     0.000001523307     0.000023007672
      13        0.000013081219    -0.000018018029    -0.000005196526
      14        0.000140840991    -0.000557707622     0.000541991084
      15       -0.000031546792    -0.000005754505     0.000010511004
      16       -0.000082876482     0.000029063949     0.000010443253
      17       -0.000161804574     0.000733656261    -0.000781351414
      18        0.000006830070    -0.000012114919    -0.000031965203
      19        0.000005505956    -0.000052848488    -0.000004237310
      20        0.000041417671    -0.000051076419     0.000024596747
      21        0.000116491258    -0.000375972557     0.000482088365
      22       -0.000032023604     0.000029863204     0.000037845932
      23       -0.000025856566    -0.000007440649    -0.000019471307
      24        0.000017872498    -0.000019652711     0.000036472806
      25        0.000036524007    -0.000017449145     0.000011453034
      26        0.000000148750     0.000000326198     0.000001774349
      27       -0.000002556914     0.000000692655     0.000000661318
      28        0.000001038689     0.000000421110     0.000001289395
      29        0.000002692246    -0.000000239629    -0.000000249060

  **** Optimization is complete! (in 6 steps) ****
    Final optimized geometry and variables:
    Molecular point group: c1

    Geometry (in Angstrom), charge = 0, multiplicity = 1:

    O            3.199948223037     0.923323629258    -0.488006245521
    C            2.677751649124     0.012644898815     0.069706154906
    C            1.222809304988    -0.059623402109     0.465566312040
    O            3.327436015820    -1.088008179791     0.427612243230
    C            0.429483737101     1.181955292046     0.063960090909
    H            0.816880451724    -0.962873405663     0.022269498095
    H            1.187929833819    -0.215183705314     1.540869805301
    C           -1.023441265465     1.170648429777     0.551674097792
    H            0.454066871464     1.289377212484    -1.016296579541
    H            0.931423244027     2.056733208529     0.462996277484
    C           -1.910772640823     0.099082371718    -0.087009896778
    H           -1.455369295738     2.147301702914     0.345565261903
    H           -1.041517987967     1.056004835417     1.634582100585
    C           -3.375476459510     0.200751851715     0.346850176051
    H           -1.853545368620     0.184177697895    -1.171341874315
    H           -1.540082268595    -0.892921389780     0.161106652691
    C           -4.285833524833    -0.871019840700    -0.294612393032
    H           -3.744838659441     1.191914197390     0.093088079758
    H           -3.429045700742     0.133218485204     1.430492403811
    C           -5.450604856213    -0.283695931681    -1.091705872333
    H           -3.695585146350    -1.508387638445    -0.948211064128
    H           -4.681447304410    -1.527424153142     0.475404635733
    H           -6.063612414235    -1.065689755656    -1.529608868655
    H           -5.091371779530     0.348173593446    -1.899335331228
    H           -6.090613534799     0.323943589478    -0.458293050266
    C            4.707436766987    -1.149388161633     0.116614557214
    H            4.859930149532    -1.080294239358    -0.950852859041
    H            5.050153336097    -2.104836637277     0.482207337445
    H            5.243083467404    -0.347758678553     0.604476679422

  Mulliken Charges: (a.u.)
   Center  Symbol    Alpha    Beta     Spin     Total
       1     O     4.28596  4.28596  0.00000 -0.57193
       2     C     2.60488  2.60488  0.00000  0.79024
       3     C     3.20961  3.20961  0.00000 -0.41922
       4     O     4.30746  4.30746  0.00000 -0.61492
       5     C     3.15369  3.15369  0.00000 -0.30739
       6     H     0.39887  0.39887  0.00000  0.20225
       7     H     0.40121  0.40121  0.00000  0.19758
       8     C     3.15745  3.15745  0.00000 -0.31490
       9     H     0.41312  0.41312  0.00000  0.17376
      10     H     0.40873  0.40873  0.00000  0.18253
      11     C     3.15688  3.15688  0.00000 -0.31376
      12     H     0.41819  0.41819  0.00000  0.16363
      13     H     0.42386  0.42386  0.00000  0.15228
      14     C     3.15466  3.15466  0.00000 -0.30933
      15     H     0.42256  0.42256  0.00000  0.15489
      16     H     0.42304  0.42304  0.00000  0.15392
      17     C     3.15521  3.15521  0.00000 -0.31042
      18     H     0.42046  0.42046  0.00000  0.15909
      19     H     0.42100  0.42100  0.00000  0.15801
      20     C     3.23972  3.23972  0.00000 -0.47944
      21     H     0.42038  0.42038  0.00000  0.15924
      22     H     0.42031  0.42031  0.00000  0.15938
      23     H     0.42049  0.42049  0.00000  0.15903
      24     H     0.42185  0.42185  0.00000  0.15629
      25     H     0.42127  0.42127  0.00000  0.15745
      26     C     3.09240  3.09240  0.00000 -0.18481
      27     H     0.40909  0.40909  0.00000  0.18181
      28     H     0.40851  0.40851  0.00000  0.18297
      29     H     0.40912  0.40912  0.00000  0.18177

   Total alpha = 44.00000, Total beta = 44.00000, Total charge =  0.00000
