                              Psi4 1.0.54 Driver

  ==> Input File <==

--------------------------------------------------------------------------
set {
	reference rhf
	basis cc-pvtz
}

set_num_threads( 4 )
memory 2 gb

molecule MOL {
0 1

H	 3.889604	 0.356866	 -0.089510
N	 3.091268	 -0.241216	 -0.065538
C	 1.860978	 0.530248	 0.016256
H	 3.192566	 -0.835836	 0.730398
C	 0.644130	 -0.381765	 -0.031064
H	 1.835721	 1.204666	 -0.833114
H	 1.808789	 1.151975	 0.911067
C	 -0.678115	 0.376691	 0.025731
H	 0.693998	 -0.977147	 -0.936845
H	 0.693309	 -1.082142	 0.800523
C	 -1.897548	 -0.518512	 -0.176248
H	 -0.678596	 1.155709	 -0.733272
H	 -0.764460	 0.885766	 0.982945
C	 -3.217008	 0.244436	 -0.125174
H	 -1.812990	 -1.028418	 -1.131831
H	 -1.901513	 -1.295591	 0.583294
H	 -3.258415	 1.006753	 -0.896146
H	 -4.061063	 -0.419654	 -0.272013
H	 -3.347358	 0.737797	 0.832396

	symmetry c1
}
set optking {
	frozen_dihedral = ("
		12 8 5 9
	")
}

ee,wfn = optimize('scf', return_wfn=True)
oeprop( wfn, 'DIPOLE', 'QUADRUPOLE', 'MULLIKEN_CHARGES')
f=open( 'psi4out.xyz', 'w' )
f.write( "19  " )
f.write( str(ee) + "\n" )
f.write( MOL.save_string_xyz() )
f.close()
--------------------------------------------------------------------------

    Molecular point group: c1
  Charge       = 0
  Multiplicity = 1
  Basis Set: CC-PVTZ
  Basis Set:
  @DF-RHF Final Energy:  -251.44800863890461
    Total Energy =                       -251.4480086389047528
    Molecular point group: c1
  Basis Set: CC-PVTZ
  Basis Set:
  Basis Set: CC-PVTZ
  Basis Set:
  @DF-RHF Final Energy:  -251.44802377944316
    Total Energy =                       -251.4480237794430195
  Basis Set: CC-PVTZ
  Basis Set:
  Basis Set: CC-PVTZ
  Basis Set:
  @DF-RHF Final Energy:  -251.44803235824526
    Total Energy =                       -251.4480323582452002
  Basis Set: CC-PVTZ
  Basis Set:
  Charge       = 0
  Multiplicity = 1
  Basis Set: CC-PVTZ
  Basis Set:

    Orbital Energies (a.u.)
    -----------------------

    Doubly Occupied:

       1A    -15.526438     2A    -11.238007     3A    -11.211914
       4A    -11.210459     5A    -11.207653     6A    -11.205452
       7A     -1.178220     8A     -1.074273     9A     -0.999642
      10A     -0.901031    11A     -0.813552    12A     -0.789750
      13A     -0.665677    14A     -0.643015    15A     -0.618618
      16A     -0.588907    17A     -0.566386    18A     -0.549749
      19A     -0.529551    20A     -0.499941    21A     -0.480118
      22A     -0.465430    23A     -0.460742    24A     -0.451573
      25A     -0.383806

  @DF-RHF Final Energy:  -251.44803268255129

   => Energetics <=

    Nuclear Repulsion Energy =            246.0566488141712966
    One-Electron Energy =                -826.4895558775804147
    Two-Electron Energy =                 328.9848743808579457
    DFT Exchange-Correlation Energy =       0.0000000000000000
    Empirical Dispersion Energy =           0.0000000000000000
    PCM Polarization Energy =               0.0000000000000000
    EFP Energy =                            0.0000000000000000
    Total Energy =                       -251.4480326825512293
    Molecular point group: c1
  Basis Set: CC-PVTZ
  Basis Set:

  -Total Gradient:
     Atom            X                  Y                   Z
    ------   -----------------  -----------------  -----------------
       1        0.000004382611     0.000007116684     0.000003239781
       2       -0.000006617239    -0.000021263735    -0.000010159719
       3       -0.000017465411     0.000026709360     0.000008627688
       4       -0.000010900657     0.000017766495    -0.000009379713
       5        0.000679679481     0.001186017907    -0.000440438280
       6        0.000010105091    -0.000007113533     0.000014784045
       7       -0.000000732452    -0.000022995016    -0.000021978043
       8       -0.000643868147    -0.001054311350    -0.000730132048
       9       -0.000450530523    -0.000817265885     0.000529207731
      10        0.000000952801    -0.000015159178    -0.000002520237
      11        0.000003096497     0.000004632733    -0.000059786947
      12        0.000402601319     0.000676636449     0.000697972391
      13        0.000013821272     0.000012862660     0.000000447040
      14        0.000005427719     0.000003169939     0.000024983280
      15       -0.000010532559     0.000001522374     0.000005992370
      16        0.000003295010     0.000023029777    -0.000013343908
      17        0.000010716911    -0.000019001456     0.000006367405
      18        0.000001116913    -0.000004566725     0.000007988097
      19        0.000005451358     0.000002212502    -0.000011870934

  **** Optimization is complete! (in 4 steps) ****
    Final optimized geometry and variables:
    Molecular point group: c1

    Geometry (in Angstrom), charge = 0, multiplicity = 1:

    H            3.890868569231     0.346595635232    -0.006715797418
    N            3.091039974901    -0.249794597759     0.009718846420
    C            1.861129767103     0.524504909895     0.064064321222
    H            3.178162388188    -0.836856022528     0.812881752310
    C            0.643737549876    -0.385245238581     0.003641631728
    H            1.851373871132     1.191747855105    -0.791168915903
    H            1.794667192464     1.153973204119     0.952592505590
    C           -0.679225356211     0.372923215334     0.056287946500
    H            0.697256006254    -0.983579502989    -0.900034266352
    H            0.685225633434    -1.088205342856     0.833672619125
    C           -1.899391268576    -0.523334753116    -0.132364463449
    H           -0.681250780465     1.150862119520    -0.704007324241
    H           -0.760573872283     0.889162909973     1.010238213179
    C           -3.219413352357     0.236333490987    -0.055828816068
    H           -1.828591069396    -1.027108149909    -1.092176654866
    H           -1.889731661922    -1.305016581798     0.622439086718
    H           -3.273893070746     1.003792883693    -0.820843242870
    H           -4.064216300024    -0.428600224036    -0.194481302412
    H           -3.336165388434     0.722765827010     0.906977290829

  Mulliken Charges: (a.u.)
   Center  Symbol    Alpha    Beta     Spin     Total
       1     H     0.43025  0.43025  0.00000  0.13950
       2     N     3.68907  3.68907  0.00000 -0.37815
       3     C     3.02712  3.02712  0.00000 -0.05425
       4     H     0.43096  0.43096  0.00000  0.13807
       5     C     3.08136  3.08136  0.00000 -0.16271
       6     H     0.45689  0.45689  0.00000  0.08623
       7     H     0.46859  0.46859  0.00000  0.06283
       8     C     3.09346  3.09346  0.00000 -0.18692
       9     H     0.44935  0.44935  0.00000  0.10130
      10     H     0.46010  0.46010  0.00000  0.07980
      11     C     3.08314  3.08314  0.00000 -0.16627
      12     H     0.45547  0.45547  0.00000  0.08907
      13     H     0.45647  0.45647  0.00000  0.08705
      14     C     3.14984  3.14984  0.00000 -0.29967
      15     H     0.45364  0.45364  0.00000  0.09271
      16     H     0.45491  0.45491  0.00000  0.09017
      17     H     0.45521  0.45521  0.00000  0.08958
      18     H     0.44854  0.44854  0.00000  0.10292
      19     H     0.45563  0.45563  0.00000  0.08874

   Total alpha = 25.00000, Total beta = 25.00000, Total charge =  0.00000

*** Psi4 exiting successfully. Buy a developer a beer!
