                              Psi4 1.0.54 Driver

  ==> Input File <==

--------------------------------------------------------------------------
set {
	reference rhf
	basis cc-pvtz
}

set_num_threads( 4 )
memory 2 gb

molecule MOL {
0 1

H	 2.176198	 -0.647276	 -0.247937
O	 1.342438	 -0.550768	 0.172984
C	 0.700177	 0.619554	 -0.266242
C	 -0.713111	 0.588314	 0.266177
H	 0.678228	 0.660360	 -1.351036
H	 1.210217	 1.504849	 0.104554
O	 -1.421673	 -0.521378	 -0.196983
H	 -1.244794	 1.469161	 -0.069059
H	 -0.685100	 0.604721	 1.352683
H	 -0.933408	 -1.297830	 0.014544

	symmetry c1
}
set optking {
	frozen_dihedral = ("
		5 3 4 7
	")
}

ee,wfn = optimize('scf', return_wfn=True)
oeprop( wfn, 'DIPOLE', 'QUADRUPOLE', 'MULLIKEN_CHARGES')
f=open( 'psi4out.xyz', 'w' )
f.write( "10  " )
f.write( str(ee) + "\n" )
f.write( MOL.save_string_xyz() )
f.close()
--------------------------------------------------------------------------

    Molecular point group: c1
  Charge       = 0
  Multiplicity = 1
  Basis Set: CC-PVTZ
  Basis Set:
  @DF-RHF Final Energy:  -229.02887239592800
    Total Energy =                       -229.0288723959280901
    Molecular point group: c1
  Basis Set: CC-PVTZ
  Basis Set:
  Basis Set: CC-PVTZ
  Basis Set:
  @DF-RHF Final Energy:  -229.02887770789511
    Total Energy =                       -229.0288777078951625
  Basis Set: CC-PVTZ
  Basis Set:
  Charge       = 0
  Multiplicity = 1
  Basis Set: CC-PVTZ
  Basis Set:

    Orbital Energies (a.u.)
    -----------------------

    Doubly Occupied:

       1A    -20.561231     2A    -20.542270     3A    -11.274136
       4A    -11.266805     5A     -1.385701     6A     -1.355785
       7A     -1.003842     8A     -0.844993     9A     -0.730279
      10A     -0.682352    11A     -0.651520    12A     -0.606683
      13A     -0.577971    14A     -0.534601    15A     -0.492806
      16A     -0.456199    17A     -0.436260

  @DF-RHF Final Energy:  -229.02887957686193

   => Energetics <=

    Nuclear Repulsion Energy =            134.6126212190307001
    One-Electron Energy =                -580.4761314804810581
    Two-Electron Energy =                 216.8346306845884328
    DFT Exchange-Correlation Energy =       0.0000000000000000
    Empirical Dispersion Energy =           0.0000000000000000
    PCM Polarization Energy =               0.0000000000000000
    EFP Energy =                            0.0000000000000000
    Total Energy =                       -229.0288795768619252
    Molecular point group: c1
  Basis Set: CC-PVTZ
  Basis Set:

  -Total Gradient:
     Atom            X                  Y                   Z
    ------   -----------------  -----------------  -----------------
       1       -0.000007217874     0.000019019725    -0.000012105290
       2       -0.000003314171    -0.000070066866     0.000040821171
       3        0.000060109087    -0.000729801551     0.000058402826
       4       -0.000188666606     0.000479611737    -0.000501651178
       5        0.000004106359     0.000591802569     0.000051579841
       6        0.000006460968    -0.000003248051    -0.000015839678
       7        0.000113726878    -0.000290555551     0.000373414699
       8        0.000014609052     0.000002881308     0.000009751599
       9       -0.000002653049     0.000001166217     0.000000710660
      10        0.000002839355    -0.000000809537    -0.000005084651

  **** Optimization is complete! (in 3 steps) ****
    Final optimized geometry and variables:
    Molecular point group: c1

    Geometry (in Angstrom), charge = 0, multiplicity = 1:

    H            2.181625644070    -0.641309462445    -0.235764498013
    O            1.347421609160    -0.544388022966     0.184194193119
    C            0.703511819158     0.622659251990    -0.259806322030
    C           -0.709487187128     0.593963406050     0.274993761047
    H            0.681709568839     0.662389917715    -1.344679633392
    H            1.212713101962     1.510325441527     0.106893353294
    O           -1.420557593348    -0.514957410771    -0.185680031077
    H           -1.239794032153     1.476656406324    -0.057529070989
    H           -0.678919538355     0.609127822331     1.361582807895
    H           -0.925465919083    -1.290726905990     0.012244133334

  Mulliken Charges: (a.u.)
   Center  Symbol    Alpha    Beta     Spin     Total
       1     H     0.39072  0.39072  0.00000  0.21857
       2     O     4.20701  4.20701  0.00000 -0.41401
       3     C     2.97312  2.97312  0.00000  0.05376
       4     C     2.96362  2.96362  0.00000  0.07275
       5     H     0.46956  0.46956  0.00000  0.06088
       6     H     0.47203  0.47203  0.00000  0.05594
       7     O     4.20967  4.20967  0.00000 -0.41933
       8     H     0.45852  0.45852  0.00000  0.08297
       9     H     0.47057  0.47057  0.00000  0.05886
      10     H     0.38519  0.38519  0.00000  0.22962

   Total alpha = 17.00000, Total beta = 17.00000, Total charge =  0.00000

*** Psi4 exiting successfully. Buy a developer a beer!
