  ==> Input File <==

--------------------------------------------------------------------------
set {
	reference rhf
	basis 6-31G*
}

set_num_threads( 4 )
memory 2 gb

molecule MOL {
0 1

O	 1.218092	 1.301238	 0.112748
C	 1.122059	 0.121804	 -0.000188
C	 -0.170150	 -0.657997	 -0.000612
O	 2.168313	 -0.681706	 -0.144062
C	 -1.412532	 0.227344	 -0.000452
H	 -0.153702	 -1.313099	 -0.867402
H	 -0.153924	 -1.313811	 0.865644
C	 -2.706999	 -0.587347	 -0.000541
H	 -1.388000	 0.879466	 -0.868000
H	 -1.387972	 0.879138	 0.867341
C	 -3.956778	 0.291888	 0.000910
H	 -2.726114	 -1.239230	 -0.871609
H	 -2.725217	 -1.240844	 0.869333
H	 -3.985213	 0.933254	 -0.875158
H	 -4.860123	 -0.309979	 0.000519
H	 -3.984618	 0.931166	 0.878514
C	 3.447466	 -0.074546	 -0.160312
H	 3.526759	 0.622688	 -0.981936
H	 4.154802	 -0.879792	 -0.283613
H	 3.632182	 0.447416	 0.767558

	symmetry c1
}
set optking {
	frozen_dihedral = ("
		1 2 3 6
	")
}

ee = optimize('scf')
oeprop('DIPOLE', 'QUADRUPOLE', 'MULLIKEN_CHARGES')
f=open( 'psi4out.xyz', 'w' )
f.write( "20  " )
f.write( str(ee) + "\n" )
f.write( MOL.save_string_xyz() )
f.close()
--------------------------------------------------------------------------

    Molecular point group: c1
  Charge       = 0
  Multiplicity = 1
  Basis Set: 6-31G*
  Basis Set:
  @DF-RHF Final Energy:  -383.94154485797145
    Total Energy =                       -383.9415448579717349
    Molecular point group: c1
  Basis Set: 6-31G*
  Basis Set:
  Basis Set: 6-31G*
  Basis Set:
  @DF-RHF Final Energy:  -383.94136950364503
    Total Energy =                       -383.9413695036449781
  Basis Set: 6-31G*
  Basis Set:
  Basis Set: 6-31G*
  Basis Set:
  @DF-RHF Final Energy:  -383.94156002548704
    Total Energy =                       -383.9415600254869787
  Basis Set: 6-31G*
  Basis Set:
  Basis Set: 6-31G*
  Basis Set:
  @DF-RHF Final Energy:  -383.94156379539299
    Total Energy =                       -383.9415637953928808
  Basis Set: 6-31G*
  Basis Set:
  Charge       = 0
  Multiplicity = 1
  Basis Set: 6-31G*
  Basis Set:

    Orbital Energies (a.u.)
    -----------------------

    Doubly Occupied:

       1A    -20.603836     2A    -20.545496     3A    -11.372433
       4A    -11.280951     5A    -11.235714     6A    -11.220392
       7A    -11.219453     8A    -11.210708     9A     -1.469489
      10A     -1.362895    11A     -1.088802    12A     -1.024453
      13A     -0.969172    14A     -0.885940    15A     -0.804083
      16A     -0.767701    17A     -0.696811    18A     -0.683767
      19A     -0.672026    20A     -0.646143    21A     -0.597530
      22A     -0.592081    23A     -0.578852    24A     -0.539784
      25A     -0.537204    26A     -0.522856    27A     -0.500630
      28A     -0.478290    29A     -0.473589    30A     -0.470615
      31A     -0.455870    32A     -0.436972

  @DF-RHF Final Energy:  -383.94156382194222

   => Energetics <=

    Nuclear Repulsion Energy =            381.0675198501560885
    One-Electron Energy =               -1278.1290908769424277
    Two-Electron Energy =                 513.1200072048442280
    DFT Exchange-Correlation Energy =       0.0000000000000000
    Empirical Dispersion Energy =           0.0000000000000000
    PCM Polarization Energy =               0.0000000000000000
    EFP Energy =                            0.0000000000000000
    Total Energy =                       -383.9415638219421680
    Molecular point group: c1
  Basis Set: 6-31G*
  Basis Set:

  -Total Gradient:
     Atom            X                  Y                   Z
    ------   -----------------  -----------------  -----------------
       1        0.000016211445    -0.000032843200     0.000271427721
       2       -0.000002323140     0.000006298254    -0.000399662510
       3       -0.000123614718     0.000216929514     0.000000933673
       4       -0.000004682248    -0.000000173362    -0.000024883402
       5        0.000000441034    -0.000001158652    -0.000038870206
       6        0.000119056424    -0.000169184634     0.000134071938
       7       -0.000007805851    -0.000014215116     0.000002702526
       8        0.000000708885    -0.000000666052     0.000021668163
       9       -0.000003556411     0.000008111890     0.000009861811
      10        0.000005250069    -0.000010415187     0.000006815497
      11       -0.000000112012     0.000000397624    -0.000017815392
      12        0.000006899069    -0.000001807144     0.000006219594
      13       -0.000007029096     0.000001341086     0.000006262092
      14       -0.000001077098     0.000005422156     0.000001114017
      15       -0.000000029391     0.000000031992    -0.000005680417
      16        0.000000881971    -0.000005391938     0.000000491190
      17        0.000000393000    -0.000007084888     0.000058840840
      18       -0.000013957053     0.000000643158    -0.000011067071
      19        0.000000588139     0.000001689560    -0.000010110158
      20        0.000013756984     0.000002074940    -0.000012319906

  **** Optimization is complete! (in 5 steps) ****
    Final optimized geometry and variables:
    Molecular point group: c1

    Geometry (in Angstrom), charge = 0, multiplicity = 1:

    O            1.217735236998     1.300842826947     0.123019992283
    C            1.122481862221     0.121259093704     0.010713158274
    C           -0.169588923631    -0.658773052536     0.009921898823
    O            2.169988635725    -0.682861225409    -0.119724806163
    C           -1.412246985110     0.226120044449     0.022019693927
    H           -0.157984096964    -1.316151523323    -0.854382978922
    H           -0.147640471342    -1.312976136868     0.878122135963
    C           -2.706416044972    -0.588927683920     0.033732180307
    H           -1.396798777661     0.878019674605    -0.846375846064
    H           -1.378932672572     0.877993182507     0.889010880983
    C           -3.956414374243     0.289957897680     0.041362199605
    H           -2.731725378539    -1.243848169659    -0.834860436346
    H           -2.717987303519    -1.239346531431     0.906039996907
    H           -3.991483443675     0.928375263841    -0.836639336880
    H           -4.859556043909    -0.312166634778     0.049518804426
    H           -3.977975280019     0.932148560726     0.917004846701
    C            3.449777969910    -0.076842924231    -0.115377930002
    H            3.541575676323     0.622550749350    -0.933847085147
    H            4.158124890131    -0.882397218415    -0.230629239378
    H            3.621461633656     0.442433861281     0.816507779470

  Mulliken Charges: (a.u.)
   Center  Symbol    Alpha    Beta     Spin     Total
       1     O     4.28602  4.28602  0.00000 -0.57203
       2     C     2.60513  2.60513  0.00000  0.78975
       3     C     3.20826  3.20826  0.00000 -0.41653
       4     O     4.30720  4.30720  0.00000 -0.61441
       5     C     3.15126  3.15126  0.00000 -0.30252
       6     H     0.40081  0.40081  0.00000  0.19839
       7     H     0.40050  0.40050  0.00000  0.19899
       8     C     3.15423  3.15423  0.00000 -0.30845
       9     H     0.41336  0.41336  0.00000  0.17328
      10     H     0.41046  0.41046  0.00000  0.17907
      11     C     3.23932  3.23932  0.00000 -0.47864
      12     H     0.42296  0.42296  0.00000  0.15408
      13     H     0.42289  0.42289  0.00000  0.15421
      14     H     0.42008  0.42008  0.00000  0.15985
      15     H     0.41873  0.41873  0.00000  0.16255
      16     H     0.41984  0.41984  0.00000  0.16032
      17     C     3.09248  3.09248  0.00000 -0.18497
      18     H     0.40892  0.40892  0.00000  0.18217
      19     H     0.40841  0.40841  0.00000  0.18319
      20     H     0.40916  0.40916  0.00000  0.18169

   Total alpha = 32.00000, Total beta = 32.00000, Total charge =  0.00000
