  ==> Input File <==

--------------------------------------------------------------------------
set {
	reference rhf
	basis 6-31G*
}

set_num_threads( 4 )
memory 2 gb

molecule MOL {
0 1

H	 -4.026422	 1.139306	 -0.734077
O	 -3.310115	 0.568053	 -0.971727
C	 -2.199155	 0.839386	 -0.156412
C	 -1.072346	 -0.093193	 -0.564268
H	 -1.884801	 1.876029	 -0.269811
H	 -2.447747	 0.687026	 0.893030
C	 0.198102	 0.111031	 0.262842
H	 -0.862247	 0.065112	 -1.618558
H	 -1.423283	 -1.116768	 -0.466225
C	 1.331804	 -0.827780	 -0.158768
H	 0.520988	 1.145314	 0.172415
H	 -0.024478	 -0.049999	 1.316904
C	 2.723619	 -0.410569	 0.329459
H	 1.342964	 -0.912588	 -1.244120
H	 1.116806	 -1.824343	 0.220779
C	 3.243875	 0.895854	 -0.272975
H	 3.424222	 -1.207124	 0.091250
H	 2.714788	 -0.329854	 1.414619
H	 3.251977	 0.848779	 -1.358681
H	 2.637085	 1.747371	 0.016682
H	 4.259473	 1.094070	 0.055697

	symmetry c1
}
set optking {
	frozen_dihedral = ("
		4 7 10 14
	")
}

ee = optimize('scf')
oeprop('DIPOLE', 'QUADRUPOLE', 'MULLIKEN_CHARGES')
f=open( 'psi4out.xyz', 'w' )
f.write( "21  " )
f.write( str(ee) + "\n" )
f.write( MOL.save_string_xyz() )
f.close()
--------------------------------------------------------------------------

    Molecular point group: c1
  Charge       = 0
  Multiplicity = 1
  Basis Set: 6-31G*
  Basis Set:
  @DF-RHF Final Energy:  -310.21136582991977
    Total Energy =                       -310.2113658299198846
    Molecular point group: c1
  Basis Set: 6-31G*
  Basis Set:
  Basis Set: 6-31G*
  Basis Set:
  @DF-RHF Final Energy:  -310.21140696660842
    Total Energy =                       -310.2114069666085925
  Basis Set: 6-31G*
  Basis Set:
  Basis Set: 6-31G*
  Basis Set:
  @DF-RHF Final Energy:  -310.21163769449856
    Total Energy =                       -310.2116376944985063
  Basis Set: 6-31G*
  Basis Set:
  Basis Set: 6-31G*
  Basis Set:
  @DF-RHF Final Energy:  -310.21165397625185
    Total Energy =                       -310.2116539762519665
  Basis Set: 6-31G*
  Basis Set:
  Basis Set: 6-31G*
  Basis Set:
  @DF-RHF Final Energy:  -310.21165821669825
    Total Energy =                       -310.2116582166981971
  Basis Set: 6-31G*
  Basis Set:
  Basis Set: 6-31G*
  Basis Set:
  @DF-RHF Final Energy:  -310.21165944622379
    Total Energy =                       -310.2116594462238481
  Basis Set: 6-31G*
  Basis Set:
  Charge       = 0
  Multiplicity = 1
  Basis Set: 6-31G*
  Basis Set:

    Orbital Energies (a.u.)
    -----------------------

    Doubly Occupied:

       1A    -20.551817     2A    -11.267007     3A    -11.215615
       4A    -11.215438     5A    -11.213474     6A    -11.210735
       7A    -11.208110     8A     -1.358635     9A     -1.085729
      10A     -1.033220    11A     -0.954591    12A     -0.875145
      13A     -0.806495    14A     -0.780765    15A     -0.692505
      16A     -0.661132    17A     -0.617867    18A     -0.612077
      19A     -0.586608    20A     -0.564996    21A     -0.540966
      22A     -0.520665    23A     -0.506393    24A     -0.488005
      25A     -0.480164    26A     -0.461685    27A     -0.453883
      28A     -0.443029    29A     -0.434002

  @DF-RHF Final Energy:  -310.21165946704923

   => Energetics <=

    Nuclear Repulsion Energy =            312.5854547062500615
    One-Electron Energy =               -1039.9127209159019003
    Two-Electron Energy =                 417.1156067426028926
    DFT Exchange-Correlation Energy =       0.0000000000000000
    Empirical Dispersion Energy =           0.0000000000000000
    PCM Polarization Energy =               0.0000000000000000
    EFP Energy =                            0.0000000000000000
    Total Energy =                       -310.2116594670489462
    Molecular point group: c1
  Basis Set: 6-31G*
  Basis Set:

  -Total Gradient:
     Atom            X                  Y                   Z
    ------   -----------------  -----------------  -----------------
       1        0.000001404055     0.000000454250     0.000000919322
       2        0.000004099343    -0.000001457564    -0.000001232634
       3       -0.000000615537    -0.000003272391     0.000007132149
       4        0.000723144101     0.001562172788    -0.001473858768
       5       -0.000000911792    -0.000001159239    -0.000002236979
       6        0.000000115351     0.000001424719     0.000001830169
       7       -0.001458717367    -0.002755287133     0.002057990015
       8       -0.000001668802     0.000003235660    -0.000000640103
       9       -0.000001268296    -0.000000788342    -0.000003680398
      10        0.002664511907     0.003633446740    -0.000702652619
      11        0.000008144030     0.000005965071    -0.000001350101
      12        0.000001846693    -0.000001672713    -0.000001623379
      13        0.000004750152    -0.000001054271    -0.000017376305
      14       -0.001933769739    -0.002436719345     0.000129724459
      15        0.000003918801    -0.000004874648    -0.000001591695
      16       -0.000005979026     0.000001012051     0.000009008772
      17       -0.000000940135    -0.000008990700     0.000003511155
      18       -0.000004417904     0.000008953446    -0.000006811725
      19       -0.000003963514    -0.000003639019     0.000002455188
      20       -0.000001832323     0.000005686281     0.000000033045
      21        0.000002150004    -0.000003435640     0.000000450430

  **** Optimization is complete! (in 7 steps) ****
    Final optimized geometry and variables:
    Molecular point group: c1

    Geometry (in Angstrom), charge = 0, multiplicity = 1:

    H           -4.126849959617     0.906996295841    -0.462233359513
    O           -3.391807476747     0.375336031607    -0.732348192394
    C           -2.295173496652     0.622948362684     0.109491643157
    C           -1.137903562250    -0.245358025958    -0.351115294818
    H           -2.011476975192     1.673889675746     0.069957347938
    H           -2.546179411644     0.391747658182     1.143773893621
    C            0.126660839303    -0.045996898176     0.485954166060
    H           -0.931271828740    -0.016841224665    -1.392721433965
    H           -1.455213801681    -1.284401147666    -0.316512544310
    C            1.271769446327    -0.973158378949     0.060061980638
    H            0.437743397257     0.992558264189     0.400847046972
    H           -0.091447300334    -0.211276657707     1.539457413971
    C            2.653416227986    -0.575799705809     0.590807140212
    H            1.297388196657    -1.048448613767    -1.025503680776
    H            1.040992954917    -1.977495228195     0.409769255224
    C            3.249571219416     0.670245973951    -0.066867361231
    H            3.336171810824    -1.407692263118     0.437319961098
    H            2.595886355397    -0.426742433554     1.667338044903
    H            3.340607666508     0.535867395829    -1.141184907024
    H            2.643330325231     1.553508012607     0.104938787122
    H            4.241094903388     0.875923370260     0.324840960110

  Mulliken Charges: (a.u.)
   Center  Symbol    Alpha    Beta     Spin     Total
       1     H     0.28118  0.28118  0.00000  0.43764
       2     O     4.37177  4.37177  0.00000 -0.74354
       3     C     2.98986  2.98986  0.00000  0.02028
       4     C     3.15963  3.15963  0.00000 -0.31927
       5     H     0.43300  0.43300  0.00000  0.13400
       6     H     0.43279  0.43279  0.00000  0.13443
       7     C     3.16167  3.16167  0.00000 -0.32334
       8     H     0.41430  0.41430  0.00000  0.17140
       9     H     0.41510  0.41510  0.00000  0.16981
      10     C     3.15299  3.15299  0.00000 -0.30599
      11     H     0.42228  0.42228  0.00000  0.15545
      12     H     0.42292  0.42292  0.00000  0.15416
      13     C     3.15320  3.15320  0.00000 -0.30640
      14     H     0.42216  0.42216  0.00000  0.15568
      15     H     0.42090  0.42090  0.00000  0.15820
      16     C     3.24038  3.24038  0.00000 -0.48077
      17     H     0.42050  0.42050  0.00000  0.15900
      18     H     0.42349  0.42349  0.00000  0.15302
      19     H     0.42148  0.42148  0.00000  0.15703
      20     H     0.42107  0.42107  0.00000  0.15787
      21     H     0.41933  0.41933  0.00000  0.16134

   Total alpha = 29.00000, Total beta = 29.00000, Total charge = -0.00000
