                              Psi4 1.0.54 Driver

  ==> Input File <==

--------------------------------------------------------------------------
set {
	reference rhf
	basis cc-pvtz
}

set_num_threads( 4 )
memory 2 gb

molecule MOL {
0 1

H	 -3.322090	 -2.575747	 0.778630
O	 -2.968324	 -1.893282	 0.238920
C	 -1.712269	 -1.497315	 0.722605
C	 -1.175688	 -0.398187	 -0.171891
H	 -1.794965	 -1.135452	 1.745342
H	 -1.023600	 -2.339654	 0.728036
C	 0.196029	 0.106276	 0.266738
H	 -1.889179	 0.419813	 -0.176937
H	 -1.127082	 -0.775291	 -1.188428
C	 1.330220	 -0.826136	 -0.155230
H	 0.359542	 1.097229	 -0.145561
H	 0.212134	 0.218135	 1.348778
C	 2.719700	 -0.407669	 0.328325
H	 1.339388	 -0.911200	 -1.239363
H	 1.119001	 -1.821953	 0.224128
C	 3.241564	 0.893452	 -0.276737
H	 3.418299	 -1.204729	 0.093035
H	 2.711776	 -0.323368	 1.411960
H	 3.254204	 0.841071	 -1.360784
H	 2.634460	 1.745075	 0.005842
H	 4.254264	 1.092401	 0.054971

	symmetry c1
}
set optking {
	frozen_dihedral = ("
		8 4 7 10
	")
}

ee,wfn = optimize('scf', return_wfn=True)
oeprop( wfn, 'DIPOLE', 'QUADRUPOLE', 'MULLIKEN_CHARGES')
f=open( 'psi4out.xyz', 'w' )
f.write( "21  " )
f.write( str(ee) + "\n" )
f.write( MOL.save_string_xyz() )
f.close()
--------------------------------------------------------------------------

    Molecular point group: c1
  Charge       = 0
  Multiplicity = 1
  Basis Set: CC-PVTZ
  Basis Set:
  @DF-RHF Final Energy:  -310.33045782710360
    Total Energy =                       -310.3304578271038281
    Molecular point group: c1
  Basis Set: CC-PVTZ
  Basis Set:
  Basis Set: CC-PVTZ
  Basis Set:
  @DF-RHF Final Energy:  -310.33073453001452
    Total Energy =                       -310.3307345300145244
  Basis Set: CC-PVTZ
  Basis Set:
  Basis Set: CC-PVTZ
  Basis Set:
  @DF-RHF Final Energy:  -310.33077203390332
    Total Energy =                       -310.3307720339031448
  Basis Set: CC-PVTZ
  Basis Set:
  Basis Set: CC-PVTZ
  Basis Set:
  @DF-RHF Final Energy:  -310.33076796334745
    Total Energy =                       -310.3307679633472276
  Basis Set: CC-PVTZ
  Basis Set:
  Charge       = 0
  Multiplicity = 1
  Basis Set: CC-PVTZ
  Basis Set:

    Orbital Energies (a.u.)
    -----------------------

    Doubly Occupied:

       1A    -20.545227     2A    -11.264619     3A    -11.213865
       4A    -11.213288     5A    -11.211889     6A    -11.209114
       7A    -11.206199     8A     -1.362990     9A     -1.087176
      10A     -1.033181    11A     -0.953021    12A     -0.882672
      13A     -0.810600    14A     -0.774523    15A     -0.698293
      16A     -0.649687    17A     -0.633420    18A     -0.609810
      19A     -0.586445    20A     -0.568040    21A     -0.541547
      22A     -0.521001    23A     -0.514401    24A     -0.492441
      25A     -0.477690    26A     -0.460514    27A     -0.452574
      28A     -0.448502    29A     -0.432570

  @DF-RHF Final Energy:  -310.33077580714627

   => Energetics <=

    Nuclear Repulsion Energy =            315.5967303487537379
    One-Electron Energy =               -1046.1444136036172949
    Two-Electron Energy =                 420.2169074477171762
    DFT Exchange-Correlation Energy =       0.0000000000000000
    Empirical Dispersion Energy =           0.0000000000000000
    PCM Polarization Energy =               0.0000000000000000
    EFP Energy =                            0.0000000000000000
    Total Energy =                       -310.3307758071464377
    Molecular point group: c1
  Basis Set: CC-PVTZ
  Basis Set:

  -Total Gradient:
     Atom            X                  Y                   Z
    ------   -----------------  -----------------  -----------------
       1       -0.000035344246    -0.000009243597    -0.000008842468
       2       -0.000008556710    -0.000045828350     0.000027884152
       3       -0.000000512455     0.000022939121    -0.000022514371
       4       -0.000245995451    -0.000106585167     0.001129910329
       5        0.000002582297    -0.000002669484     0.000006296594
       6       -0.000012486061     0.000026207057    -0.000006658099
       7       -0.000052644126    -0.000551423225     0.000789607542
       8        0.000283664233     0.000223439150    -0.001146595643
       9        0.000012812906    -0.000000158930     0.000009334287
      10        0.000052693786     0.000447723295    -0.000741260804
      11        0.000011437547     0.000016080197    -0.000009163104
      12       -0.000010954488    -0.000014648331    -0.000006923861
      13       -0.000023161092    -0.000001453501    -0.000014190059
      14       -0.000006679626     0.000003614951    -0.000008227888
      15       -0.000009383321    -0.000012885132    -0.000000130965
      16        0.000019098362     0.000015465373    -0.000009761932
      17        0.000043995293    -0.000036880965    -0.000002753058
      18       -0.000012965496     0.000000317753     0.000021443335
      19        0.000004910036    -0.000000204783    -0.000015476861
      20       -0.000017758496     0.000024654462     0.000012276577
      21        0.000005247101     0.000001540110    -0.000004253704

  **** Optimization is complete! (in 5 steps) ****
    Final optimized geometry and variables:
    Molecular point group: c1

    Geometry (in Angstrom), charge = 0, multiplicity = 1:

    H           -3.553549480303    -1.934937577004     0.614490881542
    O           -3.178973061334    -1.255449234873     0.085238127664
    C           -1.917283865077    -0.895014675017     0.583111710307
    C           -1.349423499830     0.195868672596    -0.304583892515
    H           -2.001851759970    -0.528133350620     1.603988566922
    H           -1.257997456282    -1.758406103330     0.598707986171
    C            0.038987266677     0.684462330939     0.117925918620
    H           -2.047070381928     1.025966269304    -0.303659546851
    H           -1.317918321096    -0.171928757424    -1.325442122553
    C            1.181957058428    -0.243424445942    -0.297340520804
    H            0.200293605874     1.662591896030    -0.319745672801
    H            0.062688918978     0.830460424318     1.195920578823
    C            2.566422980232     0.195005172428     0.184527472874
    H            1.190868667672    -0.327702063156    -1.381433376901
    H            0.993110779351    -1.243140948187     0.081067702025
    C            3.068727201200     1.504744836003    -0.418648573190
    H            3.276463805420    -0.591243391780    -0.053354867286
    H            2.559110745959     0.277318669524     1.268370184410
    H            3.076347734367     1.456249438146    -1.502914399521
    H            2.453170276559     2.347987096634    -0.129774249107
    H            4.080724497831     1.714425792581    -0.091496852532

  Mulliken Charges: (a.u.)
   Center  Symbol    Alpha    Beta     Spin     Total
       1     H     0.39732  0.39732  0.00000  0.20536
       2     O     4.19484  4.19484  0.00000 -0.38968
       3     C     2.95955  2.95955  0.00000  0.08091
       4     C     3.09182  3.09182  0.00000 -0.18364
       5     H     0.47469  0.47469  0.00000  0.05063
       6     H     0.47452  0.47452  0.00000  0.05096
       7     C     3.11315  3.11315  0.00000 -0.22629
       8     H     0.44546  0.44546  0.00000  0.10908
       9     H     0.45190  0.45190  0.00000  0.09619
      10     C     3.09484  3.09484  0.00000 -0.18968
      11     H     0.44394  0.44394  0.00000  0.11212
      12     H     0.45517  0.45517  0.00000  0.08966
      13     C     3.08921  3.08921  0.00000 -0.17842
      14     H     0.45276  0.45276  0.00000  0.09448
      15     H     0.44986  0.44986  0.00000  0.10028
      16     C     3.15265  3.15265  0.00000 -0.30529
      17     H     0.44872  0.44872  0.00000  0.10256
      18     H     0.45496  0.45496  0.00000  0.09007
      19     H     0.45450  0.45450  0.00000  0.09100
      20     H     0.45362  0.45362  0.00000  0.09275
      21     H     0.44654  0.44654  0.00000  0.10693

   Total alpha = 29.00000, Total beta = 29.00000, Total charge = -0.00000

*** Psi4 exiting successfully. Buy a developer a beer!
