  ==> Input File <==

--------------------------------------------------------------------------
set {
	reference rhf
	basis cc-pvtz
}

set_num_threads( 4 )
memory 2 gb

molecule MOL {
0 1

H	 -2.653840	 0.613891	 -0.734347
C	 -1.895279	 1.131199	 -1.306361
C	 -0.607369	 0.324235	 -1.360314
H	 -1.731981	 2.092019	 -0.836922
H	 -2.275737	 1.299043	 -2.306853
C	 0.000000	 0.039916	 0.000014
H	 0.144089	 0.835381	 -1.956080
H	 -0.769724	 -0.629905	 -1.854430
C	 1.286532	 -0.763243	 0.000268
O	 -0.502101	 0.423546	 1.005550
C	 2.547023	 0.087626	 -0.000114
H	 1.264245	 -1.421103	 -0.864380
H	 1.264290	 -1.420353	 0.865489
H	 2.584452	 0.725630	 -0.872909
H	 3.427035	 -0.544422	 0.000125
H	 2.584484	 0.726356	 0.872143

	symmetry c1
}
set optking {
	frozen_dihedral = ("
		3 6 9 12
	")
}

ee = optimize('scf')
oeprop('DIPOLE', 'QUADRUPOLE', 'MULLIKEN_CHARGES')
f=open( 'psi4out.xyz', 'w' )
f.write( "16  " )
f.write( str(ee) + "\n" )
f.write( MOL.save_string_xyz() )
f.close()
--------------------------------------------------------------------------

    Molecular point group: c1
  Charge       = 0
  Multiplicity = 1
  Basis Set: CC-PVTZ
  Basis Set:
  @DF-RHF Final Energy:  -270.12902871069758
    Total Energy =                       -270.1290287106974688
    Molecular point group: c1
  Basis Set: CC-PVTZ
  Basis Set:
  Basis Set: CC-PVTZ
  Basis Set:
  @DF-RHF Final Energy:  -270.12948691834913
    Total Energy =                       -270.1294869183492438
  Basis Set: CC-PVTZ
  Basis Set:
  Basis Set: CC-PVTZ
  Basis Set:
  @DF-RHF Final Energy:  -270.12835296733556
    Total Energy =                       -270.1283529673357293
  Basis Set: CC-PVTZ
  Basis Set:
  Basis Set: CC-PVTZ
  Basis Set:
  @DF-RHF Final Energy:  -270.12992523868616
    Total Energy =                       -270.1299252386860985
  Basis Set: CC-PVTZ
  Basis Set:
  Basis Set: CC-PVTZ
  Basis Set:
  @DF-RHF Final Energy:  -270.12994110151146
    Total Energy =                       -270.1299411015112923
  Basis Set: CC-PVTZ
  Basis Set:
  Basis Set: CC-PVTZ
  Basis Set:
  @DF-RHF Final Energy:  -270.12994210159354
    Total Energy =                       -270.1299421015932012
  Basis Set: CC-PVTZ
  Basis Set:
  Charge       = 0
  Multiplicity = 1
  Basis Set: CC-PVTZ
  Basis Set:

    Orbital Energies (a.u.)
    -----------------------

    Doubly Occupied:

       1A    -20.537527     2A    -11.317118     3A    -11.232674
       4A    -11.230434     5A    -11.225740     6A    -11.211804
       7A     -1.397682     8A     -1.072641     9A     -1.037527
      10A     -0.912813    11A     -0.856598    12A     -0.727847
      13A     -0.665871    14A     -0.644680    15A     -0.625468
      16A     -0.603926    17A     -0.566958    18A     -0.540368
      19A     -0.533480    20A     -0.511938    21A     -0.503757
      22A     -0.499537    23A     -0.481037    24A     -0.398273

  @DF-RHF Final Energy:  -270.12994218610550

   => Energetics <=

    Nuclear Repulsion Energy =            241.0213230873844452
    One-Electron Energy =                -843.6311322289692498
    Two-Electron Energy =                 332.4798669554793378
    DFT Exchange-Correlation Energy =       0.0000000000000000
    Empirical Dispersion Energy =           0.0000000000000000
    PCM Polarization Energy =               0.0000000000000000
    EFP Energy =                            0.0000000000000000
    Total Energy =                       -270.1299421861054952
    Molecular point group: c1
  Basis Set: CC-PVTZ
  Basis Set:

  -Total Gradient:
     Atom            X                  Y                   Z
    ------   -----------------  -----------------  -----------------
       1       -0.000006295110     0.000000277199     0.000003010930
       2        0.000002728463     0.000000678415    -0.000002790196
       3        0.000144466337     0.000259416594     0.000004424860
       4        0.000001914940    -0.000005515929    -0.000000747334
       5        0.000000948235    -0.000001866711     0.000000767015
       6       -0.000269699225    -0.000454906641     0.000036937792
       7        0.000008510782     0.000000100787    -0.000000506683
       8       -0.000000411725     0.000006401207    -0.000005041366
       9        0.000281961042     0.000501743528    -0.000261001605
      10        0.000000863773     0.000004908833     0.000012607896
      11        0.000012792823     0.000004620845    -0.000003626288
      12       -0.000172001233    -0.000298779706     0.000214653643
      13        0.000001702449    -0.000010484535     0.000003335854
      14       -0.000001325006    -0.000002380896     0.000000923806
      15        0.000000599464     0.000002864404    -0.000000518890
      16       -0.000006756006    -0.000007077395    -0.000002429435

  **** Optimization is complete! (in 7 steps) ****
    Final optimized geometry and variables:
    Molecular point group: c1

    Geometry (in Angstrom), charge = 0, multiplicity = 1:

    H           -2.749104516469     0.569180001883    -0.407194447933
    C           -1.967662367544     1.000934403790    -1.017336665271
    C           -0.759379420764     0.080659414778    -1.084770544100
    H           -1.704193847576     1.955955520614    -0.581637462410
    H           -2.363946036662     1.176367158540    -2.010347028011
    C           -0.146265571693    -0.237634400664     0.263199014320
    H            0.017362022685     0.499468571393    -1.718563167257
    H           -1.023118451967    -0.870177780598    -1.542373668257
    C            1.165992015371    -0.998484657808     0.259304326690
    O           -0.651264608934     0.102678553042     1.283437681188
    C            2.359472243200    -0.038374503584     0.278054036564
    H            1.222540009537    -1.643455542186    -0.610459871037
    H            1.184397803425    -1.620201954688     1.144406582056
    H            2.371527122648     0.602619107843    -0.596196707024
    H            3.288897936490    -0.593404549077     0.292545615900
    H            2.326559446599     0.590890516344     1.158063656250

  Mulliken Charges: (a.u.)
   Center  Symbol    Alpha    Beta     Spin     Total
       1     H     0.44584  0.44584  0.00000  0.10832
       2     C     3.14113  3.14113  0.00000 -0.28225
       3     C     3.10607  3.10607  0.00000 -0.21214
       4     H     0.44952  0.44952  0.00000  0.10095
       5     H     0.45073  0.45073  0.00000  0.09855
       6     C     2.86207  2.86207  0.00000  0.27587
       7     H     0.44524  0.44524  0.00000  0.10953
       8     H     0.44489  0.44489  0.00000  0.11022
       9     C     3.09591  3.09591  0.00000 -0.19182
      10     O     4.17751  4.17751  0.00000 -0.35503
      11     C     3.14924  3.14924  0.00000 -0.29848
      12     H     0.44958  0.44958  0.00000  0.10083
      13     H     0.43859  0.43859  0.00000  0.12282
      14     H     0.45431  0.45431  0.00000  0.09137
      15     H     0.44604  0.44604  0.00000  0.10792
      16     H     0.44332  0.44332  0.00000  0.11335

   Total alpha = 24.00000, Total beta = 24.00000, Total charge = -0.00000
