  ==> Input File <==

--------------------------------------------------------------------------
set {
	reference rhf
	basis cc-pvtz
}

set_num_threads( 4 )
memory 2 gb

molecule MOL {
0 1

O	 1.130310	 -0.353870	 0.056580
C	 0.029490	 0.077183	 0.000078
C	 -1.232113	 -0.748027	 0.000015
O	 -0.240632	 1.369872	 -0.072174
C	 -2.501422	 0.088592	 -0.000052
H	 -1.188777	 -1.400384	 -0.865133
H	 -1.188857	 -1.400312	 0.865225
H	 -2.548170	 0.725504	 -0.873205
H	 -3.371613	 -0.556398	 -0.000040
H	 -2.548215	 0.725571	 0.873047
C	 0.855324	 2.262314	 -0.080605
H	 1.436069	 2.161402	 0.824263
H	 0.432991	 3.252020	 -0.143387
H	 1.493222	 2.074456	 -0.931511

	symmetry c1
}
set optking {
	frozen_dihedral = ("
		4 2 3 6
	")
}

ee = optimize('scf')
oeprop('DIPOLE', 'QUADRUPOLE', 'MULLIKEN_CHARGES')
f=open( 'psi4out.xyz', 'w' )
f.write( "14  " )
f.write( str(ee) + "\n" )
f.write( MOL.save_string_xyz() )
f.close()
--------------------------------------------------------------------------

    Molecular point group: c1
  Charge       = 0
  Multiplicity = 1
  Basis Set: CC-PVTZ
  Basis Set:
  @DF-RHF Final Energy:  -305.98371986238612
    Total Energy =                       -305.9837198623858399
    Molecular point group: c1
  Basis Set: CC-PVTZ
  Basis Set:
  Basis Set: CC-PVTZ
  Basis Set:
  @DF-RHF Final Energy:  -305.98469030898627
    Total Energy =                       -305.9846903089862167
  Basis Set: CC-PVTZ
  Basis Set:
  Basis Set: CC-PVTZ
  Basis Set:
  @DF-RHF Final Energy:  -305.98486961190849
    Total Energy =                       -305.9848696119087208
  Basis Set: CC-PVTZ
  Basis Set:
  Basis Set: CC-PVTZ
  Basis Set:
  @DF-RHF Final Energy:  -305.98501167077126
    Total Energy =                       -305.9850116707712004
  Basis Set: CC-PVTZ
  Basis Set:
  Basis Set: CC-PVTZ
  Basis Set:
  @DF-RHF Final Energy:  -305.98508944009933
    Total Energy =                       -305.9850894400992161
  Basis Set: CC-PVTZ
  Basis Set:
  Charge       = 0
  Multiplicity = 1
  Basis Set: CC-PVTZ
  Basis Set:

    Orbital Energies (a.u.)
    -----------------------

    Doubly Occupied:

       1A    -20.600316     2A    -20.529996     3A    -11.365679
       4A    -11.280127     5A    -11.237553     6A    -11.219264
       7A     -1.474273     8A     -1.364910     9A     -1.066934
      10A     -0.976338    11A     -0.888347    12A     -0.777487
      13A     -0.697032    14A     -0.686522    15A     -0.675004
      16A     -0.622373    17A     -0.587261    18A     -0.559067
      19A     -0.549566    20A     -0.524137    21A     -0.517749
      22A     -0.500344    23A     -0.457333    24A     -0.437069

  @DF-RHF Final Energy:  -305.98509382274665

   => Energetics <=

    Nuclear Repulsion Energy =            248.8479308099110767
    One-Electron Energy =                -910.4766935584041221
    Two-Electron Energy =                 355.6436689257463968
    DFT Exchange-Correlation Energy =       0.0000000000000000
    Empirical Dispersion Energy =           0.0000000000000000
    PCM Polarization Energy =               0.0000000000000000
    EFP Energy =                            0.0000000000000000
    Total Energy =                       -305.9850938227466486
    Molecular point group: c1
  Basis Set: CC-PVTZ
  Basis Set:

  -Total Gradient:
     Atom            X                  Y                   Z
    ------   -----------------  -----------------  -----------------
       1       -0.000014133107     0.000025011923    -0.000017224082
       2        0.000101835977    -0.000207055011    -0.000103000227
       3       -0.000083923000     0.000189206213    -0.000053057926
       4        0.000032947319     0.000186536169     0.000085074037
       5       -0.000013311410    -0.000022239994    -0.000000446988
       6        0.000051493388    -0.000105124723     0.000076928949
       7       -0.000013482143    -0.000035415037     0.000012684003
       8       -0.000003306774    -0.000007559102     0.000015439693
       9       -0.000028657740     0.000008106835    -0.000003613883
      10        0.000004270832    -0.000016754261    -0.000019425994
      11       -0.000034281511    -0.000031468285     0.000016051434
      12        0.000004634537     0.000009419481    -0.000002005294
      13       -0.000009238402     0.000001140749    -0.000002457700
      14        0.000005152034     0.000006195039    -0.000004946020

  **** Optimization is complete! (in 6 steps) ****
    Final optimized geometry and variables:
    Molecular point group: c1

    Geometry (in Angstrom), charge = 0, multiplicity = 1:

    O            1.415235446460    -0.838371780111     0.079372730044
    C            0.329666620497    -0.368147876521     0.018065813259
    C           -0.930180990833    -1.203946156552     0.014428633156
    O            0.109204306078     0.930578416901    -0.058653266605
    C           -2.255696750011    -0.455033951426     0.018314094007
    H           -0.853086788472    -1.847771045997    -0.854412355080
    H           -0.851681733812    -1.859360737345     0.873402359397
    H           -2.358094785836     0.174978474709    -0.854976571720
    H           -3.074801644446    -1.163886624280     0.021137102761
    H           -2.352510399867     0.174065390142     0.893401301582
    C            1.239935905592     1.779654662410    -0.067312542822
    H            1.814012460882     1.657064650276     0.838820204729
    H            0.856008586187     2.784660007833    -0.133339892059
    H            1.870901261703     1.563486095995    -0.916354740970

  Mulliken Charges: (a.u.)
   Center  Symbol    Alpha    Beta     Spin     Total
       1     O     4.20491  4.20491  0.00000 -0.40981
       2     C     2.80436  2.80436  0.00000  0.39127
       3     C     3.09208  3.09208  0.00000 -0.18416
       4     O     4.14142  4.14142  0.00000 -0.28284
       5     C     3.13962  3.13962  0.00000 -0.27924
       6     H     0.43999  0.43999  0.00000  0.12002
       7     H     0.43834  0.43834  0.00000  0.12332
       8     H     0.44974  0.44974  0.00000  0.10052
       9     H     0.44947  0.44947  0.00000  0.10106
      10     H     0.45035  0.45035  0.00000  0.09931
      11     C     3.03641  3.03641  0.00000 -0.07282
      12     H     0.45322  0.45322  0.00000  0.09355
      13     H     0.44681  0.44681  0.00000  0.10638
      14     H     0.45328  0.45328  0.00000  0.09345

   Total alpha = 24.00000, Total beta = 24.00000, Total charge =  0.00000
