  ==> Input File <==

--------------------------------------------------------------------------
set {
	reference rhf
	basis 6-31G*
}

set_num_threads( 4 )
memory 2 gb

molecule MOL {
0 1

H	 -2.831440	 2.202065	 0.896472
C	 -2.186463	 1.844058	 1.696458
O	 -0.873989	 1.690097	 1.261665
H	 -2.182027	 2.572883	 2.495167
H	 -2.595041	 0.908617	 2.076513
C	 -0.719715	 0.768384	 0.229244
C	 0.719720	 0.768376	 -0.229267
H	 -0.986596	 -0.231957	 0.572447
H	 -1.363860	 1.017561	 -0.611585
O	 1.392611	 -0.295398	 0.366430
H	 0.750534	 0.687200	 -1.313918
H	 1.185043	 1.714359	 0.050526
C	 2.706965	 -0.449871	 -0.062409
H	 2.756559	 -0.644779	 -1.131878
H	 3.305899	 0.433456	 0.155466
H	 3.125548	 -1.294566	 0.467107

	symmetry c1
}
set optking {
	frozen_dihedral = ("
		3 6 7 11
	")
}

ee = optimize('scf')
oeprop('DIPOLE', 'QUADRUPOLE', 'MULLIKEN_CHARGES')
f=open( 'psi4out.xyz', 'w' )
f.write( "16  " )
f.write( str(ee) + "\n" )
f.write( MOL.save_string_xyz() )
f.close()
--------------------------------------------------------------------------

    Molecular point group: c1
  Charge       = 0
  Multiplicity = 1
  Basis Set: 6-31G*
  Basis Set:
  @DF-RHF Final Energy:  -306.97464970864064
    Total Energy =                       -306.9746497086406407
    Molecular point group: c1
  Basis Set: 6-31G*
  Basis Set:
  Basis Set: 6-31G*
  Basis Set:
  @DF-RHF Final Energy:  -306.97527254755522
    Total Energy =                       -306.9752725475551642
  Basis Set: 6-31G*
  Basis Set:
  Basis Set: 6-31G*
  Basis Set:
  @DF-RHF Final Energy:  -306.97535464899818
    Total Energy =                       -306.9753546489981204
  Basis Set: 6-31G*
  Basis Set:
  Charge       = 0
  Multiplicity = 1
  Basis Set: 6-31G*
  Basis Set:

    Orbital Energies (a.u.)
    -----------------------

    Doubly Occupied:

       1A    -20.555693     2A    -20.555179     3A    -11.268345
       4A    -11.267666     5A    -11.264621     6A    -11.264430
       7A     -1.387370     8A     -1.373136     9A     -1.028819
      10A     -0.938008    11A     -0.888628    12A     -0.828640
      13A     -0.683022    14A     -0.680407    15A     -0.656705
      16A     -0.637464    17A     -0.631243    18A     -0.598710
      19A     -0.546492    20A     -0.536963    21A     -0.508755
      22A     -0.479677    23A     -0.464215    24A     -0.421398
      25A     -0.410276

  @DF-RHF Final Energy:  -306.97535977042310

   => Energetics <=

    Nuclear Repulsion Energy =            256.7588919255924793
    One-Electron Energy =                -927.7167827698854126
    Two-Electron Energy =                 363.9825310738698363
    DFT Exchange-Correlation Energy =       0.0000000000000000
    Empirical Dispersion Energy =           0.0000000000000000
    PCM Polarization Energy =               0.0000000000000000
    EFP Energy =                            0.0000000000000000
    Total Energy =                       -306.9753597704230970
    Molecular point group: c1
  Basis Set: 6-31G*
  Basis Set:

  -Total Gradient:
     Atom            X                  Y                   Z
    ------   -----------------  -----------------  -----------------
       1       -0.000013172329    -0.000015033165     0.000007714004
       2        0.000014549140     0.000094323685     0.000047601065
       3       -0.000492818086     0.001747386384    -0.001930816741
       4       -0.000053477421    -0.000002161191     0.000027785399
       5        0.000006603405     0.000001057504    -0.000007304724
       6        0.000679475962    -0.001537461779     0.002363412494
       7       -0.000286521319    -0.003756434622    -0.000291365621
       8       -0.000015200625     0.000026009550     0.000049579315
       9       -0.000000082165    -0.000028338341    -0.000046542980
      10        0.000011864785     0.000065680827     0.000010573014
      11        0.000065665509     0.003510786743    -0.000281364611
      12        0.000036174052    -0.000041256386     0.000027035216
      13       -0.000041384255    -0.000076690531     0.000033675600
      14        0.000017642322     0.000011997527     0.000001032929
      15        0.000004591496     0.000005257557    -0.000003542312
      16        0.000066089529    -0.000005123761    -0.000007472049

  **** Optimization is complete! (in 4 steps) ****
    Final optimized geometry and variables:
    Molecular point group: c1

    Geometry (in Angstrom), charge = 0, multiplicity = 1:

    H           -3.040861602841     1.384168415125     0.486345857604
    C           -2.292614572592     1.102610618754     1.225890320375
    O           -1.023373515915     1.020354156319     0.661512245900
    H           -2.259700352809     1.861319185205     1.995680559138
    H           -2.591174617766     0.157460375876     1.674959966420
    C           -0.917034565025     0.081204175236    -0.366187843653
    C            0.527074554662     0.012699004676    -0.834635272803
    H           -1.228609662043    -0.903970061391    -0.029871955647
    H           -1.564612483777     0.373829341584    -1.192442750806
    O            1.167075089519    -1.063524841662    -0.220367913222
    H            0.572040959304    -0.079515127662    -1.919466971203
    H            1.014965710869     0.948788720766    -0.574157500350
    C            2.526218941805    -1.153744614628    -0.505273776870
    H            2.703115873329    -1.276501502299    -1.572729665327
    H            3.063343810702    -0.270081274202    -0.166517123873
    H            2.912543943183    -2.019593315679     0.014656290806

  Mulliken Charges: (a.u.)
   Center  Symbol    Alpha    Beta     Spin     Total
       1     H     0.43121  0.43121  0.00000  0.13758
       2     C     3.08018  3.08018  0.00000 -0.16035
       3     O     4.30493  4.30493  0.00000 -0.60986
       4     H     0.41157  0.41157  0.00000  0.17687
       5     H     0.42779  0.42779  0.00000  0.14442
       6     C     2.99702  2.99702  0.00000  0.00597
       7     C     2.99780  2.99780  0.00000  0.00439
       8     H     0.41614  0.41614  0.00000  0.16772
       9     H     0.43121  0.43121  0.00000  0.13758
      10     O     4.30444  4.30444  0.00000 -0.60887
      11     H     0.43101  0.43101  0.00000  0.13798
      12     H     0.41629  0.41629  0.00000  0.16742
      13     C     3.08033  3.08033  0.00000 -0.16065
      14     H     0.43094  0.43094  0.00000  0.13813
      15     H     0.42766  0.42766  0.00000  0.14468
      16     H     0.41150  0.41150  0.00000  0.17700

   Total alpha = 25.00000, Total beta = 25.00000, Total charge =  0.00000
