  ==> Input File <==

--------------------------------------------------------------------------
set {
	reference rhf
	basis 6-31G*
}

set_num_threads( 4 )
memory 2 gb

molecule MOL {
0 1

H	 2.343756	 -0.101305	 -0.000213
O	 1.586534	 -0.678666	 -0.000226
C	 0.489431	 0.077273	 0.000046
C	 -0.764129	 -0.759190	 0.000191
O	 0.537743	 1.263962	 0.000257
C	 -2.038368	 0.075731	 -0.000248
H	 -0.717284	 -1.412404	 -0.866059
H	 -0.717458	 -1.411724	 0.866967
H	 -2.086483	 0.712501	 -0.875098
H	 -2.908485	 -0.571682	 -0.000042
H	 -2.086576	 0.713280	 0.874068

	symmetry c1
}
set optking {
	frozen_dihedral = ("
		1 2 3 5
	")
}

ee = optimize('scf')
oeprop('DIPOLE', 'QUADRUPOLE', 'MULLIKEN_CHARGES')
f=open( 'psi4out.xyz', 'w' )
f.write( "11  " )
f.write( str(ee) + "\n" )
f.write( MOL.save_string_xyz() )
f.close()
--------------------------------------------------------------------------

    Molecular point group: c1
  Charge       = 0
  Multiplicity = 1
  Basis Set: 6-31G*
  Basis Set:

    Orbital Energies (a.u.)
    -----------------------

    Doubly Occupied:

       1A    -20.613772     2A    -20.552831     3A    -11.382140
       4A    -11.244190     5A    -11.220465     6A     -1.475823
       7A     -1.367026     8A     -1.065335     9A     -0.917098
      10A     -0.801227    11A     -0.701792    12A     -0.690760
      13A     -0.662677    14A     -0.594610    15A     -0.594171
      16A     -0.532345    17A     -0.525937    18A     -0.505346
      19A     -0.480053    20A     -0.445996

  @DF-RHF Final Energy:  -266.84617925834880

   => Energetics <=

    Nuclear Repulsion Energy =            179.7853012795857524
    One-Electron Energy =                -720.5157755105124124
    Two-Electron Energy =                 273.8842949725776634
    DFT Exchange-Correlation Energy =       0.0000000000000000
    Empirical Dispersion Energy =           0.0000000000000000
    PCM Polarization Energy =               0.0000000000000000
    EFP Energy =                            0.0000000000000000
    Total Energy =                       -266.8461792583490251
    Molecular point group: c1
  Basis Set: 6-31G*
  Basis Set:

  -Total Gradient:
     Atom            X                  Y                   Z
    ------   -----------------  -----------------  -----------------
       1       -0.000015993279    -0.000004555218    -0.000000058543
       2       -0.000016824174     0.000006601679     0.000002262273
       3        0.000029481980    -0.000005620966    -0.000010767403
       4        0.000018736020     0.000004851187     0.000007102898
       5       -0.000016184712    -0.000005004507     0.000004892229
       6       -0.000008417581    -0.000004292757    -0.000018647149
       7       -0.000000656857     0.000001299455    -0.000006708842
       8       -0.000001196215     0.000002026864     0.000004949358
       9        0.000000791728    -0.000009592389     0.000005458272
      10        0.000007412933     0.000007569534    -0.000002558082
      11        0.000002850154     0.000006717116     0.000014074989

  **** Optimization is complete! (in 1 steps) ****
    Final optimized geometry and variables:
    Molecular point group: c1

    Geometry (in Angstrom), charge = 0, multiplicity = 1:

    H            2.343755905478    -0.101304801345    -0.000212782437
    O            1.586533905478    -0.678665801345    -0.000225782437
    C            0.489430905478     0.077273198655     0.000046217563
    C           -0.764129094522    -0.759189801345     0.000191217563
    O            0.537742905478     1.263962198655     0.000257217563
    C           -2.038368094522     0.075731198655    -0.000247782437
    H           -0.717284094522    -1.412403801345    -0.866058782437
    H           -0.717458094522    -1.411723801345     0.866967217563
    H           -2.086483094522     0.712501198655    -0.875097782437
    H           -2.908485094522    -0.571681801345    -0.000041782437
    H           -2.086576094522     0.713280198655     0.874068217563

  Mulliken Charges: (a.u.)
   Center  Symbol    Alpha    Beta     Spin     Total
       1     H     0.26761  0.26761  0.00000  0.46477
       2     O     4.35028  4.35028  0.00000 -0.70055
       3     C     2.62501  2.62501  0.00000  0.74998
       4     C     3.20823  3.20823  0.00000 -0.41646
       5     O     4.27869  4.27869  0.00000 -0.55738
       6     C     3.23948  3.23948  0.00000 -0.47895
       7     H     0.39804  0.39804  0.00000  0.20392
       8     H     0.39803  0.39803  0.00000  0.20393
       9     H     0.40899  0.40899  0.00000  0.18202
      10     H     0.41666  0.41666  0.00000  0.16667
      11     H     0.40898  0.40898  0.00000  0.18205

   Total alpha = 20.00000, Total beta = 20.00000, Total charge =  0.00000
