                              Psi4 1.0.54 Driver

  ==> Input File <==

--------------------------------------------------------------------------
set {
	reference rhf
	basis cc-pvtz
}

set_num_threads( 4 )
memory 2 gb

molecule MOL {
0 1

H	 -0.000105	 1.988529	 0.748933
O	 -0.000098	 1.879786	 -0.188206
C	 -0.000014	 0.545691	 -0.532416
C	 0.337910	 0.382872	 -2.015344
C	 -1.315318	 -0.109467	 -0.107543
H	 0.787405	 0.059302	 0.024412
F	 1.520881	 0.895618	 -2.248866
F	 0.363950	 -0.872694	 -2.384922
F	 -0.528864	 1.016219	 -2.776231
F	 -1.458709	 0.008264	 1.189545
F	 -1.354245	 -1.384375	 -0.402173
F	 -2.347268	 0.474701	 -0.677809

	symmetry c1
}
set optking {
	frozen_dihedral = ("
		6 3 2 1
	")
}

ee,wfn = optimize('scf', return_wfn=True)
oeprop( wfn, 'DIPOLE', 'QUADRUPOLE', 'MULLIKEN_CHARGES')
f=open( 'psi4out.xyz', 'w' )
f.write( "12  " )
f.write( str(ee) + "\n" )
f.write( MOL.save_string_xyz() )
f.close()
--------------------------------------------------------------------------

    Molecular point group: c1
  Charge       = 0
  Multiplicity = 1
  Basis Set: CC-PVTZ
  Basis Set:
  @DF-RHF Final Energy:  -786.58591660354909
    Total Energy =                       -786.5859166035484122
    Molecular point group: c1
  Basis Set: CC-PVTZ
  Basis Set:
  Basis Set: CC-PVTZ
  Basis Set:
  @DF-RHF Final Energy:  -786.57290204508286
    Total Energy =                       -786.5729020450830831
  Basis Set: CC-PVTZ
  Basis Set:
  Basis Set: CC-PVTZ
  Basis Set:
  @DF-RHF Final Energy:  -786.58761707785095
    Total Energy =                       -786.5876170778506093
  Basis Set: CC-PVTZ
  Basis Set:
  Basis Set: CC-PVTZ
  Basis Set:
  @DF-RHF Final Energy:  -786.58807284061231
    Total Energy =                       -786.5880728406128810
  Basis Set: CC-PVTZ
  Basis Set:
  @DF-RHF Final Energy:  -786.58815475568736
    Total Energy =                       -786.5881547556872420
  Basis Set: CC-PVTZ
  Basis Set:
  @DF-RHF Final Energy:  -786.58817481537722
    Total Energy =                       -786.5881748153769877
  Basis Set: CC-PVTZ
  Basis Set:
  Basis Set: CC-PVTZ
  Basis Set:
  @DF-RHF Final Energy:  -786.58817893203025
    Total Energy =                       -786.5881789320296775
  Basis Set: CC-PVTZ
  Basis Set:
  Basis Set: CC-PVTZ
  Basis Set:
  @DF-RHF Final Energy:  -786.58818030653651
    Total Energy =                       -786.5881803065361737
  Basis Set: CC-PVTZ
  Basis Set:
  Charge       = 0
  Multiplicity = 1
  Basis Set: CC-PVTZ
  Basis Set:

    Orbital Energies (a.u.)
    -----------------------

    Doubly Occupied:

       1A    -26.357981     2A    -26.355831     3A    -26.353875
       4A    -26.351842     5A    -26.348550     6A    -26.348065
       7A    -20.609428     8A    -11.518345     9A    -11.516209
      10A    -11.351611    11A     -1.769434    12A     -1.762029
      13A     -1.664083    14A     -1.663051    15A     -1.657485
      16A     -1.656001    17A     -1.439769    18A     -1.103845
      19A     -0.999448    20A     -0.940503    21A     -0.871970
      22A     -0.863126    23A     -0.858966    24A     -0.848130
      25A     -0.837479    26A     -0.788608    27A     -0.763917
      28A     -0.735365    29A     -0.727944    30A     -0.723629
      31A     -0.721328    32A     -0.688785    33A     -0.685239
      34A     -0.674073    35A     -0.673970    36A     -0.666114
      37A     -0.658704    38A     -0.637050    39A     -0.622795
      40A     -0.553432    41A     -0.509908

  @DF-RHF Final Energy:  -786.58818050599564

   => Energetics <=

    Nuclear Repulsion Energy =            670.7426134871940349
    One-Electron Energy =               -2428.9057497467683788
    Two-Electron Energy =                 971.5749557535782515
    DFT Exchange-Correlation Energy =       0.0000000000000000
    Empirical Dispersion Energy =           0.0000000000000000
    PCM Polarization Energy =               0.0000000000000000
    EFP Energy =                            0.0000000000000000
    Total Energy =                       -786.5881805059962062
    Molecular point group: c1
  Basis Set: CC-PVTZ
  Basis Set:

  -Total Gradient:
     Atom            X                  Y                   Z
    ------   -----------------  -----------------  -----------------
       1        0.000010603129     0.000008967315     0.000014070511
       2       -0.000027805459     0.000004878855    -0.000007622440
       3        0.000017481600    -0.000028686527     0.000012567199
       4       -0.000054596022    -0.000000989858     0.000034539424
       5       -0.000035327726     0.000035943663    -0.000040774870
       6        0.000005757914    -0.000011818399     0.000018764674
       7       -0.000005234848     0.000003799994    -0.000041708724
       8        0.000005022213     0.000008860183     0.000008926456
       9        0.000042791271    -0.000003906398    -0.000006398576
      10        0.000014706282     0.000001673926     0.000009587965
      11        0.000026605388    -0.000028699611     0.000007293223
      12       -0.000000003736     0.000009976852    -0.000009244844

  **** Optimization is complete! (in 9 steps) ****
    Final optimized geometry and variables:
    Molecular point group: c1

    Geometry (in Angstrom), charge = 0, multiplicity = 1:

    H            0.502534647672     2.002453660115     1.429666174435
    O            0.614918603736     1.667918426991     0.557400164355
    C            0.452193613147     0.299441674322     0.529777486629
    C            0.982945564713    -0.179960921387    -0.819151019794
    C           -1.007083502229    -0.072742495088     0.797601077162
    H            1.040535249683    -0.208092412866     1.286197032578
    F            2.269509754568     0.063322373922    -0.888512227014
    F            0.812213561635    -1.474865992073    -0.954305895908
    F            0.402379481020     0.415630706820    -1.826117384357
    F           -1.371986945416     0.490399056452     1.934564041424
    F           -1.158543187982    -1.367163710426     0.932714829449
    F           -1.823508044513     0.343734644927    -0.132706808782

  Mulliken Charges: (a.u.)
   Center  Symbol    Alpha    Beta     Spin     Total
       1     H     0.38331  0.38331  0.00000  0.23338
       2     O     4.18469  4.18469  0.00000 -0.36938
       3     C     2.99943  2.99943  0.00000  0.00114
       4     C     2.67643  2.67643  0.00000  0.64715
       5     C     2.68251  2.68251  0.00000  0.63498
       6     H     0.44463  0.44463  0.00000  0.11075
       7     F     4.60426  4.60426  0.00000 -0.20851
       8     F     4.60574  4.60574  0.00000 -0.21148
       9     F     4.60133  4.60133  0.00000 -0.20266
      10     F     4.61367  4.61367  0.00000 -0.22735
      11     F     4.60407  4.60407  0.00000 -0.20815
      12     F     4.59993  4.59993  0.00000 -0.19986

   Total alpha = 41.00000, Total beta = 41.00000, Total charge =  0.00000

*** Psi4 exiting successfully. Buy a developer a beer!
