  ==> Input File <==

--------------------------------------------------------------------------
set {
	reference rhf
	basis 6-31G*
}

set_num_threads( 1 )
memory 2 gb

molecule MOL {
0 1

H	 3.463771	 0.168298	 -0.756243
C	 2.752674	 -0.045734	 0.033351
C	 1.322923	 0.120767	 -0.479465
H	 2.934561	 -1.059086	 0.377456
H	 2.958358	 0.631174	 0.856809
C	 0.306652	 -0.176050	 0.621399
H	 1.144658	 -0.551717	 -1.312180
H	 1.166477	 1.131798	 -0.836680
N	 -1.068537	 -0.011044	 0.085269
H	 0.372515	 -1.192590	 0.973735
H	 0.391664	 0.520566	 1.441230
O	 -1.498337	 1.097951	 0.002959
O	 -1.662214	 -1.006958	 -0.197089

	symmetry c1
}
set optking {
	frozen_dihedral = ("
		7 3 6 9
	")
}

ee = energy('scf')
oeprop('DIPOLE', 'QUADRUPOLE', 'MULLIKEN_CHARGES')
f=open( 'psi4out.xyz', 'w' )
f.write( "13  " )
f.write( str(ee) + "\n" )
f.write( MOL.save_string_xyz() )
f.close()
--------------------------------------------------------------------------

    Molecular point group: c1

    Geometry (in Angstrom), charge = 0, multiplicity = 1:

       Center              X                  Y                   Z               Mass
    ------------   -----------------  -----------------  -----------------  -----------------
           H          3.468254814295     0.171282206132    -0.766825029493     1.007825032070
           C          2.757157814295    -0.042749793868     0.022768970507    12.000000000000
           C          1.327406814295     0.123751206132    -0.490047029493    12.000000000000
           H          2.939044814295    -1.056101793868     0.366873970507     1.007825032070
           H          2.962841814295     0.634158206132     0.846226970507     1.007825032070
           C          0.311135814295    -0.173065793868     0.610816970507    12.000000000000
           H          1.149141814295    -0.548732793868    -1.322762029493     1.007825032070
           H          1.170960814295     1.134782206132    -0.847262029493     1.007825032070
           N         -1.064053185705    -0.008059793868     0.074686970507    14.003074004780
           H          0.376998814295    -1.189605793868     0.963152970507     1.007825032070
           H          0.396147814295     0.523550206132     1.430647970507     1.007825032070
           O         -1.493853185705     1.100935206132    -0.007623029493    15.994914619560
           O         -1.657730185705    -1.003973793868    -0.207671029493    15.994914619560

  Charge       = 0
  Multiplicity = 1
  Basis Set: 6-31G*
  Basis Set:

    Orbital Energies (a.u.)
    -----------------------

    Doubly Occupied:

       1A    -20.600829     2A    -20.600088     3A    -15.846839
       4A    -11.299056     5A    -11.257268     6A    -11.240128
       7A     -1.630420     8A     -1.415965     9A     -1.135645
      10A     -1.028459    11A     -0.883949    12A     -0.833801
      13A     -0.758320    14A     -0.734537    15A     -0.722731
      16A     -0.672390    17A     -0.604536    18A     -0.589007
      19A     -0.551492    20A     -0.521887    21A     -0.515297
      22A     -0.483495    23A     -0.473151    24A     -0.447714

  @DF-RHF Final Energy:  -321.73529608786328

   => Energetics <=

    Nuclear Repulsion Energy =            247.2806872676215733
    One-Electron Energy =                -928.3379647763254070
    Two-Electron Energy =                 359.3219814208406433
    DFT Exchange-Correlation Energy =       0.0000000000000000
    Empirical Dispersion Energy =           0.0000000000000000
    PCM Polarization Energy =               0.0000000000000000
    EFP Energy =                            0.0000000000000000
    Total Energy =                       -321.7352960878631620

  Mulliken Charges: (a.u.)
   Center  Symbol    Alpha    Beta     Spin     Total
       1     H     0.40736  0.40736  0.00000  0.18527
       2     C     3.24799  3.24799  0.00000 -0.49598
       3     C     3.17372  3.17372  0.00000 -0.34744
       4     H     0.41461  0.41461  0.00000  0.17078
       5     H     0.41462  0.41462  0.00000  0.17077
       6     C     3.08328  3.08328  0.00000 -0.16656
       7     H     0.40135  0.40135  0.00000  0.19731
       8     H     0.39717  0.39717  0.00000  0.20566
       9     N     3.22287  3.22287  0.00000  0.55426
      10     H     0.38673  0.38673  0.00000  0.22654
      11     H     0.38859  0.38859  0.00000  0.22282
      12     O     4.23155  4.23155  0.00000 -0.46311
      13     O     4.23017  4.23017  0.00000 -0.46035

   Total alpha = 24.00000, Total beta = 24.00000, Total charge =  0.00000
