  ==> Input File <==

--------------------------------------------------------------------------
set {
	reference rhf
	basis cc-pvtz
}

set_num_threads( 4 )
memory 2 gb

molecule MOL {
0 1

H	 -1.033378	 -0.193353	 1.370244
C	 -0.131915	 0.378636	 1.182224
N	 0.526300	 -0.128137	 0.000000
H	 0.516017	 0.262198	 2.041681
H	 -0.416744	 1.430333	 1.108897
C	 -0.247113	 0.037112	 -1.209233
H	 1.417963	 0.305003	 -0.104809
H	 -0.996493	 -0.743733	 -1.271440
H	 0.397975	 -0.057351	 -2.073512
H	 -0.763794	 0.997171	 -1.271673

	symmetry c1
}
set optking {
	frozen_dihedral = ("
		2 3 6 8
	")
}

ee = optimize('scf')
oeprop('DIPOLE', 'QUADRUPOLE', 'MULLIKEN_CHARGES')
f=open( 'psi4out.xyz', 'w' )
f.write( "10  " )
f.write( str(ee) + "\n" )
f.write( MOL.save_string_xyz() )
f.close()
--------------------------------------------------------------------------

    Molecular point group: c1
  Charge       = 0
  Multiplicity = 1
  Basis Set: CC-PVTZ
  Basis Set:
  @DF-RHF Final Energy:  -134.29226221809546
    Total Energy =                       -134.2922622180954022
    Molecular point group: c1
  Basis Set: CC-PVTZ
  Basis Set:
  Basis Set: CC-PVTZ
  Basis Set:
  @DF-RHF Final Energy:  -134.29233427302825
    Total Energy =                       -134.2923342730282457
  Basis Set: CC-PVTZ
  Basis Set:
  Basis Set: CC-PVTZ
  Basis Set:
  @DF-RHF Final Energy:  -134.29234078735729
    Total Energy =                       -134.2923407873572046
  Basis Set: CC-PVTZ
  Basis Set:
  Charge       = 0
  Multiplicity = 1
  Basis Set: CC-PVTZ
  Basis Set:

    Orbital Energies (a.u.)
    -----------------------

    Doubly Occupied:

       1A    -15.532778     2A    -11.234279     3A    -11.234256
       4A     -1.200746     5A     -0.948537     6A     -0.854316
       7A     -0.661927     8A     -0.614865     9A     -0.592015
      10A     -0.540913    11A     -0.508820    12A     -0.505693
      13A     -0.365456

  @DF-RHF Final Energy:  -134.29234117787217

   => Energetics <=

    Nuclear Repulsion Energy =             84.7009193871125348
    One-Electron Energy =                -348.3973200897742117
    Two-Electron Energy =                 129.4040595247896874
    DFT Exchange-Correlation Energy =       0.0000000000000000
    Empirical Dispersion Energy =           0.0000000000000000
    PCM Polarization Energy =               0.0000000000000000
    EFP Energy =                            0.0000000000000000
    Total Energy =                       -134.2923411778719753
    Molecular point group: c1
  Basis Set: CC-PVTZ
  Basis Set:

  -Total Gradient:
     Atom            X                  Y                   Z
    ------   -----------------  -----------------  -----------------
       1        0.000001147578    -0.000001063186     0.000004190408
       2        0.000930744131     0.001844598007    -0.000376282981
       3       -0.000838411443    -0.002997054248     0.000087871009
       4        0.000001656627    -0.000000687558     0.000001711615
       5       -0.000017191573     0.000011783884     0.000009857373
       6       -0.001848619699     0.002733158617     0.001646846286
       7       -0.000004938062    -0.000010027732     0.000014427378
       8        0.001771718250    -0.001572055551    -0.001354100624
       9        0.000006464013    -0.000012427344    -0.000025604466
      10       -0.000002569822     0.000003775112    -0.000008915999

  **** Optimization is complete! (in 4 steps) ****
    Final optimized geometry and variables:
    Molecular point group: c1

    Geometry (in Angstrom), charge = 0, multiplicity = 1:

    H           -1.075071314806    -0.309824506783     1.385103662575
    C           -0.172856250390     0.261189576421     1.196270131598
    N            0.484059765728    -0.242043839626     0.011176371770
    H            0.475805656429     0.141672665355     2.054800875719
    H           -0.456783357330     1.312812141187     1.123842257446
    C           -0.293462339215    -0.079199263328    -1.198327847451
    H            1.365976362285     0.209753932197    -0.094784255195
    H           -1.043532934401    -0.859115100751    -1.269098995281
    H            0.352709864051    -0.187265787473    -2.060776810671
    H           -0.792424653611     0.888081064234    -1.269874288568

  Mulliken Charges: (a.u.)
   Center  Symbol    Alpha    Beta     Spin     Total
       1     H     0.45706  0.45706  0.00000  0.08587
       2     C     3.08207  3.08207  0.00000 -0.16414
       3     N     3.62800  3.62800  0.00000 -0.25601
       4     H     0.45261  0.45261  0.00000  0.09478
       5     H     0.47393  0.47393  0.00000  0.05215
       6     C     3.07846  3.07846  0.00000 -0.15691
       7     H     0.44097  0.44097  0.00000  0.11805
       8     H     0.45592  0.45592  0.00000  0.08816
       9     H     0.45500  0.45500  0.00000  0.09000
      10     H     0.47598  0.47598  0.00000  0.04805

   Total alpha = 13.00000, Total beta = 13.00000, Total charge = -0.00000
