                              Psi4 1.0.54 Driver

  ==> Input File <==

--------------------------------------------------------------------------
set {
	reference rhf
	basis cc-pvtz
}

set_num_threads( 4 )
memory 2 gb

molecule MOL {
0 1

H	 2.166625	 -0.614219	 0.741932
C	 1.931612	 -0.322383	 -0.290180
C	 0.660282	 0.462747	 -0.457780
O	 2.656359	 -0.631316	 -1.171620
C	 -0.554654	 -0.292621	 0.086567
H	 0.539466	 0.700067	 -1.506551
H	 0.779631	 1.395965	 0.088790
C	 -1.846385	 0.513195	 -0.016346
H	 -0.667411	 -1.226251	 -0.457086
H	 -0.380410	 -0.560223	 1.125653
C	 -3.089953	 -0.365049	 -0.098564
H	 -1.798267	 1.154820	 -0.891143
H	 -1.925398	 1.173265	 0.842889
H	 -3.055079	 -1.012299	 -0.968245
H	 -3.988403	 0.236438	 -0.170014
H	 -3.183055	 -0.995885	 0.779079

	symmetry c1
}
set optking {
	frozen_dihedral = ("
		9 5 8 12
	")
}

ee,wfn = optimize('scf', return_wfn=True)
oeprop( wfn, 'DIPOLE', 'QUADRUPOLE', 'MULLIKEN_CHARGES')
f=open( 'psi4out.xyz', 'w' )
f.write( "16  " )
f.write( str(ee) + "\n" )
f.write( MOL.save_string_xyz() )
f.close()
--------------------------------------------------------------------------

    Molecular point group: c1
  Charge       = 0
  Multiplicity = 1
  Basis Set: CC-PVTZ
  Basis Set:
  @DF-RHF Final Energy:  -270.11692086995561
    Total Energy =                       -270.1169208699555497
    Molecular point group: c1
  Basis Set: CC-PVTZ
  Basis Set:
  Basis Set: CC-PVTZ
  Basis Set:
  @DF-RHF Final Energy:  -270.11712550041239
    Total Energy =                       -270.1171255004124987
  Basis Set: CC-PVTZ
  Basis Set:
  Basis Set: CC-PVTZ
  Basis Set:
  @DF-RHF Final Energy:  -270.11701738997715
    Total Energy =                       -270.1170173899769225
  Basis Set: CC-PVTZ
  Basis Set:
  Basis Set: CC-PVTZ
  Basis Set:
  @DF-RHF Final Energy:  -270.11720701217359
    Total Energy =                       -270.1172070121735942
  Basis Set: CC-PVTZ
  Basis Set:
  Basis Set: CC-PVTZ
  Basis Set:
  @DF-RHF Final Energy:  -270.11721983362065
    Total Energy =                       -270.1172198336205952
  Basis Set: CC-PVTZ
  Basis Set:
  Basis Set: CC-PVTZ
  Basis Set:
  @DF-RHF Final Energy:  -270.11722009517234
    Total Energy =                       -270.1172200951723426
  Basis Set: CC-PVTZ
  Basis Set:
  Charge       = 0
  Multiplicity = 1
  Basis Set: CC-PVTZ
  Basis Set:

    Orbital Energies (a.u.)
    -----------------------

    Doubly Occupied:

       1A    -20.552230     2A    -11.321396     3A    -11.234832
       4A    -11.234098     5A    -11.227357     6A    -11.216919
       7A     -1.406998     8A     -1.097084     9A     -1.020295
      10A     -0.906944    11A     -0.813417    12A     -0.794684
      13A     -0.678721    14A     -0.650956    15A     -0.631359
      16A     -0.602913    17A     -0.586414    18A     -0.553973
      19A     -0.525120    20A     -0.515332    21A     -0.488954
      22A     -0.482610    23A     -0.476353    24A     -0.411643

  @DF-RHF Final Energy:  -270.11722181126981

   => Energetics <=

    Nuclear Repulsion Energy =            229.3316866211061722
    One-Electron Energy =                -820.0366113341437995
    Two-Electron Energy =                 320.5877029017678979
    DFT Exchange-Correlation Energy =       0.0000000000000000
    Empirical Dispersion Energy =           0.0000000000000000
    PCM Polarization Energy =               0.0000000000000000
    EFP Energy =                            0.0000000000000000
    Total Energy =                       -270.1172218112697010
    Molecular point group: c1
  Basis Set: CC-PVTZ
  Basis Set:

  -Total Gradient:
     Atom            X                  Y                   Z
    ------   -----------------  -----------------  -----------------
       1       -0.000000969253     0.000001104905    -0.000013285216
       2       -0.000007667193     0.000005251513     0.000024660939
       3        0.000013325260     0.000005241746    -0.000002933772
       4       -0.000003021621    -0.000000614042    -0.000004870781
       5        0.002174103833     0.003085167156    -0.003704782256
       6       -0.000000250987    -0.000000826712     0.000000347800
       7        0.000001571163    -0.000001665167    -0.000002847331
       8       -0.002461166687    -0.004169975817    -0.002120103134
       9       -0.001425298975    -0.001914187128     0.003446333988
      10        0.000002235562    -0.000001029702    -0.000002153533
      11       -0.000001871084    -0.000004859493     0.000009862084
      12        0.001713598990     0.002997019152     0.002371942863
      13       -0.000001424201    -0.000000883563    -0.000001311485
      14        0.000001368719     0.000001184279    -0.000006573118
      15       -0.000003425681     0.000005096239     0.000002223833
      16       -0.000001107847    -0.000006023366     0.000003489118

  **** Optimization is complete! (in 7 steps) ****
    Final optimized geometry and variables:
    Molecular point group: c1

    Geometry (in Angstrom), charge = 0, multiplicity = 1:

    H            2.175251310121    -0.483553388326     1.128270554448
    C            1.980790326714    -0.191478879700     0.087904541327
    C            0.706446169399     0.575507532034    -0.132635973710
    O            2.747284787937    -0.486121580408    -0.762545771004
    C           -0.520014330169    -0.199220410060     0.350603792903
    H            0.629048032363     0.819267869486    -1.183876983742
    H            0.785960197041     1.506401326772     0.425624914848
    C           -1.817582219287     0.609883527020     0.264579071619
    H           -0.623638314735    -1.125175433633    -0.207200969270
    H           -0.367610166516    -0.505938731432     1.382636306969
    C           -3.069106497348    -0.256988639686     0.219254261496
    H           -1.780858566576     1.270708524699    -0.596187480552
    H           -1.870793590778     1.271845876888     1.124714110372
    H           -3.079488577160    -0.882042333771    -0.666905124597
    H           -3.965913250244     0.351049222992     0.207891339068
    H           -3.123137983408    -0.909799729790     1.084297679460

  Mulliken Charges: (a.u.)
   Center  Symbol    Alpha    Beta     Spin     Total
       1     H     0.46533  0.46533  0.00000  0.06934
       2     C     2.90884  2.90884  0.00000  0.18232
       3     C     3.07763  3.07763  0.00000 -0.15525
       4     O     4.16378  4.16378  0.00000 -0.32757
       5     C     3.10344  3.10344  0.00000 -0.20687
       6     H     0.44229  0.44229  0.00000  0.11541
       7     H     0.44954  0.44954  0.00000  0.10092
       8     C     3.08527  3.08527  0.00000 -0.17054
       9     H     0.44626  0.44626  0.00000  0.10748
      10     H     0.45128  0.45128  0.00000  0.09744
      11     C     3.14776  3.14776  0.00000 -0.29551
      12     H     0.45201  0.45201  0.00000  0.09597
      13     H     0.45254  0.45254  0.00000  0.09491
      14     H     0.45297  0.45297  0.00000  0.09406
      15     H     0.44721  0.44721  0.00000  0.10558
      16     H     0.45384  0.45384  0.00000  0.09232

   Total alpha = 24.00000, Total beta = 24.00000, Total charge =  0.00000

*** Psi4 exiting successfully. Buy a developer a beer!
