  ==> Input File <==

--------------------------------------------------------------------------
set {
	reference rhf
	basis 6-31G*
}

set_num_threads( 1 )
memory 2 gb

molecule MOL {
0 1

H	 -1.623187	 -2.215189	 -2.478463
C	 -2.323384	 -1.580576	 -1.921137
C	 -2.180180	 -1.637858	 -0.421529
O	 -3.118527	 -0.915496	 -2.501798
C	 -0.738921	 -1.384912	 0.042202
H	 -2.870319	 -0.925512	 0.015484
H	 -2.487166	 -2.635156	 -0.108785
C	 -0.252658	 0.041456	 -0.226725
H	 -0.678798	 -1.591885	 1.106548
H	 -0.073154	 -2.097292	 -0.442593
C	 1.180775	 0.282413	 0.250794
H	 -0.922212	 0.744313	 0.264740
H	 -0.317190	 0.258844	 -1.291205
C	 2.148627	 -0.814315	 -0.201312
H	 1.516199	 1.249228	 -0.115937
H	 1.192670	 0.346017	 1.338083
C	 3.580890	 -0.659131	 0.322722
H	 2.166869	 -0.852443	 -1.289387
H	 1.762857	 -1.776509	 0.128956
C	 4.324889	 0.564933	 -0.213704
H	 4.142010	 -1.551473	 0.056605
H	 3.564836	 -0.624694	 1.410140
H	 4.342616	 0.565491	 -1.300421
H	 3.866655	 1.493402	 0.110242
H	 5.353900	 0.572371	 0.132816

	symmetry c1
}
set optking {
	frozen_dihedral = ("
		6 3 5 8,
		6 3 2 4,
		3 5 8 12,
		8 11 14 18,
		20 17 14 18
	")
}

ee = energy('scf')
oeprop('DIPOLE', 'QUADRUPOLE', 'MULLIKEN_CHARGES')
f=open( 'psi4out.xyz', 'w' )
f.write( "25  " )
f.write( str(ee) + "\n" )
f.write( MOL.save_string_xyz() )
f.close()
--------------------------------------------------------------------------

    Molecular point group: c1

    Geometry (in Angstrom), charge = 0, multiplicity = 1:

       Center              X                  Y                   Z               Mass
    ------------   -----------------  -----------------  -----------------  -----------------
           H         -1.920444368599    -1.543862804530    -1.924898364416     1.007825032070
           C         -2.620641368599    -0.909249804530    -1.367572364416    12.000000000000
           C         -2.477437368599    -0.966531804530     0.132035635584    12.000000000000
           O         -3.415784368599    -0.244169804530    -1.948233364416    15.994914619560
           C         -1.036178368599    -0.713585804530     0.595766635584    12.000000000000
           H         -3.167576368599    -0.254185804530     0.569048635584     1.007825032070
           H         -2.784423368599    -1.963829804530     0.444779635584     1.007825032070
           C         -0.549915368599     0.712782195470     0.326839635584    12.000000000000
           H         -0.976055368599    -0.920558804530     1.660112635584     1.007825032070
           H         -0.370411368599    -1.425965804530     0.110971635584     1.007825032070
           C          0.883517631401     0.953739195470     0.804358635584    12.000000000000
           H         -1.219469368599     1.415639195470     0.818304635584     1.007825032070
           H         -0.614447368599     0.930170195470    -0.737640364416     1.007825032070
           C          1.851369631401    -0.142988804530     0.352252635584    12.000000000000
           H          1.218941631401     1.920554195470     0.437627635584     1.007825032070
           H          0.895412631401     1.017343195470     1.891647635584     1.007825032070
           C          3.283632631401     0.012195195470     0.876286635584    12.000000000000
           H          1.869611631401    -0.181116804530    -0.735822364416     1.007825032070
           H          1.465599631401    -1.105182804530     0.682520635584     1.007825032070
           C          4.027631631401     1.236259195470     0.339860635584    12.000000000000
           H          3.844752631401    -0.880146804530     0.610169635584     1.007825032070
           H          3.267578631401     0.046632195470     1.963704635584     1.007825032070
           H          4.045358631401     1.236817195470    -0.746856364416     1.007825032070
           H          3.569397631401     2.164728195470     0.663806635584     1.007825032070
           H          5.056642631401     1.243697195470     0.686380635584     1.007825032070

  Charge       = 0
  Multiplicity = 1
  Basis Set: 6-31G*
  Basis Set:

    Orbital Energies (a.u.)
    -----------------------

    Doubly Occupied:

       1A    -20.561738     2A    -11.325908     3A    -11.234359
       4A    -11.233599     5A    -11.223986     6A    -11.220019
       7A    -11.219325     8A    -11.218269     9A    -11.211094
      10A     -1.401722    11A     -1.107038    12A     -1.067943
      13A     -1.013519    14A     -0.938939    15A     -0.884762
      16A     -0.822893    17A     -0.794169    18A     -0.769766
      19A     -0.665707    20A     -0.651107    21A     -0.638146
      22A     -0.627547    23A     -0.610549    24A     -0.590679
      25A     -0.571935    26A     -0.561885    27A     -0.534980
      28A     -0.521958    29A     -0.518075    30A     -0.499644
      31A     -0.485745    32A     -0.475574    33A     -0.462977
      34A     -0.452411    35A     -0.446050    36A     -0.409104

  @DF-RHF Final Energy:  -387.11678653043487

   => Energetics <=

    Nuclear Repulsion Energy =            446.5832957635924458
    One-Electron Energy =               -1409.4540531085742714
    Two-Electron Energy =                 575.7539708145475288
    DFT Exchange-Correlation Energy =       0.0000000000000000
    Empirical Dispersion Energy =           0.0000000000000000
    PCM Polarization Energy =               0.0000000000000000
    EFP Energy =                            0.0000000000000000
    Total Energy =                       -387.1167865304342968

  Mulliken Charges: (a.u.)
   Center  Symbol    Alpha    Beta     Spin     Total
       1     H     0.43276  0.43276  0.00000  0.13448
       2     C     2.83083  2.83083  0.00000  0.33835
       3     C     3.20638  3.20638  0.00000 -0.41276
       4     O     4.23790  4.23790  0.00000 -0.47580
       5     C     3.17304  3.17304  0.00000 -0.34608
       6     H     0.40017  0.40017  0.00000  0.19967
       7     H     0.40702  0.40702  0.00000  0.18596
       8     C     3.15490  3.15490  0.00000 -0.30981
       9     H     0.41331  0.41331  0.00000  0.17338
      10     H     0.41569  0.41569  0.00000  0.16862
      11     C     3.15500  3.15500  0.00000 -0.31000
      12     H     0.41582  0.41582  0.00000  0.16837
      13     H     0.41829  0.41829  0.00000  0.16341
      14     C     3.15966  3.15966  0.00000 -0.31932
      15     H     0.41609  0.41609  0.00000  0.16781
      16     H     0.42298  0.42298  0.00000  0.15404
      17     C     3.15094  3.15094  0.00000 -0.30189
      18     H     0.42412  0.42412  0.00000  0.15176
      19     H     0.41934  0.41934  0.00000  0.16131
      20     C     3.24163  3.24163  0.00000 -0.48325
      21     H     0.42088  0.42088  0.00000  0.15823
      22     H     0.42305  0.42305  0.00000  0.15390
      23     H     0.42179  0.42179  0.00000  0.15642
      24     H     0.41977  0.41977  0.00000  0.16046
      25     H     0.41863  0.41863  0.00000  0.16274

   Total alpha = 36.00000, Total beta = 36.00000, Total charge = -0.00000
