                              Psi4 1.0.54 Driver

  ==> Input File <==

--------------------------------------------------------------------------
set {
	reference rhf
	basis cc-pvtz
}

set_num_threads( 4 )
memory 2 gb

molecule MOL {
0 1

H	 2.342730	 0.877684	 -1.045694
C	 2.360424	 0.000000	 -0.411793
C	 1.173749	 0.000000	 0.526870
H	 3.286567	 0.000000	 0.151574
H	 2.342730	 -0.877684	 -1.045694
O	 0.000000	 0.000000	 -0.223739
H	 1.203779	 0.876757	 1.172538
H	 1.203779	 -0.876757	 1.172538
C	 -1.173749	 0.000000	 0.526870
C	 -2.171025	 -0.939111	 -0.115624
H	 -1.583856	 1.007804	 0.578200
H	 -0.963495	 -0.314660	 1.548277
H	 -2.394376	 -0.621606	 -1.126454
H	 -3.093943	 -0.955098	 0.452785
H	 -1.773358	 -1.945469	 -0.155351

	symmetry c1
}
set optking {
	frozen_dihedral = ("
		11 9 6 3
	")
}

ee,wfn = optimize('scf', return_wfn=True)
oeprop( wfn, 'DIPOLE', 'QUADRUPOLE', 'MULLIKEN_CHARGES')
f=open( 'psi4out.xyz', 'w' )
f.write( "15  " )
f.write( str(ee) + "\n" )
f.write( MOL.save_string_xyz() )
f.close()
--------------------------------------------------------------------------

    Molecular point group: c1
  Charge       = 0
  Multiplicity = 1
  Basis Set: CC-PVTZ
  Basis Set:
  @DF-RHF Final Energy:  -232.23057735784144
    Total Energy =                       -232.2305773578413550
    Molecular point group: c1
  Basis Set: CC-PVTZ
  Basis Set:
  Basis Set: CC-PVTZ
  Basis Set:
  @DF-RHF Final Energy:  -232.23075000458815
    Total Energy =                       -232.2307500045881170
  Basis Set: CC-PVTZ
  Basis Set:
  Basis Set: CC-PVTZ
  Basis Set:
  @DF-RHF Final Energy:  -232.23081377901411
    Total Energy =                       -232.2308137790142268
  Basis Set: CC-PVTZ
  Basis Set:
  Charge       = 0
  Multiplicity = 1
  Basis Set: CC-PVTZ
  Basis Set:

    Orbital Energies (a.u.)
    -----------------------

    Doubly Occupied:

       1A    -20.543057     2A    -11.266856     3A    -11.265890
       4A    -11.206947     5A    -11.206847     6A     -1.377900
       7A     -1.044340     8A     -0.983595     9A     -0.849747
      10A     -0.824292    11A     -0.674891    12A     -0.666093
      13A     -0.623169    14A     -0.584663    15A     -0.550193
      16A     -0.535046    17A     -0.522557    18A     -0.497887
      19A     -0.486802    20A     -0.465560    21A     -0.408910

  @DF-RHF Final Energy:  -232.23081447745352

   => Energetics <=

    Nuclear Repulsion Energy =            191.3546040421639987
    One-Electron Energy =                -694.0003513263239938
    Two-Electron Energy =                 270.4149328067065881
    DFT Exchange-Correlation Energy =       0.0000000000000000
    Empirical Dispersion Energy =           0.0000000000000000
    PCM Polarization Energy =               0.0000000000000000
    EFP Energy =                            0.0000000000000000
    Total Energy =                       -232.2308144774534071
    Molecular point group: c1
  Basis Set: CC-PVTZ
  Basis Set:

  -Total Gradient:
     Atom            X                  Y                   Z
    ------   -----------------  -----------------  -----------------
       1       -0.000007448793    -0.000010370589     0.000012889872
       2        0.000008370777    -0.000005361865     0.000004788540
       3        0.000069196377    -0.002046631819    -0.000001912835
       4        0.000028753749    -0.000003240235    -0.000002714983
       5        0.000000081504     0.000006565994     0.000003256164
       6       -0.000433243265     0.002874659741    -0.000514654745
       7       -0.000014003688    -0.000013410118    -0.000010822102
       8       -0.000020041422     0.000008518479    -0.000016024179
       9        0.001714744631    -0.000389656188     0.002612856550
      10       -0.000009849657     0.000046359281     0.000011484007
      11       -0.001326411226    -0.000467558014    -0.002119875998
      12       -0.000016210642    -0.000004953162     0.000013183748
      13       -0.000007475622    -0.000014975585     0.000004780850
      14        0.000000561272    -0.000001232681    -0.000006181326
      15        0.000012976004     0.000021286761     0.000008946438

  **** Optimization is complete! (in 4 steps) ****
    Final optimized geometry and variables:
    Molecular point group: c1

    Geometry (in Angstrom), charge = 0, multiplicity = 1:

    H            2.297613055912     1.075390368212    -1.113771825044
    C            2.324109122384     0.196370702586    -0.481992916390
    C            1.149951765408     0.193304408934     0.472086447182
    H            3.257668565342     0.195679631137     0.069384769654
    H            2.298170675976    -0.679865260792    -1.117775629134
    O           -0.032413245288     0.185942216494    -0.266679603297
    H            1.189238789064     1.070969005459     1.116035742200
    H            1.191502557622    -0.682828084797     1.117032400985
    C           -1.219260538436     0.179321876829     0.472018247231
    C           -2.224086112203    -0.742006205776    -0.190576585988
    H           -1.624882639223     1.187413780159     0.510382645028
    H           -1.032870702144    -0.143826946868     1.492292646350
    H           -2.401550912728    -0.431965063565    -1.212919591996
    H           -3.167981757823    -0.720457275382     0.343307075769
    H           -1.858195067497    -1.761556951665    -0.204692418034

  Mulliken Charges: (a.u.)
   Center  Symbol    Alpha    Beta     Spin     Total
       1     H     0.45142  0.45142  0.00000  0.09715
       2     C     3.13696  3.13696  0.00000 -0.27392
       3     C     2.96472  2.96472  0.00000  0.07056
       4     H     0.45921  0.45921  0.00000  0.08158
       5     H     0.45175  0.45175  0.00000  0.09649
       6     O     4.18309  4.18309  0.00000 -0.36618
       7     H     0.47297  0.47297  0.00000  0.05405
       8     H     0.47397  0.47397  0.00000  0.05207
       9     C     2.97145  2.97145  0.00000  0.05709
      10     C     3.13397  3.13397  0.00000 -0.26794
      11     H     0.46319  0.46319  0.00000  0.07362
      12     H     0.47245  0.47245  0.00000  0.05510
      13     H     0.45078  0.45078  0.00000  0.09844
      14     H     0.45923  0.45923  0.00000  0.08153
      15     H     0.45482  0.45482  0.00000  0.09037

   Total alpha = 21.00000, Total beta = 21.00000, Total charge = -0.00000

*** Psi4 exiting successfully. Buy a developer a beer!
