  ==> Input File <==

--------------------------------------------------------------------------
set {
	reference rhf
	basis 6-31G*
}

set_num_threads( 1 )
memory 2 gb

molecule MOL {
0 1

H	 3.276176	 0.174363	 -0.109463
N	 2.434251	 -0.367735	 -0.081097
C	 1.267428	 0.496480	 0.024474
H	 2.501951	 -0.965776	 0.720575
C	 -0.016086	 -0.325158	 -0.029487
H	 1.288818	 1.183521	 -0.816092
H	 1.267576	 1.109062	 0.929528
C	 -1.282277	 0.529072	 0.046735
H	 -0.012495	 -0.908639	 -0.945788
H	 -0.015903	 -1.041248	 0.791956
C	 -2.117120	 0.244422	 1.294818
H	 -1.889252	 0.353504	 -0.839123
H	 -1.012279	 1.582963	 0.027430
H	 -2.432795	 -0.794380	 1.325828
H	 -3.009110	 0.862626	 1.321251
H	 -1.549617	 0.443505	 2.199543

	symmetry c1
}
set optking {
	frozen_dihedral = ("
		6 3 5 9,
		1 2 3 6
	")
}

ee = energy('scf')
oeprop('DIPOLE', 'QUADRUPOLE', 'MULLIKEN_CHARGES')
f=open( 'psi4out.xyz', 'w' )
f.write( "16  " )
f.write( str(ee) + "\n" )
f.write( MOL.save_string_xyz() )
f.close()
--------------------------------------------------------------------------

    Molecular point group: c1

    Geometry (in Angstrom), charge = 0, multiplicity = 1:

       Center              X                  Y                   Z               Mass
    ------------   -----------------  -----------------  -----------------  -----------------
           H          3.184356774027     0.062123101022    -0.376870093927     1.007825032070
           N          2.342431774027    -0.479974898978    -0.348504093927    14.003074004780
           C          1.175608774027     0.384240101022    -0.242933093927    12.000000000000
           H          2.410131774027    -1.078015898978     0.453167906073     1.007825032070
           C         -0.107905225973    -0.437397898978    -0.296894093927    12.000000000000
           H          1.196998774027     1.071281101022    -1.083499093927     1.007825032070
           H          1.175756774027     0.996822101022     0.662120906073     1.007825032070
           C         -1.374096225973     0.416832101022    -0.220672093927    12.000000000000
           H         -0.104314225973    -1.020878898978    -1.213195093927     1.007825032070
           H         -0.107722225973    -1.153487898978     0.524548906073     1.007825032070
           C         -2.208939225973     0.132182101022     1.027410906073    12.000000000000
           H         -1.981071225973     0.241264101022    -1.106530093927     1.007825032070
           H         -1.104098225973     1.470723101022    -0.239977093927     1.007825032070
           H         -2.524614225973    -0.906619898978     1.058420906073     1.007825032070
           H         -3.100929225973     0.750386101022     1.053843906073     1.007825032070
           H         -1.641436225973     0.331265101022     1.932135906073     1.007825032070

  Charge       = 0
  Multiplicity = 1
  Basis Set: 6-31G*
  Basis Set:

    Orbital Energies (a.u.)
    -----------------------

    Doubly Occupied:

       1A    -15.532453     2A    -11.240484     3A    -11.213666
       4A    -11.208677     5A    -11.208004     6A     -1.176740
       7A     -1.059886     8A     -0.957448     9A     -0.847485
      10A     -0.790271    11A     -0.660485    12A     -0.637458
      13A     -0.604351    14A     -0.584258    15A     -0.561992
      16A     -0.521587    17A     -0.507852    18A     -0.470384
      19A     -0.459539    20A     -0.458165    21A     -0.381340

  @DF-RHF Final Energy:  -212.31154260833316

   => Energetics <=

    Nuclear Repulsion Energy =            187.3036293163391122
    One-Electron Energy =                -657.0653630319175136
    Two-Electron Energy =                 257.4501911072455300
    DFT Exchange-Correlation Energy =       0.0000000000000000
    Empirical Dispersion Energy =           0.0000000000000000
    PCM Polarization Energy =               0.0000000000000000
    EFP Energy =                            0.0000000000000000
    Total Energy =                       -212.3115426083328998

  Mulliken Charges: (a.u.)
   Center  Symbol    Alpha    Beta     Spin     Total
       1     H     0.33259  0.33259  0.00000  0.33482
       2     N     3.92187  3.92187  0.00000 -0.84374
       3     C     3.06348  3.06348  0.00000 -0.12696
       4     H     0.33524  0.33524  0.00000  0.32951
       5     C     3.15350  3.15350  0.00000 -0.30700
       6     H     0.42023  0.42023  0.00000  0.15955
       7     H     0.43464  0.43464  0.00000  0.13072
       8     C     3.15848  3.15848  0.00000 -0.31696
       9     H     0.41079  0.41079  0.00000  0.17841
      10     H     0.42498  0.42498  0.00000  0.15005
      11     C     3.24009  3.24009  0.00000 -0.48018
      12     H     0.41865  0.41865  0.00000  0.16270
      13     H     0.42123  0.42123  0.00000  0.15755
      14     H     0.42075  0.42075  0.00000  0.15850
      15     H     0.42056  0.42056  0.00000  0.15888
      16     H     0.42291  0.42291  0.00000  0.15418

   Total alpha = 21.00000, Total beta = 21.00000, Total charge =  0.00000
