  ==> Input File <==

--------------------------------------------------------------------------
set {
	reference rhf
	basis 6-31G*
}

set_num_threads( 4 )
memory 2 gb

molecule MOL {
0 1

H	 -2.504813	 0.411888	 0.719566
O	 -2.315789	 -0.143634	 -0.024262
C	 -0.945151	 -0.064130	 -0.333158
H	 -0.813375	 -0.223047	 -1.403232
C	 -0.232801	 -1.184051	 0.407206
C	 -0.355424	 1.302939	 0.054523
H	 -0.318824	 -0.992899	 1.473524
H	 -0.742411	 -2.122033	 0.217954
C	 1.248522	 -1.270719	 -0.013048
H	 -0.546144	 2.018388	 -0.742941
H	 -0.890929	 1.656788	 0.930149
C	 1.156425	 1.235120	 0.355905
H	 1.825384	 -1.683246	 0.809111
H	 1.357782	 -1.965923	 -0.840362
C	 1.828244	 0.099899	 -0.419275
H	 1.626109	 2.185622	 0.123525
H	 1.309438	 1.071213	 1.419539
H	 2.901447	 0.112642	 -0.255830
H	 1.681817	 0.263413	 -1.484607

	symmetry c1
}
set optking {
	frozen_dihedral = ("
		1 2 3 4
	")
}

ee = optimize('scf')
oeprop('DIPOLE', 'QUADRUPOLE', 'MULLIKEN_CHARGES')
f=open( 'psi4out.xyz', 'w' )
f.write( "19  " )
f.write( str(ee) + "\n" )
f.write( MOL.save_string_xyz() )
f.close()
--------------------------------------------------------------------------

    Molecular point group: c1
  Charge       = 0
  Multiplicity = 1
  Basis Set: 6-31G*
  Basis Set:
  @DF-RHF Final Energy:  -309.04562437514937
    Total Energy =                       -309.0456243751490319
    Molecular point group: c1
  Basis Set: 6-31G*
  Basis Set:
  Basis Set: 6-31G*
  Basis Set:
  @DF-RHF Final Energy:  -309.04698650136805
    Total Energy =                       -309.0469865013683375
  Basis Set: 6-31G*
  Basis Set:
  Basis Set: 6-31G*
  Basis Set:
  @DF-RHF Final Energy:  -309.04722156661063
    Total Energy =                       -309.0472215666105740
  Basis Set: 6-31G*
  Basis Set:
  Basis Set: 6-31G*
  Basis Set:
  @DF-RHF Final Energy:  -309.04722764408979
    Total Energy =                       -309.0472276440900714
  Basis Set: 6-31G*
  Basis Set:
  Charge       = 0
  Multiplicity = 1
  Basis Set: 6-31G*
  Basis Set:

    Orbital Energies (a.u.)
    -----------------------

    Doubly Occupied:

       1A    -20.548569     2A    -11.268994     3A    -11.220914
       4A    -11.220354     5A    -11.217932     6A    -11.216836
       7A    -11.209532     8A     -1.358161     9A     -1.110587
      10A     -1.004896    11A     -0.988972    12A     -0.845417
      13A     -0.842793    14A     -0.750579    15A     -0.673983
      16A     -0.663870    17A     -0.612736    18A     -0.607328
      19A     -0.579601    20A     -0.557934    21A     -0.530376
      22A     -0.521750    23A     -0.502538    24A     -0.489619
      25A     -0.467184    26A     -0.450489    27A     -0.430244
      28A     -0.407955

  @DF-RHF Final Energy:  -309.04722824758301

   => Energetics <=

    Nuclear Repulsion Energy =            331.1901847243440216
    One-Electron Energy =               -1075.8745388915717740
    Two-Electron Energy =                 435.6371259196446317
    DFT Exchange-Correlation Energy =       0.0000000000000000
    Empirical Dispersion Energy =           0.0000000000000000
    PCM Polarization Energy =               0.0000000000000000
    EFP Energy =                            0.0000000000000000
    Total Energy =                       -309.0472282475831207
    Molecular point group: c1
  Basis Set: 6-31G*
  Basis Set:

  -Total Gradient:
     Atom            X                  Y                   Z
    ------   -----------------  -----------------  -----------------
       1       -0.000238402301     0.001642107645    -0.001266674764
       2        0.000284578916    -0.001672523579     0.001523705933
       3        0.000067258998    -0.001732238353     0.000025179663
       4       -0.000097393389     0.001761345649    -0.000246679413
       5       -0.000012701639     0.000014020759    -0.000024503735
       6        0.000002705836    -0.000016334899    -0.000003035682
       7        0.000004850236    -0.000006304947    -0.000002577293
       8        0.000006720176    -0.000004480482     0.000008012214
       9       -0.000010611752    -0.000000335425     0.000035469301
      10        0.000008964122     0.000005415704    -0.000021863967
      11       -0.000006753003     0.000013193051    -0.000013691464
      12       -0.000013288174     0.000003116335    -0.000000071615
      13        0.000020428445    -0.000016496664    -0.000006174802
      14       -0.000005292879     0.000009972637    -0.000006382715
      15       -0.000005684261     0.000015456780    -0.000022332302
      16       -0.000003928070     0.000007599122     0.000019035431
      17       -0.000001931992    -0.000009043186     0.000004590327
      18       -0.000011831766    -0.000012607802     0.000005188895
      19        0.000012312501    -0.000001862343    -0.000007194013

  **** Optimization is complete! (in 5 steps) ****
    Final optimized geometry and variables:
    Molecular point group: c1

    Geometry (in Angstrom), charge = 0, multiplicity = 1:

    H           -2.572216235764     0.422247462962     0.635320077730
    O           -2.338469189761    -0.116558139981    -0.106657892601
    C           -0.947402219045    -0.067500370393    -0.315735431755
    H           -0.820355993591    -0.207445801415    -1.383715803703
    C           -0.224451131340    -1.191890569561     0.416471402101
    C           -0.356305395081     1.298894847380     0.069510112301
    H           -0.298716067318    -1.011608897818     1.487605544764
    H           -0.734188613718    -2.129492621824     0.225374814710
    C            1.255292082540    -1.274103826977    -0.013508873841
    H           -0.573055713235     2.014803678646    -0.717473015048
    H           -0.863910597014     1.661908182649     0.962497964589
    C            1.160397103180     1.232364795170     0.346499966315
    H            1.843458460349    -1.675674729925     0.806146558695
    H            1.361445407918    -1.974813752355    -0.836336271714
    C            1.821897997314     0.096786177293    -0.436729353023
    H            1.623875034317     2.183585663023     0.105217069107
    H            1.332221859482     1.070021463837     1.407649493939
    H            2.897593525650     0.114949253064    -0.291738989691
    H            1.656351722865     0.255579175932    -1.499706531922

  Mulliken Charges: (a.u.)
   Center  Symbol    Alpha    Beta     Spin     Total
       1     H     0.28302  0.28302  0.00000  0.43396
       2     O     4.38180  4.38180  0.00000 -0.76361
       3     C     2.90148  2.90148  0.00000  0.19704
       4     H     0.41827  0.41827  0.00000  0.16347
       5     C     3.16952  3.16952  0.00000 -0.33903
       6     C     3.17468  3.17468  0.00000 -0.34936
       7     H     0.42627  0.42627  0.00000  0.14746
       8     H     0.40883  0.40883  0.00000  0.18233
       9     C     3.16087  3.16087  0.00000 -0.32173
      10     H     0.41236  0.41236  0.00000  0.17527
      11     H     0.42832  0.42832  0.00000  0.14335
      12     C     3.16308  3.16308  0.00000 -0.32616
      13     H     0.41824  0.41824  0.00000  0.16351
      14     H     0.41724  0.41724  0.00000  0.16552
      15     C     3.16467  3.16467  0.00000 -0.32934
      16     H     0.41543  0.41543  0.00000  0.16915
      17     H     0.41970  0.41970  0.00000  0.16061
      18     H     0.41605  0.41605  0.00000  0.16790
      19     H     0.42017  0.42017  0.00000  0.15966

   Total alpha = 28.00000, Total beta = 28.00000, Total charge = -0.00000
