  ==> Input File <==

--------------------------------------------------------------------------
set {
	reference rhf
	basis 6-31G*
}

set_num_threads( 4 )
memory 2 gb

molecule MOL {
0 1

H	 -2.268161	 1.181737	 -1.766952
N	 -1.283656	 1.112341	 -1.596928
C	 -0.776064	 -0.177449	 -2.030399
H	 -1.143207	 1.212297	 -0.610321
C	 0.704834	 -0.277633	 -1.730329
H	 -1.279329	 -1.026120	 -1.565122
H	 -0.917628	 -0.263192	 -3.103427
O	 0.874168	 -0.245412	 -0.342030
H	 1.109264	 -1.205010	 -2.135354
H	 1.229039	 0.555224	 -2.193788
C	 2.202317	 -0.244239	 0.074611
H	 2.711377	 -1.041390	 -0.449894
H	 2.692099	 0.699270	 -0.159667
H	 2.283185	 -0.418429	 1.145558

	symmetry c1
}
set optking {
	frozen_dihedral = ("
		5 8 11 13
	")
}

ee = optimize('scf')
oeprop('DIPOLE', 'QUADRUPOLE', 'MULLIKEN_CHARGES')
f=open( 'psi4out.xyz', 'w' )
f.write( "14  " )
f.write( str(ee) + "\n" )
f.write( MOL.save_string_xyz() )
f.close()
--------------------------------------------------------------------------

    Molecular point group: c1
  Charge       = 0
  Multiplicity = 1
  Basis Set: 6-31G*
  Basis Set:
  @DF-RHF Final Energy:  -248.12386310450432
    Total Energy =                       -248.1238631045043803
    Molecular point group: c1
  Basis Set: 6-31G*
  Basis Set:
  Basis Set: 6-31G*
  Basis Set:
  @DF-RHF Final Energy:  -248.12478376331390
    Total Energy =                       -248.1247837633138715
  Basis Set: 6-31G*
  Basis Set:
  Basis Set: 6-31G*
  Basis Set:
  @DF-RHF Final Energy:  -248.12504656203220
    Total Energy =                       -248.1250465620323098
  Basis Set: 6-31G*
  Basis Set:
  Basis Set: 6-31G*
  Basis Set:
  @DF-RHF Final Energy:  -248.12504776087110
    Total Energy =                       -248.1250477608710412
  Basis Set: 6-31G*
  Basis Set:
  Charge       = 0
  Multiplicity = 1
  Basis Set: 6-31G*
  Basis Set:

    Orbital Energies (a.u.)
    -----------------------

    Doubly Occupied:

       1A    -20.557257     2A    -15.528451     3A    -11.266158
       4A    -11.265627     5A    -11.240777     6A     -1.381156
       7A     -1.173596     8A     -0.999025     9A     -0.907196
      10A     -0.815120    11A     -0.683981    12A     -0.673800
      13A     -0.644819    14A     -0.610322    15A     -0.605045
      16A     -0.540616    17A     -0.530793    18A     -0.496557
      19A     -0.472667    20A     -0.417352    21A     -0.380098

  @DF-RHF Final Energy:  -248.12504814643083

   => Energetics <=

    Nuclear Repulsion Energy =            194.6554511434880794
    One-Electron Energy =                -723.1801724552133237
    Two-Electron Energy =                 280.3996731652945869
    DFT Exchange-Correlation Energy =       0.0000000000000000
    Empirical Dispersion Energy =           0.0000000000000000
    PCM Polarization Energy =               0.0000000000000000
    EFP Energy =                            0.0000000000000000
    Total Energy =                       -248.1250481464306290
    Molecular point group: c1
  Basis Set: 6-31G*
  Basis Set:

  -Total Gradient:
     Atom            X                  Y                   Z
    ------   -----------------  -----------------  -----------------
       1       -0.000000622257     0.000002022713     0.000005151670
       2       -0.000003702092    -0.000002774639     0.000000374328
       3        0.000009079199     0.000016768551    -0.000010817967
       4       -0.000003779446    -0.000002027799     0.000004907862
       5       -0.000006861845    -0.001145766092     0.000021596486
       6        0.000010299081     0.000005306742     0.000002030764
       7       -0.000000212061    -0.000001137667    -0.000004213066
       8       -0.000089427222     0.001749056302     0.000334619774
       9        0.000005520325    -0.000001930656     0.000002212049
      10       -0.000008909498    -0.000002454123     0.000004050696
      11        0.000498081158    -0.001124777237    -0.001609124251
      12       -0.000002283178     0.000000185950    -0.000002988087
      13       -0.000401508448     0.000506093515     0.001251105549
      14       -0.000005673720     0.000001434440     0.000001094191

  **** Optimization is complete! (in 5 steps) ****
    Final optimized geometry and variables:
    Molecular point group: c1

    Geometry (in Angstrom), charge = 0, multiplicity = 1:

    H           -2.617282841508     1.146789392035    -0.644294529258
    N           -1.632134048976     1.075716507701    -0.478932492169
    C           -1.127155944424    -0.212186215329    -0.921222179677
    H           -1.487499458764     1.170525482024     0.507571928858
    C            0.355255308905    -0.314846259471    -0.629669516568
    H           -1.628130558679    -1.062817645527    -0.457068349784
    H           -1.274561324760    -0.292980486140    -1.993814087804
    O            0.531316698213    -0.290125627488     0.758050318691
    H            0.757319536792    -1.240661806148    -1.040136368275
    H            0.877049331195     0.519751856455    -1.092857121379
    C            1.861564852981    -0.288840833403     1.169431942097
    H            2.424472963709    -1.096384656840     0.705956950423
    H            2.347316676638     0.656775937003     0.938107175902
    H            1.871931108982    -0.428412064703     2.242157483568

  Mulliken Charges: (a.u.)
   Center  Symbol    Alpha    Beta     Spin     Total
       1     H     0.33283  0.33283  0.00000  0.33435
       2     N     3.92525  3.92525  0.00000 -0.85050
       3     C     3.06893  3.06893  0.00000 -0.13786
       4     H     0.32375  0.32375  0.00000  0.35250
       5     C     2.99017  2.99017  0.00000  0.01967
       6     H     0.42662  0.42662  0.00000  0.14675
       7     H     0.42046  0.42046  0.00000  0.15908
       8     O     4.30989  4.30989  0.00000 -0.61978
       9     H     0.43076  0.43076  0.00000  0.13849
      10     H     0.42275  0.42275  0.00000  0.15450
      11     C     3.07892  3.07892  0.00000 -0.15784
      12     H     0.43022  0.43022  0.00000  0.13955
      13     H     0.42653  0.42653  0.00000  0.14694
      14     H     0.41293  0.41293  0.00000  0.17415

   Total alpha = 21.00000, Total beta = 21.00000, Total charge =  0.00000
