  ==> Input File <==

--------------------------------------------------------------------------
set {
	reference rhf
	basis 6-31G*
}

set_num_threads( 4 )
memory 2 gb

molecule MOL {
0 1

H	 -2.824612	 -1.121832	 0.547382
C	 -3.020319	 -0.539428	 -0.361534
C	 -2.660244	 0.921717	 -0.272021
O	 -3.483773	 -1.066431	 -1.320298
C	 -1.220012	 1.144545	 0.209990
H	 -2.831045	 1.376125	 -1.241067
H	 -3.349831	 1.378203	 0.437024
C	 -0.252658	 0.041456	 -0.226725
H	 -0.873521	 2.100229	 -0.171974
H	 -1.211708	 1.231594	 1.295398
C	 1.180775	 0.282413	 0.250794
H	 -0.266029	 -0.034465	 -1.312038
H	 -0.597733	 -0.921000	 0.146291
C	 2.148627	 -0.814315	 -0.201312
H	 1.516199	 1.249228	 -0.115937
H	 1.192670	 0.346017	 1.338083
C	 3.580890	 -0.659131	 0.322722
H	 2.166869	 -0.852443	 -1.289387
H	 1.762857	 -1.776509	 0.128956
C	 4.324889	 0.564933	 -0.213704
H	 4.142010	 -1.551473	 0.056605
H	 3.564836	 -0.624694	 1.410140
H	 4.342616	 0.565491	 -1.300421
H	 3.866655	 1.493402	 0.110242
H	 5.353900	 0.572371	 0.132816

	symmetry c1
}
set optking {
	frozen_dihedral = ("
		6 3 5 8
	")
}

ee = optimize('scf')
oeprop('DIPOLE', 'QUADRUPOLE', 'MULLIKEN_CHARGES')
f=open( 'psi4out.xyz', 'w' )
f.write( "25  " )
f.write( str(ee) + "\n" )
f.write( MOL.save_string_xyz() )
f.close()
--------------------------------------------------------------------------

    Molecular point group: c1
  Charge       = 0
  Multiplicity = 1
  Basis Set: 6-31G*
  Basis Set:
  @DF-RHF Final Energy:  -387.11662259678297
    Total Energy =                       -387.1166225967826904
    Molecular point group: c1
  Basis Set: 6-31G*
  Basis Set:
  Basis Set: 6-31G*
  Basis Set:
  @DF-RHF Final Energy:  -387.11609509642875
    Total Energy =                       -387.1160950964282392
  Basis Set: 6-31G*
  Basis Set:
  Basis Set: 6-31G*
  Basis Set:
  @DF-RHF Final Energy:  -387.11397779347800
    Total Energy =                       -387.1139777934783979
  Basis Set: 6-31G*
  Basis Set:
  Basis Set: 6-31G*
  Basis Set:
  @DF-RHF Final Energy:  -387.11769327897889
    Total Energy =                       -387.1176932789788907
  Basis Set: 6-31G*
  Basis Set:
  Basis Set: 6-31G*
  Basis Set:
  @DF-RHF Final Energy:  -387.11781831622756
    Total Energy =                       -387.1178183162274991
  Basis Set: 6-31G*
  Basis Set:
  Basis Set: 6-31G*
  Basis Set:
  @DF-RHF Final Energy:  -387.11782156026783
    Total Energy =                       -387.1178215602670889
  Basis Set: 6-31G*
  Basis Set:
  Basis Set: 6-31G*
  Basis Set:
  @DF-RHF Final Energy:  -387.11785272396497
    Total Energy =                       -387.1178527239649156
  Basis Set: 6-31G*
  Basis Set:
  Charge       = 0
  Multiplicity = 1
  Basis Set: 6-31G*
  Basis Set:

    Orbital Energies (a.u.)
    -----------------------

    Doubly Occupied:

       1A    -20.561236     2A    -11.326166     3A    -11.235464
       4A    -11.234417     5A    -11.225112     6A    -11.220469
       7A    -11.218349     8A    -11.217384     9A    -11.210766
      10A     -1.401193    11A     -1.103104    12A     -1.068464
      13A     -1.013060    14A     -0.942827    15A     -0.876800
      16A     -0.827757    17A     -0.782438    18A     -0.779077
      19A     -0.669740    20A     -0.655944    21A     -0.632675
      22A     -0.626024    23A     -0.603440    24A     -0.594057
      25A     -0.575563    26A     -0.547280    27A     -0.542255
      28A     -0.523086    29A     -0.502243    30A     -0.497338
      31A     -0.494741    32A     -0.474626    33A     -0.464708
      34A     -0.459626    35A     -0.441836    36A     -0.409026

  @DF-RHF Final Energy:  -387.11785236470359

   => Energetics <=

    Nuclear Repulsion Energy =            440.1867492184317143
    One-Electron Energy =               -1396.6926237558893718
    Two-Electron Energy =                 569.3880221727545177
    DFT Exchange-Correlation Energy =       0.0000000000000000
    Empirical Dispersion Energy =           0.0000000000000000
    PCM Polarization Energy =               0.0000000000000000
    EFP Energy =                            0.0000000000000000
    Total Energy =                       -387.1178523647031398
    Molecular point group: c1
  Basis Set: 6-31G*
  Basis Set:

  -Total Gradient:
     Atom            X                  Y                   Z
    ------   -----------------  -----------------  -----------------
       1       -0.000013542773    -0.000007879414     0.000004298380
       2        0.000001857673    -0.000023978786     0.000012367301
       3        0.001617329079    -0.007353341293    -0.002187267397
       4       -0.000002925905     0.000004284998     0.000000455377
       5        0.001037345089     0.004684594137    -0.004299758493
       6       -0.001646986856     0.005073918422     0.002924105209
       7        0.000006332142     0.000001630701    -0.000018501156
       8       -0.001008286861    -0.002380480797     0.003537484056
       9        0.000001670793     0.000004653039     0.000004739698
      10        0.000016820580     0.000000729758    -0.000007230411
      11       -0.000017709970    -0.000020569737     0.000047119508
      12        0.000004964741    -0.000004026009    -0.000010251264
      13       -0.000000847722     0.000017017912     0.000006514778
      14        0.000015011147     0.000012852441    -0.000029463638
      15       -0.000022689219    -0.000014102624     0.000008786084
      16       -0.000002389273    -0.000000895867     0.000019285605
      17       -0.000008883594     0.000021293375    -0.000001273440
      18       -0.000005820822     0.000003869034    -0.000006855102
      19        0.000025455185    -0.000004988991    -0.000001050501
      20        0.000012652385    -0.000009322589    -0.000006726205
      21       -0.000004506963    -0.000009413920     0.000010656631
      22       -0.000014594751     0.000017178512    -0.000002645481
      23       -0.000006917728     0.000005998810    -0.000005999617
      24        0.000013857817    -0.000010606936     0.000008416725
      25        0.000002805825    -0.000008414178    -0.000007206648

  **** Optimization is complete! (in 8 steps) ****
    Final optimized geometry and variables:
    Molecular point group: c1

    Geometry (in Angstrom), charge = 0, multiplicity = 1:

    H           -3.145700888870    -1.075165480942     0.744171968281
    C           -3.195021769731    -0.490467494797    -0.181658161658
    C           -2.723393886083     0.934832848400    -0.068293168975
    O           -3.619217581394    -0.983874520803    -1.176166651698
    C           -1.280408759502     1.100171289688     0.459388621971
    H           -2.858767374749     1.438302531559    -1.018047389951
    H           -3.399901291704     1.429006143820     0.628819175764
    C           -0.299981703546     0.010138399926     0.011752999746
    H           -0.917208571375     2.074111567387     0.147737879078
    H           -1.296831018704     1.118055496126     1.546427037731
    C            1.133502876543     0.283685544902     0.471635787623
    H           -0.321409871996    -0.078176152895    -1.072837384213
    H           -0.618350232525    -0.954187687137     0.400857517222
    C            2.114393461319    -0.809585308918     0.039603131474
    H            1.451167196498     1.245997651468     0.078800083689
    H            1.152150311077     0.374236013349     1.556912883121
    C            3.548207123457    -0.619333819540     0.547565890308
    H            2.124793963828    -0.874635329095    -1.047102413722
    H            1.746352438309    -1.769126014091     0.396842312108
    C            4.270441692136     0.599972772695    -0.028581618340
    H            4.120037856777    -1.510830178784     0.302471055816
    H            3.539326440268    -0.554547896619     1.633780993960
    H            4.282074127081     0.569260683022    -1.114797544664
    H            3.800349740493     1.530741825902     0.271226130962
    H            5.301069120753     0.632837116693     0.310990035966

  Mulliken Charges: (a.u.)
   Center  Symbol    Alpha    Beta     Spin     Total
       1     H     0.43153  0.43153  0.00000  0.13695
       2     C     2.83127  2.83127  0.00000  0.33746
       3     C     3.21063  3.21063  0.00000 -0.42125
       4     O     4.23805  4.23805  0.00000 -0.47609
       5     C     3.16029  3.16029  0.00000 -0.32058
       6     H     0.39922  0.39922  0.00000  0.20157
       7     H     0.40853  0.40853  0.00000  0.18295
       8     C     3.16140  3.16140  0.00000 -0.32281
       9     H     0.41180  0.41180  0.00000  0.17640
      10     H     0.41867  0.41867  0.00000  0.16266
      11     C     3.15398  3.15398  0.00000 -0.30797
      12     H     0.41435  0.41435  0.00000  0.17130
      13     H     0.42135  0.42135  0.00000  0.15730
      14     C     3.15306  3.15306  0.00000 -0.30613
      15     H     0.42010  0.42010  0.00000  0.15980
      16     H     0.42381  0.42381  0.00000  0.15238
      17     C     3.15279  3.15279  0.00000 -0.30559
      18     H     0.42221  0.42221  0.00000  0.15559
      19     H     0.42141  0.42141  0.00000  0.15719
      20     C     3.24141  3.24141  0.00000 -0.48281
      21     H     0.41990  0.41990  0.00000  0.16020
      22     H     0.42341  0.42341  0.00000  0.15317
      23     H     0.42157  0.42157  0.00000  0.15687
      24     H     0.42064  0.42064  0.00000  0.15871
      25     H     0.41862  0.41862  0.00000  0.16275

   Total alpha = 36.00000, Total beta = 36.00000, Total charge = -0.00000
