                              Psi4 1.0.54 Driver

  ==> Input File <==

--------------------------------------------------------------------------
set {
	reference rhf
	basis cc-pvtz
}

set_num_threads( 4 )
memory 2 gb

molecule MOL {
0 1

H	 -2.859970	 -0.992399	 -1.852809
O	 -2.308640	 -1.193962	 -1.111779
C	 -1.243980	 -0.397745	 -1.150159
C	 -0.310616	 -0.658853	 0.000791
O	 -1.087762	 0.402783	 -2.006151
C	 0.926581	 0.227233	 0.000178
H	 -0.043384	 -1.709984	 -0.037140
H	 -0.885557	 -0.533474	 0.912625
C	 2.220156	 -0.582071	 -0.000088
H	 0.899945	 0.878221	 -0.866390
H	 0.900542	 0.878581	 0.866486
C	 3.466689	 0.296012	 -0.000457
H	 2.239073	 -1.234095	 -0.869382
H	 2.239505	 -1.233985	 0.869270
H	 3.493549	 0.935857	 -0.875887
H	 4.368821	 -0.304526	 -0.001199
H	 3.494559	 0.935166	 0.875458

	symmetry c1
}
set optking {
	frozen_dihedral = ("
		7 4 6 10
	")
}

ee,wfn = optimize('scf', return_wfn=True)
oeprop( wfn, 'DIPOLE', 'QUADRUPOLE', 'MULLIKEN_CHARGES')
f=open( 'psi4out.xyz', 'w' )
f.write( "17  " )
f.write( str(ee) + "\n" )
f.write( MOL.save_string_xyz() )
f.close()
--------------------------------------------------------------------------

    Molecular point group: c1
  Charge       = 0
  Multiplicity = 1
  Basis Set: CC-PVTZ
  Basis Set:
  @DF-RHF Final Energy:  -345.04409844001191
    Total Energy =                       -345.0440984400118509
    Molecular point group: c1
  Basis Set: CC-PVTZ
  Basis Set:
  Basis Set: CC-PVTZ
  Basis Set:
  @DF-RHF Final Energy:  -345.04436550692458
    Total Energy =                       -345.0443655069246915
  Basis Set: CC-PVTZ
  Basis Set:
  Basis Set: CC-PVTZ
  Basis Set:
  @DF-RHF Final Energy:  -345.04413814203599
    Total Energy =                       -345.0441381420360472
  Basis Set: CC-PVTZ
  Basis Set:
  Basis Set: CC-PVTZ
  Basis Set:
  @DF-RHF Final Energy:  -345.04445535156628
    Total Energy =                       -345.0444553515666257
  Basis Set: CC-PVTZ
  Basis Set:
  Basis Set: CC-PVTZ
  Basis Set:
  @DF-RHF Final Energy:  -345.04446384631376
    Total Energy =                       -345.0444638463135902
  Basis Set: CC-PVTZ
  Basis Set:
  Basis Set: CC-PVTZ
  Basis Set:
  @DF-RHF Final Energy:  -345.04446524802029
    Total Energy =                       -345.0444652480202876
  Basis Set: CC-PVTZ
  Basis Set:
  Basis Set: CC-PVTZ
  Basis Set:
  @DF-RHF Final Energy:  -345.04446652895399
    Total Energy =                       -345.0444665289536488
  Basis Set: CC-PVTZ
  Basis Set:
  Charge       = 0
  Multiplicity = 1
  Basis Set: CC-PVTZ
  Basis Set:

    Orbital Energies (a.u.)
    -----------------------

    Doubly Occupied:

       1A    -20.604442     2A    -20.541617     3A    -11.374677
       4A    -11.239359     5A    -11.219947     6A    -11.219228
       7A    -11.209418     8A     -1.478459     9A     -1.369867
      10A     -1.089939    11A     -1.018819    12A     -0.914930
      13A     -0.825704    14A     -0.789728    15A     -0.705417
      16A     -0.694986    17A     -0.660887    18A     -0.630644
      19A     -0.590561    20A     -0.584919    21A     -0.581485
      22A     -0.528542    23A     -0.517746    24A     -0.485773
      25A     -0.482224    26A     -0.472750    27A     -0.467485
      28A     -0.449032

  @DF-RHF Final Energy:  -345.04446669288370

   => Energetics <=

    Nuclear Repulsion Energy =            305.9002121565764583
    One-Electron Energy =               -1076.3921837320870054
    Two-Electron Energy =                 425.4475048826270722
    DFT Exchange-Correlation Energy =       0.0000000000000000
    Empirical Dispersion Energy =           0.0000000000000000
    PCM Polarization Energy =               0.0000000000000000
    EFP Energy =                            0.0000000000000000
    Total Energy =                       -345.0444666928834749
    Molecular point group: c1
  Basis Set: CC-PVTZ
  Basis Set:

  -Total Gradient:
     Atom            X                  Y                   Z
    ------   -----------------  -----------------  -----------------
       1        0.000035024230     0.000015414479     0.000009639074
       2       -0.000046709240    -0.000065633830     0.000055821140
       3        0.000010483494     0.000075557072    -0.000116873461
       4       -0.000063767148     0.000033810595    -0.000294344219
       5        0.000016982282    -0.000018556065     0.000045155142
       6        0.000176932249    -0.000214733804    -0.000128937876
       7       -0.000007041235    -0.000007671993     0.000293281189
       8       -0.000010288946    -0.000004866729    -0.000009693971
       9        0.000016299199    -0.000007074246    -0.000019108481
      10       -0.000133840387     0.000200706730     0.000159097054
      11        0.000007549871    -0.000004283836    -0.000007617103
      12       -0.000003495413    -0.000001226389     0.000014424113
      13        0.000002926277     0.000002220693    -0.000006616295
      14        0.000001474392    -0.000007664534    -0.000001721306
      15       -0.000004882870    -0.000005928292    -0.000005625688
      16       -0.000001211542     0.000002750593     0.000005040444
      17        0.000003564785     0.000007179558     0.000008080243

  **** Optimization is complete! (in 8 steps) ****
    Final optimized geometry and variables:
    Molecular point group: c1

    Geometry (in Angstrom), charge = 0, multiplicity = 1:

    H           -3.094040091499    -0.702259015857    -1.183398761537
    O           -2.541216601179    -0.880055708847    -0.437497353699
    C           -1.452356797451    -0.121843559775    -0.531393083290
    C           -0.516331312140    -0.363453206217     0.624813116218
    O           -1.285629938143     0.626032035077    -1.431755300702
    C            0.744794841186     0.510287169107     0.628595565617
    H           -0.268586777033    -1.419271542762     0.594854746971
    H           -1.101722350985    -0.234702501428     1.527298073500
    C            2.038647829237    -0.300856937433     0.644096682475
    H            0.732659589982     1.153862074359    -0.240127220201
    H            0.725181665800     1.162717489414     1.494774782025
    C            3.285273094158     0.575738422198     0.664911127479
    H            2.064788084271    -0.945279409755    -0.230442459250
    H            2.045158063545    -0.958605380893     1.509389167667
    H            3.322754323572     1.220721513921    -0.206230851545
    H            4.186960616059    -0.025472285986     0.671731694211
    H            3.303351643076     1.209305906087     1.545499159159

  Mulliken Charges: (a.u.)
   Center  Symbol    Alpha    Beta     Spin     Total
       1     H     0.38265  0.38265  0.00000  0.23469
       2     O     4.15974  4.15974  0.00000 -0.31949
       3     C     2.79970  2.79970  0.00000  0.40060
       4     C     3.11942  3.11942  0.00000 -0.23884
       5     O     4.19073  4.19073  0.00000 -0.38145
       6     C     3.09479  3.09479  0.00000 -0.18958
       7     H     0.43697  0.43697  0.00000  0.12606
       8     H     0.43121  0.43121  0.00000  0.13758
       9     C     3.08660  3.08660  0.00000 -0.17319
      10     H     0.43524  0.43524  0.00000  0.12951
      11     H     0.45049  0.45049  0.00000  0.09902
      12     C     3.15010  3.15010  0.00000 -0.30020
      13     H     0.45259  0.45259  0.00000  0.09481
      14     H     0.45418  0.45418  0.00000  0.09165
      15     H     0.45218  0.45218  0.00000  0.09564
      16     H     0.44813  0.44813  0.00000  0.10373
      17     H     0.45527  0.45527  0.00000  0.08945

   Total alpha = 28.00000, Total beta = 28.00000, Total charge = -0.00000

*** Psi4 exiting successfully. Buy a developer a beer!
