  ==> Input File <==

--------------------------------------------------------------------------
set {
	reference rhf
	basis 6-31G*
}

set_num_threads( 4 )
memory 2 gb

molecule MOL {
0 1

H	 3.729471	 -0.928294	 -0.070608
O	 2.826016	 -1.159218	 0.122261
C	 2.077727	 -0.067559	 -0.035091
C	 0.624473	 -0.343591	 0.253101
O	 2.542965	 0.974826	 -0.363729
C	 -0.265902	 0.883932	 0.072916
H	 0.324016	 -1.163849	 -0.390541
H	 0.565024	 -0.726111	 1.268924
C	 -1.728698	 0.646073	 0.462102
H	 -0.209144	 1.219470	 -0.958188
H	 0.135059	 1.692851	 0.673903
C	 -2.482460	 -0.343073	 -0.431425
H	 -2.245265	 1.602650	 0.432430
H	 -1.779332	 0.308348	 1.496285
C	 -1.713172	 -0.685967	 -1.707002
H	 -2.677049	 -1.255303	 0.128947
H	 -3.453567	 0.061885	 -0.704084
H	 -2.267323	 -1.386307	 -2.324055
H	 -0.752193	 -1.136473	 -1.475933
H	 -1.525875	 0.203118	 -2.302557

	symmetry c1
}
set optking {
	frozen_dihedral = ("
		16 12 9 6
	")
}

ee = optimize('scf')
oeprop('DIPOLE', 'QUADRUPOLE', 'MULLIKEN_CHARGES')
f=open( 'psi4out.xyz', 'w' )
f.write( "20  " )
f.write( str(ee) + "\n" )
f.write( MOL.save_string_xyz() )
f.close()
--------------------------------------------------------------------------

    Molecular point group: c1
  Charge       = 0
  Multiplicity = 1
  Basis Set: 6-31G*
  Basis Set:
  @DF-RHF Final Energy:  -383.92635124277973
    Total Energy =                       -383.9263512427795604
    Molecular point group: c1
  Basis Set: 6-31G*
  Basis Set:
  Basis Set: 6-31G*
  Basis Set:
  @DF-RHF Final Energy:  -383.93662192181461
    Total Energy =                       -383.9366219218144352
  Basis Set: 6-31G*
  Basis Set:
  Basis Set: 6-31G*
  Basis Set:
  @DF-RHF Final Energy:  -383.93873386758827
    Total Energy =                       -383.9387338675885530
  Basis Set: 6-31G*
  Basis Set:
  Basis Set: 6-31G*
  Basis Set:
  @DF-RHF Final Energy:  -383.93877501541436
    Total Energy =                       -383.9387750154140804
  Basis Set: 6-31G*
  Basis Set:
  @DF-RHF Final Energy:  -383.93786509524972
    Total Energy =                       -383.9378650952496628
  @DF-RHF Final Energy:  -383.93926600059768
    Total Energy =                       -383.9392660005976268
  Basis Set: 6-31G*
  Basis Set:
  @DF-RHF Final Energy:  -383.93930188353528
    Total Energy =                       -383.9393018835355633
  Basis Set: 6-31G*
  Basis Set:
  Basis Set: 6-31G*
  Basis Set:
  @DF-RHF Final Energy:  -383.93933921886605
    Total Energy =                       -383.9393392188661664
  Basis Set: 6-31G*
  Basis Set:
  Basis Set: 6-31G*
  Basis Set:
  @DF-RHF Final Energy:  -383.93934471096856
    Total Energy =                       -383.9393447109684985
  Basis Set: 6-31G*
  Basis Set:
  Charge       = 0
  Multiplicity = 1
  Basis Set: 6-31G*
  Basis Set:

    Orbital Energies (a.u.)
    -----------------------

    Doubly Occupied:

       1A    -20.612253     2A    -20.551322     3A    -11.380721
       4A    -11.239478     5A    -11.222218     6A    -11.220924
       7A    -11.220399     8A    -11.213679     9A     -1.474250
      10A     -1.365279    11A     -1.093281    12A     -1.036363
      13A     -0.961155    14A     -0.881685    15A     -0.811785
      16A     -0.766746    17A     -0.698906    18A     -0.688586
      19A     -0.667042    20A     -0.629055    21A     -0.620586
      22A     -0.584274    23A     -0.568054    24A     -0.561649
      25A     -0.535864    26A     -0.510216    27A     -0.508699
      28A     -0.478625    29A     -0.468163    30A     -0.459427
      31A     -0.454998    32A     -0.440819

  @DF-RHF Final Energy:  -383.93934517335975

   => Energetics <=

    Nuclear Repulsion Energy =            383.3696291565540264
    One-Electron Energy =               -1282.7649560632426073
    Two-Electron Energy =                 515.4559817333285991
    DFT Exchange-Correlation Energy =       0.0000000000000000
    Empirical Dispersion Energy =           0.0000000000000000
    PCM Polarization Energy =               0.0000000000000000
    EFP Energy =                            0.0000000000000000
    Total Energy =                       -383.9393451733599250
    Molecular point group: c1
  Basis Set: 6-31G*
  Basis Set:

  -Total Gradient:
     Atom            X                  Y                   Z
    ------   -----------------  -----------------  -----------------
       1        0.000002701481    -0.000001470330     0.000001776681
       2        0.000001115301     0.000016162137    -0.000007162509
       3       -0.000011471380    -0.000034807909    -0.000006851702
       4        0.000007798529    -0.000000445750     0.000004076382
       5        0.000017940842     0.000018928226     0.000005569692
       6       -0.001436270573     0.003911135910    -0.002754711909
       7       -0.000012270023    -0.000016388648    -0.000002581126
       8       -0.000002757879     0.000003461151     0.000011845064
       9        0.000745096934    -0.005093479217     0.004603612438
      10        0.000007235298     0.000001731505    -0.000003985326
      11       -0.000009127355     0.000002693167    -0.000002487579
      12        0.006270247029    -0.001302437707    -0.004237217527
      13        0.000013535035    -0.000002302843     0.000002163865
      14       -0.000003127629     0.000001324862     0.000005234335
      15       -0.000012629873    -0.000001727287    -0.000005332579
      16       -0.005600028272     0.002512015755     0.002376460049
      17        0.000006454146     0.000005751311     0.000015701667
      18       -0.000008923734    -0.000006781432    -0.000012930791
      19        0.000027271534    -0.000010341668    -0.000000149867
      20       -0.000002789409    -0.000003021235     0.000006970739

  **** Optimization is complete! (in 10 steps) ****
    Final optimized geometry and variables:
    Molecular point group: c1

    Geometry (in Angstrom), charge = 0, multiplicity = 1:

    H            3.522774524420    -0.830275282817     0.282353920350
    O            2.632880930368    -1.052550851127     0.538183573861
    C            1.845370739032    -0.021303756311     0.233703722690
    C            0.410080987220    -0.285683009213     0.608750124288
    O            2.267466138412     0.968139463254    -0.270439090683
    C           -0.525560743088     0.875610675473     0.275661698879
    H            0.113165059024    -1.206600820792     0.117424032108
    H            0.391561714596    -0.503683819826     1.673410386415
    C           -1.989918031219     0.599986401701     0.643455827567
    H           -0.433159301683     1.131526657280    -0.772287475512
    H           -0.189979375061     1.748933042199     0.824827842051
    C           -2.805921103829    -0.347074352629    -0.278976270044
    H           -2.490701605260     1.563879727849     0.654534506843
    H           -2.040582138617     0.234918907184     1.665816231215
    C           -2.262403160554    -0.615620442460    -1.682858399794
    H           -3.005045634344    -1.282695910831     0.236793782839
    H           -3.792344952573     0.094767259781    -0.396109357943
    H           -2.955942697311    -1.245147504015    -2.231489699543
    H           -1.303931740542    -1.122501816758    -1.674072659713
    H           -2.144111684682     0.304748763121    -2.245999992501

  Mulliken Charges: (a.u.)
   Center  Symbol    Alpha    Beta     Spin     Total
       1     H     0.26793  0.26793  0.00000  0.46414
       2     O     4.35158  4.35158  0.00000 -0.70316
       3     C     2.62295  2.62295  0.00000  0.75409
       4     C     3.21218  3.21218  0.00000 -0.42436
       5     O     4.27939  4.27939  0.00000 -0.55879
       6     C     3.15688  3.15688  0.00000 -0.31375
       7     H     0.39735  0.39735  0.00000  0.20530
       8     H     0.39870  0.39870  0.00000  0.20260
       9     C     3.16125  3.16125  0.00000 -0.32251
      10     H     0.40723  0.40723  0.00000  0.18554
      11     H     0.40991  0.40991  0.00000  0.18018
      12     C     3.15768  3.15768  0.00000 -0.31537
      13     H     0.41664  0.41664  0.00000  0.16671
      14     H     0.42057  0.42057  0.00000  0.15885
      15     C     3.24326  3.24326  0.00000 -0.48651
      16     H     0.42047  0.42047  0.00000  0.15906
      17     H     0.41868  0.41868  0.00000  0.16265
      18     H     0.41724  0.41724  0.00000  0.16553
      19     H     0.42197  0.42197  0.00000  0.15606
      20     H     0.41813  0.41813  0.00000  0.16373

   Total alpha = 32.00000, Total beta = 32.00000, Total charge =  0.00000
