                              Psi4 1.0.54 Driver

  ==> Input File <==

--------------------------------------------------------------------------
set {
	reference rhf
	basis cc-pvtz
}

set_num_threads( 4 )
memory 2 gb

molecule MOL {
0 1

H	 1.731524	 3.373554	 -2.442099
N	 0.965504	 2.735979	 -2.490351
C	 0.789517	 2.032121	 -1.229766
H	 1.161329	 2.095919	 -3.231515
C	 -0.429275	 1.122929	 -1.281181
H	 0.648742	 2.775359	 -0.452151
H	 1.663775	 1.444508	 -0.946327
C	 -0.678115	 0.376691	 0.025731
H	 -1.296261	 1.722121	 -1.539465
H	 -0.301245	 0.403461	 -2.087691
C	 -1.900706	 -0.535531	 -0.022488
H	 -0.801895	 1.095737	 0.832333
H	 0.198389	 -0.215321	 0.278978
C	 -3.220513	 0.226854	 0.028039
H	 -1.865036	 -1.134397	 -0.928236
H	 -1.857948	 -1.236381	 0.806820
H	 -3.309098	 0.911849	 -0.808725
H	 -4.066838	 -0.449485	 -0.008086
H	 -3.301685	 0.809374	 0.939860

	symmetry c1
}
set optking {
	frozen_dihedral = ("
		12 8 11 15
	")
}

ee,wfn = optimize('scf', return_wfn=True)
oeprop( wfn, 'DIPOLE', 'QUADRUPOLE', 'MULLIKEN_CHARGES')
f=open( 'psi4out.xyz', 'w' )
f.write( "19  " )
f.write( str(ee) + "\n" )
f.write( MOL.save_string_xyz() )
f.close()
--------------------------------------------------------------------------

    Molecular point group: c1
  Charge       = 0
  Multiplicity = 1
  Basis Set: CC-PVTZ
  Basis Set:
  @DF-RHF Final Energy:  -251.44602911838450
    Total Energy =                       -251.4460291183845584
    Molecular point group: c1
  Basis Set: CC-PVTZ
  Basis Set:
  Basis Set: CC-PVTZ
  Basis Set:
  @DF-RHF Final Energy:  -251.44618400209740
    Total Energy =                       -251.4461840020972545
  Basis Set: CC-PVTZ
  Basis Set:
  Basis Set: CC-PVTZ
  Basis Set:
  @DF-RHF Final Energy:  -251.44622615452937
    Total Energy =                       -251.4462261545291994
  Basis Set: CC-PVTZ
  Basis Set:
  Basis Set: CC-PVTZ
  Basis Set:
  @DF-RHF Final Energy:  -251.44622717835793
    Total Energy =                       -251.4462271783579581
  Basis Set: CC-PVTZ
  Basis Set:
  Charge       = 0
  Multiplicity = 1
  Basis Set: CC-PVTZ
  Basis Set:

    Orbital Energies (a.u.)
    -----------------------

    Doubly Occupied:

       1A    -15.526442     2A    -11.237870     3A    -11.212161
       4A    -11.210667     5A    -11.207292     6A    -11.204106
       7A     -1.178162     8A     -1.073464     9A     -0.996497
      10A     -0.903343    11A     -0.821260    12A     -0.780061
      13A     -0.664636    14A     -0.640791    15A     -0.606032
      16A     -0.597477    17A     -0.587422    18A     -0.537328
      19A     -0.516791    20A     -0.512084    21A     -0.485072
      22A     -0.462162    23A     -0.455696    24A     -0.450454
      25A     -0.383907

  @DF-RHF Final Energy:  -251.44622743609006

   => Energetics <=

    Nuclear Repulsion Energy =            248.8978181489315489
    One-Electron Energy =                -832.1857361639490591
    Two-Electron Energy =                 331.8416905789275688
    DFT Exchange-Correlation Energy =       0.0000000000000000
    Empirical Dispersion Energy =           0.0000000000000000
    PCM Polarization Energy =               0.0000000000000000
    EFP Energy =                            0.0000000000000000
    Total Energy =                       -251.4462274360899983
    Molecular point group: c1
  Basis Set: CC-PVTZ
  Basis Set:

  -Total Gradient:
     Atom            X                  Y                   Z
    ------   -----------------  -----------------  -----------------
       1        0.000000237227     0.000002439449    -0.000006404473
       2        0.000007960165     0.000015184482    -0.000002857699
       3       -0.000000893672    -0.000011220897    -0.000006847007
       4        0.000000118403    -0.000000534416     0.000002988737
       5        0.000004149632    -0.000017592701     0.000018041048
       6       -0.000000242481    -0.000001864860    -0.000001342900
       7       -0.000002034232     0.000003770211     0.000001354062
       8        0.000644592294    -0.000892028243     0.000977143178
       9       -0.000001523846    -0.000004265535     0.000003228965
      10        0.000000985183     0.000003421647    -0.000006328359
      11        0.000773533961    -0.001062488412     0.000673158505
      12       -0.000670515000     0.000922481232    -0.000928329712
      13        0.000001740430     0.000005942424    -0.000003635661
      14        0.000001532157    -0.000008921150     0.000001176723
      15       -0.000758646431     0.001044152777    -0.000719674265
      16       -0.000003792132     0.000002026093    -0.000003371780
      17        0.000006067616    -0.000004904250     0.000006348116
      18       -0.000003813485     0.000003711365     0.000000450096
      19        0.000000544211     0.000000690782    -0.000005097571

  **** Optimization is complete! (in 5 steps) ****
    Final optimized geometry and variables:
    Molecular point group: c1

    Geometry (in Angstrom), charge = 0, multiplicity = 1:

    H            2.488429694044     2.352476286791    -1.574753043868
    N            1.715952209359     1.723326711021    -1.630485402454
    C            1.526985943607     1.012767841046    -0.375557890911
    H            1.908401799072     1.086286099389    -2.375139275478
    C            0.297983886649     0.117664694598    -0.438322239069
    H            1.391102712577     1.752144819675     0.406639657255
    H            2.393560181033     0.413679470310    -0.092519465498
    C            0.041297762110    -0.633134112667     0.866945742379
    H           -0.555018699959     0.730902226197    -0.704015471125
    H            0.424820789314    -0.601967424315    -1.245026313465
    C           -1.182823020282    -1.551894948332     0.831924404876
    H           -0.079334368687     0.089290300496     1.670999751648
    H            0.919485291004    -1.224023870878     1.110725735125
    C           -2.519264929762    -0.814961031868     0.890157566896
    H           -1.151714175867    -2.155187526917    -0.071369436960
    H           -1.129658168026    -2.242737287924     1.667183540269
    H           -2.649115826251    -0.146549015064     0.047419247100
    H           -3.346973848947    -1.515092329678     0.881605947481
    H           -2.597227926955    -0.223225149629     1.796406243633

  Mulliken Charges: (a.u.)
   Center  Symbol    Alpha    Beta     Spin     Total
       1     H     0.43026  0.43026  0.00000  0.13949
       2     N     3.68908  3.68908  0.00000 -0.37816
       3     C     3.02731  3.02731  0.00000 -0.05462
       4     H     0.43108  0.43108  0.00000  0.13784
       5     C     3.08439  3.08439  0.00000 -0.16878
       6     H     0.45678  0.45678  0.00000  0.08645
       7     H     0.46765  0.46765  0.00000  0.06470
       8     C     3.09934  3.09934  0.00000 -0.19868
       9     H     0.44766  0.44766  0.00000  0.10467
      10     H     0.46025  0.46025  0.00000  0.07950
      11     C     3.08968  3.08968  0.00000 -0.17936
      12     H     0.45538  0.45538  0.00000  0.08925
      13     H     0.45054  0.45054  0.00000  0.09892
      14     C     3.14972  3.14972  0.00000 -0.29945
      15     H     0.45592  0.45592  0.00000  0.08816
      16     H     0.44834  0.44834  0.00000  0.10332
      17     H     0.45315  0.45315  0.00000  0.09370
      18     H     0.44780  0.44780  0.00000  0.10440
      19     H     0.45568  0.45568  0.00000  0.08864

   Total alpha = 25.00000, Total beta = 25.00000, Total charge = -0.00000

*** Psi4 exiting successfully. Buy a developer a beer!
