  ==> Input File <==

--------------------------------------------------------------------------
set {
	reference rhf
	basis 6-31G*
}

set_num_threads( 1 )
memory 2 gb

molecule MOL {
0 1

O	 -2.692147	 0.379654	 -0.011045
C	 -2.066880	 -0.412371	 0.626271
C	 -0.835822	 -1.083252	 0.042555
C	 -2.444725	 -0.762850	 2.048161
C	 0.379448	 -0.143569	 0.099626
H	 -1.054415	 -1.329724	 -0.990775
H	 -0.616564	 -2.006402	 0.571465
C	 1.631333	 -0.777471	 -0.511575
H	 0.122998	 0.772778	 -0.419917
H	 0.584178	 0.128234	 1.134013
C	 2.915987	 -0.544314	 0.291766
H	 1.766672	 -0.399098	 -1.523130
H	 1.471257	 -1.849544	 -0.605828
C	 3.373361	 0.914346	 0.347591
H	 3.708709	 -1.142521	 -0.150311
H	 2.780642	 -0.921148	 1.303579
H	 3.506512	 1.320010	 -0.651625
H	 4.322697	 0.999599	 0.867103
H	 2.660624	 1.545032	 0.868198
H	 -2.762564	 -1.801081	 2.096314
H	 -3.249880	 -0.124983	 2.385260
H	 -1.589691	 -0.658897	 2.709913

	symmetry c1
}
set optking {
	frozen_dihedral = ("
		6 3 2 1,
		6 3 5 8,
		12 8 11 15
	")
}

ee = energy('scf')
oeprop('DIPOLE', 'QUADRUPOLE', 'MULLIKEN_CHARGES')
f=open( 'psi4out.xyz', 'w' )
f.write( "22  " )
f.write( str(ee) + "\n" )
f.write( MOL.save_string_xyz() )
f.close()
--------------------------------------------------------------------------

    Molecular point group: c1

    Geometry (in Angstrom), charge = 0, multiplicity = 1:

       Center              X                  Y                   Z               Mass
    ------------   -----------------  -----------------  -----------------  -----------------
           O         -2.728202630314     0.670192752757    -0.386225414391    15.994914619560
           C         -2.102935630314    -0.121832247243     0.251090585609    12.000000000000
           C         -0.871877630314    -0.792713247243    -0.332625414391    12.000000000000
           C         -2.480780630314    -0.472311247243     1.672980585609    12.000000000000
           C          0.343392369686     0.146969752757    -0.275554414391    12.000000000000
           H         -1.090470630314    -1.039185247243    -1.365955414391     1.007825032070
           H         -0.652619630314    -1.715863247243     0.196284585609     1.007825032070
           C          1.595277369686    -0.486932247243    -0.886755414391    12.000000000000
           H          0.086942369686     1.063316752757    -0.795097414391     1.007825032070
           H          0.548122369686     0.418772752757     0.758832585609     1.007825032070
           C          2.879931369686    -0.253775247243    -0.083414414391    12.000000000000
           H          1.730616369686    -0.108559247243    -1.898310414391     1.007825032070
           H          1.435201369686    -1.559005247243    -0.981008414391     1.007825032070
           C          3.337305369686     1.204884752757    -0.027589414391    12.000000000000
           H          3.672653369686    -0.851982247243    -0.525491414391     1.007825032070
           H          2.744586369686    -0.630609247243     0.928398585609     1.007825032070
           H          3.470456369686     1.610548752757    -1.026805414391     1.007825032070
           H          4.286641369686     1.290137752757     0.491922585609     1.007825032070
           H          2.624568369686     1.835570752757     0.493017585609     1.007825032070
           H         -2.798619630314    -1.510542247243     1.721133585609     1.007825032070
           H         -3.285935630314     0.165555752757     2.010079585609     1.007825032070
           H         -1.625746630314    -0.368358247243     2.334732585609     1.007825032070

  Charge       = 0
  Multiplicity = 1
  Basis Set: 6-31G*
  Basis Set:

    Orbital Energies (a.u.)
    -----------------------

    Doubly Occupied:

       1A    -20.547128     2A    -11.324068     3A    -11.229591
       4A    -11.228304     5A    -11.228154     6A    -11.221843
       7A    -11.220978     8A    -11.212721     9A     -1.392874
      10A     -1.096134    11A     -1.044417    12A     -0.999685
      13A     -0.937846    14A     -0.858828    15A     -0.786059
      16A     -0.734249    17A     -0.663048    18A     -0.644056
      19A     -0.626499    20A     -0.616482    21A     -0.595331
      22A     -0.589666    23A     -0.559791    24A     -0.541341
      25A     -0.534222    26A     -0.524545    27A     -0.497174
      28A     -0.489102    29A     -0.468375    30A     -0.464747
      31A     -0.458610    32A     -0.395855

  @DF-RHF Final Energy:  -348.09414657852011

   => Energetics <=

    Nuclear Repulsion Energy =            373.3791422065492611
    One-Electron Energy =               -1211.4825681068591621
    Two-Electron Energy =                 490.0092793217901317
    DFT Exchange-Correlation Energy =       0.0000000000000000
    Empirical Dispersion Energy =           0.0000000000000000
    PCM Polarization Energy =               0.0000000000000000
    EFP Energy =                            0.0000000000000000
    Total Energy =                       -348.0941465785198261

  Mulliken Charges: (a.u.)
   Center  Symbol    Alpha    Beta     Spin     Total
       1     O     4.26246  4.26246  0.00000 -0.52492
       2     C     2.73736  2.73736  0.00000  0.52528
       3     C     3.20260  3.20260  0.00000 -0.40520
       4     C     3.28966  3.28966  0.00000 -0.57932
       5     C     3.16422  3.16422  0.00000 -0.32844
       6     H     0.40071  0.40071  0.00000  0.19859
       7     H     0.41668  0.41668  0.00000  0.16665
       8     C     3.15472  3.15472  0.00000 -0.30943
       9     H     0.40302  0.40302  0.00000  0.19397
      10     H     0.41961  0.41961  0.00000  0.16078
      11     C     3.15491  3.15491  0.00000 -0.30981
      12     H     0.41755  0.41755  0.00000  0.16490
      13     H     0.41943  0.41943  0.00000  0.16115
      14     C     3.24138  3.24138  0.00000 -0.48276
      15     H     0.41999  0.41999  0.00000  0.16003
      16     H     0.42394  0.42394  0.00000  0.15213
      17     H     0.42045  0.42045  0.00000  0.15909
      18     H     0.41825  0.41825  0.00000  0.16351
      19     H     0.41931  0.41931  0.00000  0.16139
      20     H     0.40700  0.40700  0.00000  0.18599
      21     H     0.39704  0.39704  0.00000  0.20592
      22     H     0.40974  0.40974  0.00000  0.18053

   Total alpha = 32.00000, Total beta = 32.00000, Total charge =  0.00000
