  ==> Input File <==

--------------------------------------------------------------------------
set {
	reference rhf
	basis 6-31G*
}

set_num_threads( 4 )
memory 2 gb

molecule MOL {
0 1

H	 1.148083	 -1.049780	 0.784252
O	 1.319262	 -0.618148	 -0.041729
C	 0.709265	 0.639550	 -0.033818
C	 0.834474	 1.377999	 1.272932
H	 -0.337829	 0.469188	 -0.256920
H	 1.100424	 1.264426	 -0.836034
C	 1.315321	 0.871865	 2.390688
H	 0.489086	 2.400149	 1.252957
H	 1.651215	 -0.147386	 2.451763
H	 1.376339	 1.458544	 3.289611

	symmetry c1
}
set optking {
	frozen_dihedral = ("
		5 3 2 1
	")
}

ee = optimize('scf')
oeprop('DIPOLE', 'QUADRUPOLE', 'MULLIKEN_CHARGES')
f=open( 'psi4out.xyz', 'w' )
f.write( "10  " )
f.write( str(ee) + "\n" )
f.write( MOL.save_string_xyz() )
f.close()
--------------------------------------------------------------------------

    Molecular point group: c1
  Charge       = 0
  Multiplicity = 1
  Basis Set: 6-31G*
  Basis Set:
  @DF-RHF Final Energy:  -191.91242608875481
    Total Energy =                       -191.9124260887547848
    Molecular point group: c1
  Basis Set: 6-31G*
  Basis Set:
  Basis Set: 6-31G*
  Basis Set:
  @DF-RHF Final Energy:  -191.91498361015346
    Total Energy =                       -191.9149836101534561
  Basis Set: 6-31G*
  Basis Set:
  Basis Set: 6-31G*
  Basis Set:
  @DF-RHF Final Energy:  -191.91565924790640
    Total Energy =                       -191.9156592479063761
  Basis Set: 6-31G*
  Basis Set:
  Basis Set: 6-31G*
  Basis Set:
  @DF-RHF Final Energy:  -191.91594537462822
    Total Energy =                       -191.9159453746281656
  Basis Set: 6-31G*
  Basis Set:
  Basis Set: 6-31G*
  Basis Set:
  @DF-RHF Final Energy:  -191.91640777724382
    Total Energy =                       -191.9164077772438475
  Basis Set: 6-31G*
  Basis Set:
  Basis Set: 6-31G*
  Basis Set:
  @DF-RHF Final Energy:  -191.91645384479705
    Total Energy =                       -191.9164538447970472
  Basis Set: 6-31G*
  Basis Set:
  Basis Set: 6-31G*
  Basis Set:
  @DF-RHF Final Energy:  -191.91645508591671
    Total Energy =                       -191.9164550859166809
  Basis Set: 6-31G*
  Basis Set:
  Charge       = 0
  Multiplicity = 1
  Basis Set: 6-31G*
  Basis Set:

    Orbital Energies (a.u.)
    -----------------------

    Doubly Occupied:

       1A    -20.559162     2A    -11.278098     3A    -11.236049
       4A    -11.224389     5A     -1.368329     6A     -1.061371
       7A     -0.930783     8A     -0.772943     9A     -0.683918
      10A     -0.663604    11A     -0.619001    12A     -0.570722
      13A     -0.547600    14A     -0.485455    15A     -0.451102
      16A     -0.368233

  @DF-RHF Final Energy:  -191.91645544605962

   => Energetics <=

    Nuclear Repulsion Energy =            119.4319315133921577
    One-Electron Energy =                -497.0552593815021964
    Two-Electron Energy =                 185.7068724220504521
    DFT Exchange-Correlation Energy =       0.0000000000000000
    Empirical Dispersion Energy =           0.0000000000000000
    PCM Polarization Energy =               0.0000000000000000
    EFP Energy =                            0.0000000000000000
    Total Energy =                       -191.9164554460595866
    Molecular point group: c1
  Basis Set: 6-31G*
  Basis Set:

  -Total Gradient:
     Atom            X                  Y                   Z
    ------   -----------------  -----------------  -----------------
       1        0.002073196048     0.000799061368     0.001448584281
       2       -0.002289942078    -0.000896747543    -0.002353632499
       3       -0.000680382868    -0.000231077921     0.003026502761
       4        0.000028584888     0.000043105894     0.000002349013
       5        0.000877092474     0.000289229777    -0.002141037868
       6        0.000001667497     0.000007824574     0.000018541183
       7        0.000007192656     0.000004871149    -0.000001951301
       8       -0.000004698167    -0.000003638916     0.000004551581
       9        0.000000079020    -0.000003808445    -0.000003203722
      10       -0.000012789471    -0.000008819938    -0.000000703430

  **** Optimization is complete! (in 8 steps) ****
    Final optimized geometry and variables:
    Molecular point group: c1

    Geometry (in Angstrom), charge = 0, multiplicity = 1:

    H           -0.164484935924    -1.614680476130    -0.118176944422
    O            0.192887427811    -1.164338138433    -0.871321328574
    C           -0.297605605843     0.144221396833    -0.896516743984
    C           -0.274774626208     0.846421244458     0.434973132922
    H           -1.305891956997     0.168179944122    -1.307979411406
    H            0.326231434226     0.686814455059    -1.598983640609
    C            0.371931039573     0.432819398907     1.506864868964
    H           -0.839815744247     1.764298846111     0.475463599716
    H            0.967220734065    -0.462867861177     1.505012542581
    H            0.342191209165     0.988227637954     2.426704503662

  Mulliken Charges: (a.u.)
   Center  Symbol    Alpha    Beta     Spin     Total
       1     H     0.28097  0.28097  0.00000  0.43807
       2     O     4.36917  4.36917  0.00000 -0.73834
       3     C     2.99506  2.99506  0.00000  0.00989
       4     C     3.09580  3.09580  0.00000 -0.19160
       5     H     0.42483  0.42483  0.00000  0.15033
       6     H     0.40889  0.40889  0.00000  0.18223
       7     C     3.20023  3.20023  0.00000 -0.40045
       8     H     0.40792  0.40792  0.00000  0.18416
       9     H     0.40806  0.40806  0.00000  0.18388
      10     H     0.40908  0.40908  0.00000  0.18184

   Total alpha = 16.00000, Total beta = 16.00000, Total charge = -0.00000
