                              Psi4 1.0.54 Driver

  ==> Input File <==

--------------------------------------------------------------------------
set {
	reference rhf
	basis cc-pvtz
}

set_num_threads( 4 )
memory 2 gb

molecule MOL {
0 1

H	 2.867672	 -0.456275	 0.875795
C	 2.403497	 -0.020426	 0.000000
N	 0.989899	 -0.304564	 0.000000
H	 2.867672	 -0.456275	 -0.875795
H	 2.620366	 1.051270	 0.000000
C	 0.616906	 -1.257057	 1.025281
C	 0.512452	 -0.737395	 -1.297023
H	 1.119075	 -2.218464	 0.879446
H	 0.916729	 -0.874057	 1.993860
C	 -0.884135	 -1.473770	 1.012913
H	 0.735634	 0.026898	 -2.032396
H	 1.006765	 -1.659716	 -1.617530
C	 -0.985905	 -0.967460	 -1.249722
H	 -1.161008	 -2.250540	 1.711910
H	 -1.386798	 -0.553319	 1.303084
O	 -1.324908	 -1.880642	 -0.248562
H	 -1.336341	 -1.378250	 -2.186244
H	 -1.493834	 -0.020809	 -1.076636

	symmetry c1
}
set optking {
	frozen_dihedral = ("
		6 3 2 5
	")
}

ee,wfn = optimize('scf', return_wfn=True)
oeprop( wfn, 'DIPOLE', 'QUADRUPOLE', 'MULLIKEN_CHARGES')
f=open( 'psi4out.xyz', 'w' )
f.write( "18  " )
f.write( str(ee) + "\n" )
f.write( MOL.save_string_xyz() )
f.close()
--------------------------------------------------------------------------

    Molecular point group: c1
  Charge       = 0
  Multiplicity = 1
  Basis Set: CC-PVTZ
  Basis Set:
  @DF-RHF Final Energy:  -325.13971833832125
    Total Energy =                       -325.1397183383215861
    Molecular point group: c1
  Basis Set: CC-PVTZ
  Basis Set:
  Basis Set: CC-PVTZ
  Basis Set:
  @DF-RHF Final Energy:  -325.14053991774966
    Total Energy =                       -325.1405399177499476
  Basis Set: CC-PVTZ
  Basis Set:
  Basis Set: CC-PVTZ
  Basis Set:
  @DF-RHF Final Energy:  -325.14068673364142
    Total Energy =                       -325.1406867336413598
  Basis Set: CC-PVTZ
  Basis Set:
  Basis Set: CC-PVTZ
  Basis Set:
  @DF-RHF Final Energy:  -325.14069743644421
    Total Energy =                       -325.1406974364443272
  Basis Set: CC-PVTZ
  Basis Set:
  Charge       = 0
  Multiplicity = 1
  Basis Set: CC-PVTZ
  Basis Set:

    Orbital Energies (a.u.)
    -----------------------

    Doubly Occupied:

       1A    -20.547046     2A    -15.540435     3A    -11.263614
       4A    -11.263556     5A    -11.242537     6A    -11.242354
       7A    -11.238908     8A     -1.385864     9A     -1.229515
      10A     -1.038997    11A     -0.981228    12A     -0.883903
      13A     -0.870244    14A     -0.773120    15A     -0.684454
      16A     -0.645916    17A     -0.644591    18A     -0.632343
      19A     -0.628320    20A     -0.572537    21A     -0.557519
      22A     -0.547761    23A     -0.526752    24A     -0.499960
      25A     -0.485602    26A     -0.453540    27A     -0.410151
      28A     -0.347504

  @DF-RHF Final Energy:  -325.14069826116423

   => Energetics <=

    Nuclear Repulsion Energy =            341.3929166776038642
    One-Electron Energy =               -1118.7906928282532135
    Two-Electron Energy =                 452.2570778894847194
    DFT Exchange-Correlation Energy =       0.0000000000000000
    Empirical Dispersion Energy =           0.0000000000000000
    PCM Polarization Energy =               0.0000000000000000
    EFP Energy =                            0.0000000000000000
    Total Energy =                       -325.1406982611646868
    Molecular point group: c1
  Basis Set: CC-PVTZ
  Basis Set:

  -Total Gradient:
     Atom            X                  Y                   Z
    ------   -----------------  -----------------  -----------------
       1        0.000002759805    -0.000006385579     0.000008036414
       2       -0.000023254872     0.000820400794    -0.003839089184
       3        0.000598434332    -0.002916028266    -0.001472624972
       4       -0.000027147381    -0.000014828789     0.000025124415
       5       -0.000093244945     0.000035765334     0.003563705121
       6       -0.000469411322     0.002047651213     0.001743117792
       7        0.000011556917     0.000011223446    -0.000032153052
       8       -0.000000707960     0.000018065083    -0.000008469891
       9       -0.000007178614    -0.000002308969    -0.000001884552
      10       -0.000018418408     0.000013354378    -0.000011640195
      11       -0.000002087647    -0.000001580537    -0.000003542168
      12        0.000002010328     0.000005267892     0.000012304356
      13       -0.000007429796     0.000000992754     0.000013018026
      14       -0.000006258701    -0.000004387584    -0.000007135492
      15        0.000010703970     0.000003702480     0.000012148824
      16        0.000025131376    -0.000014154365     0.000004587993
      17       -0.000003857128    -0.000004487571     0.000003407774
      18        0.000008400045     0.000007738284    -0.000008911212

  **** Optimization is complete! (in 5 steps) ****
    Final optimized geometry and variables:
    Molecular point group: c1

    Geometry (in Angstrom), charge = 0, multiplicity = 1:

    H            2.698666947167     0.537256587168     1.051174022435
    C            2.241146854503     0.907349589379     0.141588725965
    N            0.827820362553     0.586007440973     0.121791977996
    H            2.779582020459     0.462046665557    -0.691794597745
    H            2.397861841028     1.980457961624     0.127271122667
    C            0.408549716356    -0.355517927370     1.136528546620
    C            0.331835159534     0.226305278848    -1.187041545583
    H            0.867849779921    -1.339387483843     0.996434607721
    H            0.708436426725     0.011374743860     2.110723559651
    C           -1.100696636850    -0.506531578143     1.106332106726
    H            0.581599759265     1.010734710870    -1.892650908763
    H            0.789274182037    -0.700036515487    -1.548868013892
    C           -1.174390132166     0.053287897251    -1.144633288691
    H           -1.417927521194    -1.282536020183     1.789040662620
    H           -1.564634817563     0.430338243657     1.408789695759
    O           -1.548028318690    -0.870460546768    -0.165863247975
    H           -1.540407825307    -0.320321639473    -2.090863179199
    H           -1.645513204610     1.014272269494    -0.947484730675

  Mulliken Charges: (a.u.)
   Center  Symbol    Alpha    Beta     Spin     Total
       1     H     0.45767  0.45767  0.00000  0.08465
       2     C     3.09092  3.09092  0.00000 -0.18185
       3     N     3.61902  3.61902  0.00000 -0.23804
       4     H     0.46305  0.46305  0.00000  0.07390
       5     H     0.44949  0.44949  0.00000  0.10102
       6     C     3.04013  3.04013  0.00000 -0.08026
       7     C     3.04118  3.04118  0.00000 -0.08236
       8     H     0.46943  0.46943  0.00000  0.06114
       9     H     0.45402  0.45402  0.00000  0.09195
      10     C     2.98426  2.98426  0.00000  0.03148
      11     H     0.45382  0.45382  0.00000  0.09236
      12     H     0.46911  0.46911  0.00000  0.06177
      13     C     2.98417  2.98417  0.00000  0.03166
      14     H     0.45010  0.45010  0.00000  0.09979
      15     H     0.46855  0.46855  0.00000  0.06289
      16     O     4.18642  4.18642  0.00000 -0.37284
      17     H     0.45019  0.45019  0.00000  0.09962
      18     H     0.46844  0.46844  0.00000  0.06311

   Total alpha = 28.00000, Total beta = 28.00000, Total charge = -0.00000

*** Psi4 exiting successfully. Buy a developer a beer!
