  ==> Input File <==

--------------------------------------------------------------------------
set {
	reference rhf
	basis 6-31G*
}

set_num_threads( 1 )
memory 2 gb

molecule MOL {
0 1

H	 2.575353	 2.064200	 0.280355
O	 3.327221	 1.711818	 -0.173067
C	 3.566904	 0.396410	 0.258567
C	 2.544731	 -0.604775	 -0.268234
H	 4.552197	 0.140790	 -0.109578
H	 3.607300	 0.353706	 1.346374
C	 1.119218	 -0.360957	 0.233097
H	 2.559858	 -0.573750	 -1.354592
H	 2.865499	 -1.602970	 0.025161
C	 0.127412	 -1.413763	 -0.269636
H	 0.792975	 0.625594	 -0.084153
H	 1.114392	 -0.357490	 1.323191
C	 -1.298997	 -1.265338	 0.272274
H	 0.103077	 -1.391972	 -1.357652
H	 0.499268	 -2.398619	 0.005105
C	 -2.037799	 -0.007733	 -0.193645
H	 -1.873037	 -2.137723	 -0.033076
H	 -1.273965	 -1.286601	 1.360741
C	 -3.489788	 0.042957	 0.286558
H	 -2.018487	 0.037633	 -1.281615
H	 -1.520642	 0.881911	 0.157615
C	 -4.216917	 1.317354	 -0.141063
H	 -4.025645	 -0.823308	 -0.095450
H	 -3.513059	 -0.038752	 1.371301
H	 -4.239342	 1.411634	 -1.223113
H	 -5.243387	 1.322503	 0.212445
H	 -3.726170	 2.201406	 0.256408

	symmetry c1
}
set optking {
	frozen_dihedral = ("
		14 10 7 4,
		14 10 13 16,
		10 7 4 8,
		8 4 3 2,
		10 13 16 20,
		4 3 2 1
	")
}

ee = energy('scf')
oeprop('DIPOLE', 'QUADRUPOLE', 'MULLIKEN_CHARGES')
f=open( 'psi4out.xyz', 'w' )
f.write( "27  " )
f.write( str(ee) + "\n" )
f.write( MOL.save_string_xyz() )
f.close()
--------------------------------------------------------------------------

    Molecular point group: c1

    Geometry (in Angstrom), charge = 0, multiplicity = 1:

       Center              X                  Y                   Z               Mass
    ------------   -----------------  -----------------  -----------------  -----------------
           H          2.574097452136     2.040792635379     0.279029100343     1.007825032070
           O          3.325965452136     1.688410635379    -0.174392899657    15.994914619560
           C          3.565648452136     0.373002635379     0.257241100343    12.000000000000
           C          2.543475452136    -0.628182364621    -0.269559899657    12.000000000000
           H          4.550941452136     0.117382635379    -0.110903899657     1.007825032070
           H          3.606044452136     0.330298635379     1.345048100343     1.007825032070
           C          1.117962452136    -0.384364364621     0.231771100343    12.000000000000
           H          2.558602452136    -0.597157364621    -1.355917899657     1.007825032070
           H          2.864243452136    -1.626377364621     0.023835100343     1.007825032070
           C          0.126156452136    -1.437170364621    -0.270961899657    12.000000000000
           H          0.791719452136     0.602186635379    -0.085478899657     1.007825032070
           H          1.113136452136    -0.380897364621     1.321865100343     1.007825032070
           C         -1.300252547864    -1.288745364621     0.270948100343    12.000000000000
           H          0.101821452136    -1.415379364621    -1.358977899657     1.007825032070
           H          0.498012452136    -2.422026364621     0.003779100343     1.007825032070
           C         -2.039054547864    -0.031140364621    -0.194970899657    12.000000000000
           H         -1.874292547864    -2.161130364621    -0.034401899657     1.007825032070
           H         -1.275220547864    -1.310008364621     1.359415100343     1.007825032070
           C         -3.491043547864     0.019549635379     0.285232100343    12.000000000000
           H         -2.019742547864     0.014225635379    -1.282940899657     1.007825032070
           H         -1.521897547864     0.858503635379     0.156289100343     1.007825032070
           C         -4.218172547864     1.293946635379    -0.142388899657    12.000000000000
           H         -4.026900547864    -0.846715364621    -0.096775899657     1.007825032070
           H         -3.514314547864    -0.062159364621     1.369975100343     1.007825032070
           H         -4.240597547864     1.388226635379    -1.224438899657     1.007825032070
           H         -5.244642547864     1.299095635379     0.211119100343     1.007825032070
           H         -3.727425547864     2.177998635379     0.255082100343     1.007825032070

  Charge       = 0
  Multiplicity = 1
  Basis Set: 6-31G*
  Basis Set:

    Orbital Energies (a.u.)
    -----------------------

    Doubly Occupied:

       1A    -20.552304     2A    -11.267066     3A    -11.219832
       4A    -11.217332     5A    -11.216158     6A    -11.215752
       7A    -11.215238     8A    -11.214382     9A    -11.209455
      10A     -1.359049    11A     -1.095274    12A     -1.061597
      13A     -1.011587    14A     -0.948542    15A     -0.888103
      16A     -0.819994    17A     -0.801684    18A     -0.778256
      19A     -0.693710    20A     -0.651945    21A     -0.638221
      22A     -0.614622    23A     -0.600401    24A     -0.583069
      25A     -0.580213    26A     -0.552376    27A     -0.541363
      28A     -0.531668    29A     -0.505080    30A     -0.493990
      31A     -0.485593    32A     -0.474172    33A     -0.469185
      34A     -0.461325    35A     -0.452106    36A     -0.441781
      37A     -0.422944

  @DF-RHF Final Energy:  -388.28174667414567

   => Energetics <=

    Nuclear Repulsion Energy =            459.7582917790236934
    One-Electron Energy =               -1437.5093488439235898
    Two-Electron Energy =                 589.4693103907571867
    DFT Exchange-Correlation Energy =       0.0000000000000000
    Empirical Dispersion Energy =           0.0000000000000000
    PCM Polarization Energy =               0.0000000000000000
    EFP Energy =                            0.0000000000000000
    Total Energy =                       -388.2817466741427097

  Mulliken Charges: (a.u.)
   Center  Symbol    Alpha    Beta     Spin     Total
       1     H     0.27991  0.27991  0.00000  0.44019
       2     O     4.37094  4.37094  0.00000 -0.74188
       3     C     2.99736  2.99736  0.00000  0.00528
       4     C     3.16095  3.16095  0.00000 -0.32190
       5     H     0.41443  0.41443  0.00000  0.17113
       6     H     0.43205  0.43205  0.00000  0.13590
       7     C     3.16331  3.16331  0.00000 -0.32662
       8     H     0.41495  0.41495  0.00000  0.17009
       9     H     0.42432  0.42432  0.00000  0.15136
      10     C     3.15207  3.15207  0.00000 -0.30415
      11     H     0.42285  0.42285  0.00000  0.15431
      12     H     0.42546  0.42546  0.00000  0.14908
      13     C     3.15357  3.15357  0.00000 -0.30714
      14     H     0.42161  0.42161  0.00000  0.15679
      15     H     0.42149  0.42149  0.00000  0.15702
      16     C     3.15233  3.15233  0.00000 -0.30466
      17     H     0.42122  0.42122  0.00000  0.15756
      18     H     0.42427  0.42427  0.00000  0.15146
      19     C     3.15125  3.15125  0.00000 -0.30250
      20     H     0.42350  0.42350  0.00000  0.15301
      21     H     0.42397  0.42397  0.00000  0.15206
      22     C     3.23918  3.23918  0.00000 -0.47836
      23     H     0.42276  0.42276  0.00000  0.15448
      24     H     0.42334  0.42334  0.00000  0.15333
      25     H     0.42142  0.42142  0.00000  0.15715
      26     H     0.41920  0.41920  0.00000  0.16160
      27     H     0.42230  0.42230  0.00000  0.15541

   Total alpha = 37.00000, Total beta = 37.00000, Total charge = -0.00000
