  ==> Input File <==

--------------------------------------------------------------------------
set {
	reference rhf
	basis cc-pvtz
}

set_num_threads( 4 )
memory 2 gb

molecule MOL {
0 1

H	 3.273419	 0.176595	 -0.102789
N	 2.433987	 -0.362316	 -0.080024
C	 1.263552	 0.494993	 0.021953
H	 2.497638	 -0.973615	 0.707122
C	 -0.016533	 -0.325589	 -0.026925
H	 1.280915	 1.180773	 -0.818522
H	 1.263064	 1.106893	 0.925038
C	 -1.280353	 0.525521	 0.047747
H	 -0.016686	 -0.912532	 -0.939714
H	 -0.014099	 -1.037598	 0.796369
C	 -0.991107	 2.022846	 0.066394
H	 -1.841221	 0.257630	 0.939165
H	 -1.923760	 0.294874	 -0.797063
H	 -0.376895	 2.291510	 0.919208
H	 -1.907195	 2.599447	 0.123529
H	 -0.462255	 2.330231	 -0.829715

	symmetry c1
}
set optking {
	frozen_dihedral = ("
		12 8 5 9
	")
}

ee = optimize('scf')
oeprop('DIPOLE', 'QUADRUPOLE', 'MULLIKEN_CHARGES')
f=open( 'psi4out.xyz', 'w' )
f.write( "16  " )
f.write( str(ee) + "\n" )
f.write( MOL.save_string_xyz() )
f.close()
--------------------------------------------------------------------------

    Molecular point group: c1
  Charge       = 0
  Multiplicity = 1
  Basis Set: CC-PVTZ
  Basis Set:
  @DF-RHF Final Energy:  -212.38577319884288
    Total Energy =                       -212.3857731988431965
    Molecular point group: c1
  Basis Set: CC-PVTZ
  Basis Set:
  Basis Set: CC-PVTZ
  Basis Set:
  @DF-RHF Final Energy:  -212.38645172106820
    Total Energy =                       -212.3864517210678855
  Basis Set: CC-PVTZ
  Basis Set:
  Basis Set: CC-PVTZ
  Basis Set:
  @DF-RHF Final Energy:  -212.38985186484948
    Total Energy =                       -212.3898518648493337
  Basis Set: CC-PVTZ
  Basis Set:
  Basis Set: CC-PVTZ
  Basis Set:
  @DF-RHF Final Energy:  -212.39035121846501
    Total Energy =                       -212.3903512184649571
  Basis Set: CC-PVTZ
  Basis Set:
  Basis Set: CC-PVTZ
  Basis Set:
  @DF-RHF Final Energy:  -212.39040854818046
    Total Energy =                       -212.3904085481804032
  Basis Set: CC-PVTZ
  Basis Set:
  Basis Set: CC-PVTZ
  Basis Set:
  @DF-RHF Final Energy:  -212.39042351049503
    Total Energy =                       -212.3904235104948839
  Basis Set: CC-PVTZ
  Basis Set:
  Basis Set: CC-PVTZ
  Basis Set:
  @DF-RHF Final Energy:  -212.39042788090779
    Total Energy =                       -212.3904278809078505
  Basis Set: CC-PVTZ
  Basis Set:
  Charge       = 0
  Multiplicity = 1
  Basis Set: CC-PVTZ
  Basis Set:

    Orbital Energies (a.u.)
    -----------------------

    Doubly Occupied:

       1A    -15.526106     2A    -11.237583     3A    -11.213544
       4A    -11.208280     5A    -11.206631     6A     -1.178024
       7A     -1.054600     8A     -0.955397     9A     -0.864849
      10A     -0.773873    11A     -0.661971    12A     -0.637986
      13A     -0.613302    14A     -0.580669    15A     -0.546569
      16A     -0.532758    17A     -0.517331    18A     -0.467549
      19A     -0.461910    20A     -0.448955    21A     -0.383299

  @DF-RHF Final Energy:  -212.39042812813318

   => Energetics <=

    Nuclear Repulsion Energy =            189.0780919563011935
    One-Electron Energy =                -660.7946651147485682
    Two-Electron Energy =                 259.3261450303141373
    DFT Exchange-Correlation Energy =       0.0000000000000000
    Empirical Dispersion Energy =           0.0000000000000000
    PCM Polarization Energy =               0.0000000000000000
    EFP Energy =                            0.0000000000000000
    Total Energy =                       -212.3904281281332374
    Molecular point group: c1
  Basis Set: CC-PVTZ
  Basis Set:

  -Total Gradient:
     Atom            X                  Y                   Z
    ------   -----------------  -----------------  -----------------
       1       -0.000002725519     0.000002695944     0.000000964838
       2       -0.000009921696    -0.000000219032     0.000005805438
       3        0.000001162201     0.000002925315    -0.000019451355
       4       -0.000000663100     0.000000704674    -0.000000244057
       5        0.001105354587     0.001891565701    -0.001755069087
       6        0.000003373874     0.000002591972    -0.000000860777
       7       -0.000001815424    -0.000005496257     0.000003005443
       8        0.001210844133     0.001672974287     0.001846150334
       9       -0.001098019182    -0.001853971208     0.001186167553
      10       -0.000001263371    -0.000002275693    -0.000002480077
      11       -0.000002951188    -0.000001461497     0.000006569840
      12       -0.001205902959    -0.001708244340    -0.001271991941
      13        0.000000804008     0.000001547834     0.000004019757
      14        0.000000230159     0.000001750867     0.000001117106
      15       -0.000001614785    -0.000000163778    -0.000001615302
      16        0.000003108262    -0.000004924789    -0.000002087715

  **** Optimization is complete! (in 8 steps) ****
    Final optimized geometry and variables:
    Molecular point group: c1

    Geometry (in Angstrom), charge = 0, multiplicity = 1:

    H            3.008298424964    -0.459363685417    -0.103703092473
    N            2.132547515784    -0.937523642658    -0.114824373328
    C            1.025800595510    -0.003931883101     0.030039093977
    H            2.146005482408    -1.594314289207     0.637442330106
    C           -0.297098887769    -0.756334533733    -0.043852853291
    H            1.094362720682     0.711701924485    -0.780155276169
    H            1.076304679945     0.564273769916     0.957954303569
    C           -1.596942825389     0.083089051791     0.056213916879
    H           -0.302651333627    -1.336133438024    -0.958814834089
    H           -0.299902635998    -1.491830176314     0.756432857725
    C           -1.455924572608     1.604702483095     0.027914910874
    H           -2.135679922998    -0.201615373168     0.953314814441
    H           -2.247837809669    -0.203678217388    -0.762752403605
    H           -0.869586584766     1.977823806981     0.858824648768
    H           -2.435043000948     2.065982194150     0.088078065373
    H           -0.991189461749     1.949552679445    -0.888440825084

  Mulliken Charges: (a.u.)
   Center  Symbol    Alpha    Beta     Spin     Total
       1     H     0.43023  0.43023  0.00000  0.13953
       2     N     3.69005  3.69005  0.00000 -0.38010
       3     C     3.02734  3.02734  0.00000 -0.05469
       4     H     0.43091  0.43091  0.00000  0.13819
       5     C     3.09216  3.09216  0.00000 -0.18431
       6     H     0.45503  0.45503  0.00000  0.08993
       7     H     0.46557  0.46557  0.00000  0.06887
       8     C     3.09088  3.09088  0.00000 -0.18176
       9     H     0.44647  0.44647  0.00000  0.10707
      10     H     0.45835  0.45835  0.00000  0.08330
      11     C     3.15849  3.15849  0.00000 -0.31699
      12     H     0.45238  0.45238  0.00000  0.09523
      13     H     0.45102  0.45102  0.00000  0.09796
      14     H     0.45391  0.45391  0.00000  0.09218
      15     H     0.44435  0.44435  0.00000  0.11129
      16     H     0.45286  0.45286  0.00000  0.09428

   Total alpha = 21.00000, Total beta = 21.00000, Total charge = -0.00000
