                              Psi4 1.0.54 Driver

  ==> Input File <==

--------------------------------------------------------------------------
set {
	reference rhf
	basis cc-pvtz
}

set_num_threads( 4 )
memory 2 gb

molecule MOL {
0 1

H	 2.621316	 1.615522	 2.121207
O	 1.693324	 1.511649	 2.228285
C	 1.124290	 1.013147	 1.113312
C	 1.860761	 0.708952	 -0.021481
C	 -0.240016	 0.806879	 1.125309
H	 2.923471	 0.870259	 -0.029095
C	 1.232418	 0.199983	 -1.140004
H	 -0.811588	 1.040818	 2.000192
C	 -0.861704	 0.296439	 0.000000
H	 1.812426	 -0.031669	 -2.012215
C	 -0.131988	 -0.009303	 -1.136160
C	 -2.330689	 0.069587	 0.000000
H	 -0.623362	 -0.404956	 -2.004432
O	 -2.848621	 -0.993976	 0.000000
H	 -2.934306	 0.982410	 0.000000

	symmetry c1
}
set optking {
	frozen_dihedral = ("
		11 9 12 14
	")
}

ee,wfn = optimize('scf', return_wfn=True)
oeprop( wfn, 'DIPOLE', 'QUADRUPOLE', 'MULLIKEN_CHARGES')
f=open( 'psi4out.xyz', 'w' )
f.write( "15  " )
f.write( str(ee) + "\n" )
f.write( MOL.save_string_xyz() )
f.close()
--------------------------------------------------------------------------

    Molecular point group: c1
  Charge       = 0
  Multiplicity = 1
  Basis Set: CC-PVTZ
  Basis Set:
  @DF-RHF Final Energy:  -418.42840974063097
    Total Energy =                       -418.4284097406307410
    Molecular point group: c1
  Basis Set: CC-PVTZ
  Basis Set:
  Basis Set: CC-PVTZ
  Basis Set:
  @DF-RHF Final Energy:  -418.42843282325970
    Total Energy =                       -418.4284328232600956
  Basis Set: CC-PVTZ
  Basis Set:
  Basis Set: CC-PVTZ
  Basis Set:
  @DF-RHF Final Energy:  -418.42890391531120
    Total Energy =                       -418.4289039153105705
  Basis Set: CC-PVTZ
  Basis Set:
  Basis Set: CC-PVTZ
  Basis Set:
  @DF-RHF Final Energy:  -418.42898577164152
    Total Energy =                       -418.4289857716416918
  Basis Set: CC-PVTZ
  Basis Set:
  Charge       = 0
  Multiplicity = 1
  Basis Set: CC-PVTZ
  Basis Set:

    Orbital Energies (a.u.)
    -----------------------

    Doubly Occupied:

       1A    -20.597335     2A    -20.562801     3A    -11.332395
       4A    -11.312956     5A    -11.255841     6A    -11.249321
       7A    -11.240178     8A    -11.238639     9A    -11.236115
      10A     -1.429148    11A     -1.417328    12A     -1.172600
      13A     -1.052034    14A     -1.027110    15A     -0.902403
      16A     -0.846297    17A     -0.820637    18A     -0.742921
      19A     -0.703460    20A     -0.675635    21A     -0.674093
      22A     -0.641274    23A     -0.616396    24A     -0.608415
      25A     -0.587372    26A     -0.545350    27A     -0.537611
      28A     -0.516344    29A     -0.497411    30A     -0.426938
      31A     -0.358013    32A     -0.328848

  @DF-RHF Final Energy:  -418.42898668322090

   => Energetics <=

    Nuclear Repulsion Energy =            402.7380024959530260
    One-Electron Energy =               -1368.0275393781776074
    Two-Electron Energy =                 546.8605501990034554
    DFT Exchange-Correlation Energy =       0.0000000000000000
    Empirical Dispersion Energy =           0.0000000000000000
    PCM Polarization Energy =               0.0000000000000000
    EFP Energy =                            0.0000000000000000
    Total Energy =                       -418.4289866832211828
    Molecular point group: c1
  Basis Set: CC-PVTZ
  Basis Set:

  -Total Gradient:
     Atom            X                  Y                   Z
    ------   -----------------  -----------------  -----------------
       1       -0.000011244380    -0.000004761958    -0.000012368303
       2        0.000025988035    -0.000057097302     0.000015119522
       3       -0.000205940703     0.000160695237     0.000023656514
       4        0.000020220411    -0.000171857294    -0.000149464675
       5        0.000160176806     0.000049103846     0.000096645051
       6        0.000000905501     0.000005852145     0.000008236576
       7        0.000158950556     0.000112426541     0.000070957760
       8       -0.000016518383    -0.000011505426    -0.000023146551
       9        0.000690467425    -0.005587829657     0.003690985237
      10       -0.000001932903    -0.000009417276    -0.000000859295
      11       -0.000622218762     0.003737996246    -0.001059588093
      12       -0.000263294360     0.002008730800    -0.007435127260
      13        0.000006781026    -0.000007413942     0.000000670080
      14        0.000025345330    -0.000190885117     0.004791153458
      15        0.000032314399    -0.000034036846    -0.000016870020

  **** Optimization is complete! (in 5 steps) ****
    Final optimized geometry and variables:
    Molecular point group: c1

    Geometry (in Angstrom), charge = 0, multiplicity = 1:

    H            2.681748547924     1.166457815206     1.866246823959
    O            1.751775262874     1.067761596265     1.962925135086
    C            1.194413117982     0.588283091869     0.834969862002
    C            1.934217836200     0.310401292502    -0.300516989657
    C           -0.173729209868     0.383011986065     0.837091899219
    H            2.995632852264     0.478658072039    -0.305870760190
    C            1.301799995342    -0.178342226693    -1.427117041106
    H           -0.732805213123     0.619257075262     1.722184353256
    C           -0.788632626662    -0.134482667510    -0.285450268962
    H            1.880241919292    -0.384854255858    -2.307045482482
    C           -0.059376185278    -0.404589321247    -1.431152210725
    C           -2.275893772069    -0.313869972582    -0.281460745253
    H           -0.546072102344    -0.796646301648    -2.302214770287
    O           -2.817179805691    -1.362250412058    -0.326332647537
    H           -2.858048243783     0.609263850697    -0.194924576025

  Mulliken Charges: (a.u.)
   Center  Symbol    Alpha    Beta     Spin     Total
       1     H     0.38616  0.38616  0.00000  0.22769
       2     O     4.17169  4.17169  0.00000 -0.34338
       3     C     2.83600  2.83600  0.00000  0.32800
       4     C     3.13989  3.13989  0.00000 -0.27978
       5     C     3.13620  3.13620  0.00000 -0.27239
       6     H     0.43247  0.43247  0.00000  0.13505
       7     C     3.05292  3.05292  0.00000 -0.10584
       8     H     0.41947  0.41947  0.00000  0.16106
       9     C     2.92234  2.92234  0.00000  0.15532
      10     H     0.41958  0.41958  0.00000  0.16084
      11     C     3.12068  3.12068  0.00000 -0.24137
      12     C     2.92804  2.92804  0.00000  0.14392
      13     H     0.41913  0.41913  0.00000  0.16174
      14     O     4.15744  4.15744  0.00000 -0.31488
      15     H     0.45799  0.45799  0.00000  0.08402

   Total alpha = 32.00000, Total beta = 32.00000, Total charge = -0.00000

*** Psi4 exiting successfully. Buy a developer a beer!
