  ==> Input File <==

--------------------------------------------------------------------------
set {
	reference rhf
	basis cc-pvtz
}

set_num_threads( 4 )
memory 2 gb

molecule MOL {
0 1

H	 2.190573	 -0.629143	 -0.208718
O	 1.355408	 -0.529451	 0.208662
C	 0.700177	 0.619554	 -0.266242
C	 -0.713111	 0.588314	 0.266177
H	 0.678680	 0.627133	 -1.351786
H	 1.199747	 1.521489	 0.077736
O	 -1.421673	 -0.521378	 -0.196983
H	 -1.244794	 1.469161	 -0.069059
H	 -0.685100	 0.604721	 1.352683
H	 -2.333155	 -0.292872	 -0.251856

	symmetry c1
}
set optking {
	frozen_dihedral = ("
		10 7 4 3
	")
}

ee = optimize('scf')
oeprop('DIPOLE', 'QUADRUPOLE', 'MULLIKEN_CHARGES')
f=open( 'psi4out.xyz', 'w' )
f.write( "10  " )
f.write( str(ee) + "\n" )
f.write( MOL.save_string_xyz() )
f.close()
--------------------------------------------------------------------------

    Molecular point group: c1
  Charge       = 0
  Multiplicity = 1
  Basis Set: CC-PVTZ
  Basis Set:
  @DF-RHF Final Energy:  -229.02134954611373
    Total Energy =                       -229.0213495461138393
    Molecular point group: c1
  Basis Set: CC-PVTZ
  Basis Set:
  Basis Set: CC-PVTZ
  Basis Set:
  @DF-RHF Final Energy:  -229.02269729896292
    Total Energy =                       -229.0226972989629246
  Basis Set: CC-PVTZ
  Basis Set:
  Basis Set: CC-PVTZ
  Basis Set:
  @DF-RHF Final Energy:  -229.02288614236070
    Total Energy =                       -229.0228861423607327
  Basis Set: CC-PVTZ
  Basis Set:
  Basis Set: CC-PVTZ
  Basis Set:
  @DF-RHF Final Energy:  -229.02289735728505
    Total Energy =                       -229.0228973572849327
  Basis Set: CC-PVTZ
  Basis Set:
  Basis Set: CC-PVTZ
  Basis Set:
  @DF-RHF Final Energy:  -229.02290305397597
    Total Energy =                       -229.0229030539760231
  Basis Set: CC-PVTZ
  Basis Set:
  Basis Set: CC-PVTZ
  Basis Set:
  @DF-RHF Final Energy:  -229.02290636367960
    Total Energy =                       -229.0229063636795672
  Basis Set: CC-PVTZ
  Basis Set:
  Charge       = 0
  Multiplicity = 1
  Basis Set: CC-PVTZ
  Basis Set:

    Orbital Energies (a.u.)
    -----------------------

    Doubly Occupied:

       1A    -20.545752     2A    -20.545583     3A    -11.268758
       4A    -11.267920     5A     -1.374692     6A     -1.355098
       7A     -1.003798     8A     -0.832675     9A     -0.722445
      10A     -0.701521    11A     -0.629177    12A     -0.600449
      13A     -0.584185    14A     -0.523043    15A     -0.485294
      16A     -0.447133    17A     -0.436187

  @DF-RHF Final Energy:  -229.02290679569850

   => Energetics <=

    Nuclear Repulsion Energy =            133.4082427779508464
    One-Electron Energy =                -578.2148802988299394
    Two-Electron Energy =                 215.7837307251804759
    DFT Exchange-Correlation Energy =       0.0000000000000000
    Empirical Dispersion Energy =           0.0000000000000000
    PCM Polarization Energy =               0.0000000000000000
    EFP Energy =                            0.0000000000000000
    Total Energy =                       -229.0229067956986455
    Molecular point group: c1
  Basis Set: CC-PVTZ
  Basis Set:

  -Total Gradient:
     Atom            X                  Y                   Z
    ------   -----------------  -----------------  -----------------
       1        0.000008187515     0.000021854735     0.000002732255
       2       -0.000057602902     0.000012916934    -0.000007909314
       3       -0.000247685733     0.000583520774    -0.000763161255
       4        0.000480530978    -0.000665083979     0.000730782293
       5       -0.000013952351    -0.000009796131    -0.000005905950
       6        0.000003740811     0.000005487662    -0.000014091728
       7       -0.000419200045    -0.000532736026     0.001590275047
       8        0.000010505762    -0.000004178776     0.000005944197
       9        0.000001526619    -0.000011631084    -0.000004625043
      10        0.000233949348     0.000599645889    -0.001534040500

  **** Optimization is complete! (in 7 steps) ****
    Final optimized geometry and variables:
    Molecular point group: c1

    Geometry (in Angstrom), charge = 0, multiplicity = 1:

    H            2.228780101627    -0.628463435602    -0.191178931353
    O            1.420010077578    -0.510505508091     0.270916916484
    C            0.705193965433     0.562956316553    -0.270843006507
    C           -0.698542193634     0.555784872209     0.282362403318
    H            0.655059194212     0.494955586574    -1.353355710601
    H            1.175925500301     1.508414005793    -0.008004692750
    O           -1.419120069084    -0.521468925242    -0.249948404884
    H           -1.167680181166     1.500843437377     0.021163534040
    H           -0.654691751784     0.487999787478     1.365118984929
    H           -2.330719451102    -0.306225915222    -0.303688164194

  Mulliken Charges: (a.u.)
   Center  Symbol    Alpha    Beta     Spin     Total
       1     H     0.39512  0.39512  0.00000  0.20976
       2     O     4.19462  4.19462  0.00000 -0.38924
       3     C     2.95854  2.95854  0.00000  0.08291
       4     C     2.96225  2.96225  0.00000  0.07550
       5     H     0.47301  0.47301  0.00000  0.05397
       6     H     0.47841  0.47841  0.00000  0.04317
       7     O     4.19619  4.19619  0.00000 -0.39239
       8     H     0.47775  0.47775  0.00000  0.04451
       9     H     0.46991  0.46991  0.00000  0.06018
      10     H     0.39419  0.39419  0.00000  0.21163

   Total alpha = 17.00000, Total beta = 17.00000, Total charge =  0.00000
