                              Psi4 1.0.54 Driver

  ==> Input File <==

--------------------------------------------------------------------------
set {
	reference rhf
	basis cc-pvtz
}

set_num_threads( 4 )
memory 2 gb

molecule MOL {
0 1

O	 1.216069	 1.304886	 0.000821
C	 1.121787	 0.124983	 0.000110
C	 -0.170912	 -0.649867	 -0.000147
O	 2.167739	 -0.685178	 -0.000678
C	 -1.413045	 0.229353	 0.001137
H	 -0.152877	 -1.303435	 -0.866175
H	 -0.152278	 -1.305116	 0.864586
C	 -2.373807	 -0.123601	 1.132803
H	 -1.919240	 0.135487	 -0.953062
H	 -1.115960	 1.268914	 0.082357
C	 -3.623391	 0.750094	 1.142092
H	 -2.665292	 -1.167195	 1.048017
H	 -1.860959	 -0.027885	 2.086251
H	 -4.176970	 0.649801	 0.214689
H	 -4.286454	 0.477378	 1.954897
H	 -3.366846	 1.797340	 1.260580
C	 3.449556	 -0.089977	 -0.000570
H	 3.585694	 0.522473	 -0.879546
H	 4.155805	 -0.904274	 -0.001389
H	 3.586173	 0.521118	 0.879272

	symmetry c1
}
set optking {
	frozen_dihedral = ("
		9 5 3 6
	")
}

ee,wfn = optimize('scf', return_wfn=True)
oeprop( wfn, 'DIPOLE', 'QUADRUPOLE', 'MULLIKEN_CHARGES')
f=open( 'psi4out.xyz', 'w' )
f.write( "20  " )
f.write( str(ee) + "\n" )
f.write( MOL.save_string_xyz() )
f.close()
--------------------------------------------------------------------------

    Molecular point group: c1
  Charge       = 0
  Multiplicity = 1
  Basis Set: CC-PVTZ
  Basis Set:
  @DF-RHF Final Energy:  -384.07850793759525
    Total Energy =                       -384.0785079375953046
    Molecular point group: c1
  Basis Set: CC-PVTZ
  Basis Set:
  Basis Set: CC-PVTZ
  Basis Set:
  @DF-RHF Final Energy:  -384.07879518608695
    Total Energy =                       -384.0787951860869498
  Basis Set: CC-PVTZ
  Basis Set:
  Basis Set: CC-PVTZ
  Basis Set:
  @DF-RHF Final Energy:  -384.07874545276400
    Total Energy =                       -384.0787454527642240
  Basis Set: CC-PVTZ
  Basis Set:
  Basis Set: CC-PVTZ
  Basis Set:
  @DF-RHF Final Energy:  -384.07888546228992
    Total Energy =                       -384.0788854622904864
  Basis Set: CC-PVTZ
  Basis Set:
  Basis Set: CC-PVTZ
  Basis Set:
  @DF-RHF Final Energy:  -384.07888890404331
    Total Energy =                       -384.0788889040431968
  Basis Set: CC-PVTZ
  Basis Set:
  Basis Set: CC-PVTZ
  Basis Set:
  @DF-RHF Final Energy:  -384.07889062093471
    Total Energy =                       -384.0788906209347715
  Basis Set: CC-PVTZ
  Basis Set:
  Basis Set: CC-PVTZ
  Basis Set:
  @DF-RHF Final Energy:  -384.07889182602429
    Total Energy =                       -384.0788918260242326
  Basis Set: CC-PVTZ
  Basis Set:
  Charge       = 0
  Multiplicity = 1
  Basis Set: CC-PVTZ
  Basis Set:

    Orbital Energies (a.u.)
    -----------------------

    Doubly Occupied:

       1A    -20.596652     2A    -20.535113     3A    -11.365602
       4A    -11.278783     5A    -11.233994     6A    -11.217383
       7A    -11.215649     8A    -11.207599     9A     -1.472941
      10A     -1.366466    11A     -1.087251    12A     -1.025136
      13A     -0.968963    14A     -0.886591    15A     -0.805098
      16A     -0.769134    17A     -0.702852    18A     -0.684560
      19A     -0.676626    20A     -0.638107    21A     -0.602906
      22A     -0.592654    23A     -0.580094    24A     -0.547289
      25A     -0.530831    26A     -0.520456    27A     -0.507723
      28A     -0.478537    29A     -0.469734    30A     -0.465000
      31A     -0.461121    32A     -0.442469

  @DF-RHF Final Energy:  -384.07889220883510

   => Energetics <=

    Nuclear Repulsion Energy =            382.8000166089124150
    One-Electron Energy =               -1281.8911783616865705
    Two-Electron Energy =                 515.0122695439392828
    DFT Exchange-Correlation Energy =       0.0000000000000000
    Empirical Dispersion Energy =           0.0000000000000000
    PCM Polarization Energy =               0.0000000000000000
    EFP Energy =                            0.0000000000000000
    Total Energy =                       -384.0788922088348727
    Molecular point group: c1
  Basis Set: CC-PVTZ
  Basis Set:

  -Total Gradient:
     Atom            X                  Y                   Z
    ------   -----------------  -----------------  -----------------
       1        0.000045324031     0.000011570479    -0.000004182092
       2       -0.000079767731     0.000066676161     0.000009880580
       3       -0.000884276906    -0.001244742188     0.000827854282
       4        0.000076223649    -0.000044589521    -0.000010642761
       5        0.000904247726     0.001263009810    -0.000676081007
       6        0.000542873287     0.000790814453    -0.000585575605
       7       -0.000005320706     0.000014078423    -0.000001369438
       8       -0.000001057101    -0.000001417034     0.000032088170
       9       -0.000586080445    -0.000838785578     0.000398847214
      10       -0.000004962283    -0.000013697660     0.000007288455
      11       -0.000004676712    -0.000009882267    -0.000007763770
      12        0.000005571810    -0.000004101777     0.000001749690
      13       -0.000004854891     0.000004553796     0.000009922518
      14       -0.000005646098     0.000001753779    -0.000005994905
      15       -0.000002661519    -0.000001100034    -0.000003522908
      16        0.000005164254     0.000001655569     0.000003895350
      17       -0.000039701371    -0.000023312236     0.000005011098
      18        0.000005925534     0.000022315681    -0.000024284286
      19        0.000024053916    -0.000014386517    -0.000001530999
      20        0.000009621560     0.000019586664     0.000024410415

  **** Optimization is complete! (in 8 steps) ****
    Final optimized geometry and variables:
    Molecular point group: c1

    Geometry (in Angstrom), charge = 0, multiplicity = 1:

    O            1.175282722880     1.194772163178    -0.215918471005
    C            1.054924378389     0.018725328467    -0.272408372837
    C           -0.248291414552    -0.744937987120    -0.269141166716
    O            2.084857166563    -0.809166955095    -0.340929951006
    C           -1.507181381387     0.131420003248    -0.260456261141
    H           -0.218819773000    -1.400359422560    -1.131068047802
    H           -0.212440547585    -1.397858326141     0.596144247396
    C           -2.482312211951    -0.234207785512     0.857319439183
    H           -2.017755393390     0.035336462238    -1.212691760529
    H           -1.219370946289     1.168792313564    -0.163389821744
    C           -3.743687156927     0.621338992436     0.845055797930
    H           -2.756568802072    -1.282630305912     0.772722401198
    H           -1.981881506644    -0.125635092149     1.815813278807
    H           -4.284338074611     0.507860744106    -0.088765433746
    H           -4.413685182532     0.344023296299     1.650618077142
    H           -3.502729832584     1.672543914952     0.960553810467
    C            3.377851166799    -0.238783410640    -0.340821376685
    H            3.505700602044     0.416508391817    -1.189646539331
    H            4.067540564780    -1.064999566817    -0.401400353845
    H            3.547285721537     0.322325565796     0.566255806687

  Mulliken Charges: (a.u.)
   Center  Symbol    Alpha    Beta     Spin     Total
       1     O     4.19603  4.19603  0.00000 -0.39206
       2     C     2.80036  2.80036  0.00000  0.39927
       3     C     3.11053  3.11053  0.00000 -0.22107
       4     O     4.14735  4.14735  0.00000 -0.29471
       5     C     3.09386  3.09386  0.00000 -0.18771
       6     H     0.43394  0.43394  0.00000  0.13211
       7     H     0.43883  0.43883  0.00000  0.12234
       8     C     3.08651  3.08651  0.00000 -0.17301
       9     H     0.45216  0.45216  0.00000  0.09569
      10     H     0.43515  0.43515  0.00000  0.12970
      11     C     3.15006  3.15006  0.00000 -0.30013
      12     H     0.45454  0.45454  0.00000  0.09093
      13     H     0.45359  0.45359  0.00000  0.09283
      14     H     0.45539  0.45539  0.00000  0.08923
      15     H     0.44850  0.44850  0.00000  0.10299
      16     H     0.45248  0.45248  0.00000  0.09504
      17     C     3.03643  3.03643  0.00000 -0.07287
      18     H     0.45426  0.45426  0.00000  0.09148
      19     H     0.44553  0.44553  0.00000  0.10894
      20     H     0.45449  0.45449  0.00000  0.09101

   Total alpha = 32.00000, Total beta = 32.00000, Total charge =  0.00000

*** Psi4 exiting successfully. Buy a developer a beer!
