                              Psi4 1.0.54 Driver

  ==> Input File <==

--------------------------------------------------------------------------
set {
	reference rhf
	basis cc-pvtz
}

set_num_threads( 4 )
memory 2 gb

molecule MOL {
0 1

H	 -2.539726	 1.669506	 -1.524614
C	 -1.775927	 1.086037	 -1.052932
C	 -2.105997	 -0.000418	 -0.398703
H	 -0.755993	 1.407690	 -1.130858
O	 -1.189946	 -0.765863	 0.237511
H	 -3.123936	 -0.336513	 -0.321461
C	 0.026572	 -0.995256	 -0.379403
C	 1.057223	 0.049888	 -0.004615
H	 -0.054361	 -1.010670	 -1.459674
H	 0.397526	 -1.952058	 -0.044198
F	 2.203233	 -0.234060	 -0.590375
F	 0.698147	 1.254887	 -0.392621
F	 1.266440	 0.094219	 1.288722

	symmetry c1
}
set optking {
	frozen_dihedral = ("
		6 3 5 7
	")
}

ee,wfn = optimize('scf', return_wfn=True)
oeprop( wfn, 'DIPOLE', 'QUADRUPOLE', 'MULLIKEN_CHARGES')
f=open( 'psi4out.xyz', 'w' )
f.write( "13  " )
f.write( str(ee) + "\n" )
f.write( MOL.save_string_xyz() )
f.close()
--------------------------------------------------------------------------

    Molecular point group: c1
  Charge       = 0
  Multiplicity = 1
  Basis Set: CC-PVTZ
  Basis Set:
  @DF-RHF Final Energy:  -527.71836101404426
    Total Energy =                       -527.7183610140443761
    Molecular point group: c1
  Basis Set: CC-PVTZ
  Basis Set:
  Basis Set: CC-PVTZ
  Basis Set:
  @DF-RHF Final Energy:  -527.73282269485594
    Total Energy =                       -527.7328226948560541
  Basis Set: CC-PVTZ
  Basis Set:
  Basis Set: CC-PVTZ
  Basis Set:
  @DF-RHF Final Energy:  -527.73270227386251
    Total Energy =                       -527.7327022738622873
  Basis Set: CC-PVTZ
  Basis Set:
  Basis Set: CC-PVTZ
  Basis Set:
  @DF-RHF Final Energy:  -527.73732815664562
    Total Energy =                       -527.7373281566457308
  Basis Set: CC-PVTZ
  Basis Set:
  @DF-RHF Final Energy:  -527.73743895025586
    Total Energy =                       -527.7374389502556369
  @DF-RHF Final Energy:  -527.73890824150453
    Total Energy =                       -527.7389082415046460
  @DF-RHF Final Energy:  -527.73932653690701
    Total Energy =                       -527.7393265369072424
  @DF-RHF Final Energy:  -527.73945266919623
    Total Energy =                       -527.7394526691959982
  Basis Set: CC-PVTZ
  Basis Set:
  @DF-RHF Final Energy:  -527.73948116513952
    Total Energy =                       -527.7394811651392956
  Basis Set: CC-PVTZ
  Basis Set:
  Basis Set: CC-PVTZ
  Basis Set:
  @DF-RHF Final Energy:  -527.73949046289135
    Total Energy =                       -527.7394904628913537
  Basis Set: CC-PVTZ
  Basis Set:
  Basis Set: CC-PVTZ
  Basis Set:
  @DF-RHF Final Energy:  -527.73949215007519
    Total Energy =                       -527.7394921500747387
  Basis Set: CC-PVTZ
  Basis Set:
  Charge       = 0
  Multiplicity = 1
  Basis Set: CC-PVTZ
  Basis Set:

    Orbital Energies (a.u.)
    -----------------------

    Doubly Occupied:

       1A    -26.339018     2A    -26.337976     3A    -26.335217
       4A    -20.600072     5A    -11.495473     6A    -11.316323
       7A    -11.300878     8A    -11.221571     9A     -1.747797
      10A     -1.644188    11A     -1.642555    12A     -1.439075
      13A     -1.083297    14A     -1.026698    15A     -0.936393
      16A     -0.842913    17A     -0.837570    18A     -0.825061
      19A     -0.781256    20A     -0.733498    21A     -0.715882
      22A     -0.705925    23A     -0.679830    24A     -0.666030
      25A     -0.661988    26A     -0.648239    27A     -0.631294
      28A     -0.610797    29A     -0.553790    30A     -0.536828
      31A     -0.494957    32A     -0.368905

  @DF-RHF Final Energy:  -527.73949238503133

   => Energetics <=

    Nuclear Repulsion Energy =            417.1245277276603360
    One-Electron Energy =               -1558.2054613403497569
    Two-Electron Energy =                 613.3414412276581515
    DFT Exchange-Correlation Energy =       0.0000000000000000
    Empirical Dispersion Energy =           0.0000000000000000
    PCM Polarization Energy =               0.0000000000000000
    EFP Energy =                            0.0000000000000000
    Total Energy =                       -527.7394923850313262
    Molecular point group: c1
  Basis Set: CC-PVTZ
  Basis Set:

  -Total Gradient:
     Atom            X                  Y                   Z
    ------   -----------------  -----------------  -----------------
       1       -0.000001422845    -0.000001918232    -0.000000467352
       2        0.000022563487    -0.000001970254     0.000010723587
       3       -0.000279199690     0.002165059800     0.001934828327
       4       -0.000007915286     0.000002292296    -0.000007211148
       5        0.001789503300     0.002535775963    -0.000690952049
       6       -0.000318808312    -0.002556528529    -0.001442500731
       7       -0.001227724274    -0.002141621641     0.000209584849
       8        0.000009143765    -0.000032459894     0.000007895747
       9        0.000013820353     0.000000942879     0.000004312826
      10       -0.000000057652    -0.000008763622     0.000004302214
      11        0.000002055111    -0.000011171871     0.000014550926
      12        0.000007152602     0.000059464171    -0.000010984584
      13       -0.000009110555    -0.000009101062    -0.000034082614

  **** Optimization is complete! (in 12 steps) ****
    Final optimized geometry and variables:
    Molecular point group: c1

    Geometry (in Angstrom), charge = 0, multiplicity = 1:

    H           -3.256320242129     1.206615054331    -1.621326744617
    C           -2.341107217453     0.858453687004    -1.187111623370
    C           -2.387508336079     0.229146488524    -0.035759811406
    H           -1.428922547052     1.055798540531    -1.713632204255
    O           -1.348905488255    -0.292711137129     0.658243768857
    H           -3.314452584088     0.056367621583     0.475893970524
    C           -0.310397688708    -0.938006117672     0.001313328959
    C            0.974867000500    -0.144082084122     0.092641024553
    H           -0.530984997037    -1.109133358215    -1.042472597855
    H           -0.132298725595    -1.886458862237     0.488975010497
    F            1.943131440082    -0.812443279866    -0.502846691277
    F            0.882188394863     1.029288862644    -0.493758076534
    F            1.336932606387     0.062012222856     1.336513232460

  Mulliken Charges: (a.u.)
   Center  Symbol    Alpha    Beta     Spin     Total
       1     H     0.42314  0.42314  0.00000  0.15373
       2     C     3.19311  3.19311  0.00000 -0.38621
       3     C     2.98117  2.98117  0.00000  0.03765
       4     H     0.42354  0.42354  0.00000  0.15292
       5     O     4.15814  4.15814  0.00000 -0.31628
       6     H     0.41498  0.41498  0.00000  0.17003
       7     C     3.01464  3.01464  0.00000 -0.02929
       8     C     2.67365  2.67365  0.00000  0.65271
       9     H     0.45049  0.45049  0.00000  0.09903
      10     H     0.43654  0.43654  0.00000  0.12692
      11     F     4.61334  4.61334  0.00000 -0.22668
      12     F     4.60975  4.60975  0.00000 -0.21951
      13     F     4.60751  4.60751  0.00000 -0.21502

   Total alpha = 32.00000, Total beta = 32.00000, Total charge =  0.00000

*** Psi4 exiting successfully. Buy a developer a beer!
