  ==> Input File <==

--------------------------------------------------------------------------
set {
	reference rhf
	basis 6-31G*
}

set_num_threads( 1 )
memory 2 gb

molecule MOL {
0 1

H	 3.276176	 0.174363	 -0.109463
N	 2.434251	 -0.367735	 -0.081097
C	 1.267428	 0.496480	 0.024474
H	 2.501951	 -0.965776	 0.720575
C	 -0.016086	 -0.325158	 -0.029487
H	 1.288818	 1.183521	 -0.816092
H	 1.267576	 1.109062	 0.929528
C	 -1.282277	 0.529072	 0.046735
H	 -0.012495	 -0.908639	 -0.945788
H	 -0.015903	 -1.041248	 0.791956
C	 -1.313422	 1.640626	 -1.001683
H	 -1.361066	 0.968841	 1.038895
H	 -2.157618	 -0.105503	 -0.075938
H	 -0.469051	 2.313549	 -0.883644
H	 -2.221045	 2.230972	 -0.922727
H	 -1.270971	 1.231908	 -2.007351

	symmetry c1
}
set optking {
	frozen_dihedral = ("
		6 3 5 9,
		1 2 3 6
	")
}

ee = energy('scf')
oeprop('DIPOLE', 'QUADRUPOLE', 'MULLIKEN_CHARGES')
f=open( 'psi4out.xyz', 'w' )
f.write( "16  " )
f.write( str(ee) + "\n" )
f.write( MOL.save_string_xyz() )
f.close()
--------------------------------------------------------------------------

    Molecular point group: c1

    Geometry (in Angstrom), charge = 0, multiplicity = 1:

       Center              X                  Y                   Z               Mass
    ------------   -----------------  -----------------  -----------------  -----------------
           H          3.019126199151    -0.224907137936     0.095123178394     1.007825032070
           N          2.177201199151    -0.767005137936     0.123489178394    14.003074004780
           C          1.010378199151     0.097209862064     0.229060178394    12.000000000000
           H          2.244901199151    -1.365046137936     0.925161178394     1.007825032070
           C         -0.273135800849    -0.724428137936     0.175099178394    12.000000000000
           H          1.031768199151     0.784250862064    -0.611505821606     1.007825032070
           H          1.010526199151     0.709791862064     1.134114178394     1.007825032070
           C         -1.539326800849     0.129801862064     0.251321178394    12.000000000000
           H         -0.269544800849    -1.307909137936    -0.741201821606     1.007825032070
           H         -0.272952800849    -1.440518137936     0.996542178394     1.007825032070
           C         -1.570471800849     1.241355862064    -0.797096821606    12.000000000000
           H         -1.618115800849     0.569570862064     1.243481178394     1.007825032070
           H         -2.414667800849    -0.504773137936     0.128648178394     1.007825032070
           H         -0.726100800849     1.914278862064    -0.679057821606     1.007825032070
           H         -2.478094800849     1.831701862064    -0.718140821606     1.007825032070
           H         -1.528020800849     0.832637862064    -1.802764821606     1.007825032070

  Charge       = 0
  Multiplicity = 1
  Basis Set: 6-31G*
  Basis Set:

    Orbital Energies (a.u.)
    -----------------------

    Doubly Occupied:

       1A    -15.532512     2A    -11.239053     3A    -11.214979
       4A    -11.209544     5A    -11.207441     6A     -1.176664
       7A     -1.061017     8A     -0.952639     9A     -0.860981
      10A     -0.777288    11A     -0.664063    12A     -0.632611
      13A     -0.608228    14A     -0.596165    15A     -0.543507
      16A     -0.526822    17A     -0.513953    18A     -0.466924
      19A     -0.464331    20A     -0.455261    21A     -0.381300

  @DF-RHF Final Energy:  -212.31389417864816

   => Energetics <=

    Nuclear Repulsion Energy =            189.9174880614676511
    One-Electron Energy =                -662.2921734419329596
    Two-Electron Energy =                 260.0607912018176648
    DFT Exchange-Correlation Energy =       0.0000000000000000
    Empirical Dispersion Energy =           0.0000000000000000
    PCM Polarization Energy =               0.0000000000000000
    EFP Energy =                            0.0000000000000000
    Total Energy =                       -212.3138941786476153

  Mulliken Charges: (a.u.)
   Center  Symbol    Alpha    Beta     Spin     Total
       1     H     0.33257  0.33257  0.00000  0.33485
       2     N     3.92174  3.92174  0.00000 -0.84347
       3     C     3.06361  3.06361  0.00000 -0.12722
       4     H     0.33551  0.33551  0.00000  0.32897
       5     C     3.15166  3.15166  0.00000 -0.30333
       6     H     0.41779  0.41779  0.00000  0.16441
       7     H     0.43524  0.43524  0.00000  0.12952
       8     C     3.15575  3.15575  0.00000 -0.31150
       9     H     0.41370  0.41370  0.00000  0.17260
      10     H     0.42583  0.42583  0.00000  0.14834
      11     C     3.24417  3.24417  0.00000 -0.48835
      12     H     0.42383  0.42383  0.00000  0.15235
      13     H     0.41928  0.41928  0.00000  0.16144
      14     H     0.42033  0.42033  0.00000  0.15933
      15     H     0.41888  0.41888  0.00000  0.16225
      16     H     0.42010  0.42010  0.00000  0.15980

   Total alpha = 21.00000, Total beta = 21.00000, Total charge = -0.00000
