  ==> Input File <==

--------------------------------------------------------------------------
set {
	reference rhf
	basis 6-31G*
}

set_num_threads( 4 )
memory 2 gb

molecule MOL {
0 1

H	 5.249684	 -0.007244	 1.070325
C	 4.648883	 -0.355752	 0.235998
C	 3.159447	 -0.322900	 0.576113
H	 4.867485	 0.279604	 -0.617159
H	 4.975109	 -1.362979	 -0.008685
C	 2.283064	 -0.815158	 -0.577771
H	 2.874447	 0.690364	 0.840065
H	 2.977608	 -0.940116	 1.454561
C	 0.787594	 -0.810781	 -0.260257
H	 2.458727	 -0.202452	 -1.454913
H	 2.574417	 -1.830507	 -0.837044
C	 0.169600	 0.576866	 -0.172154
H	 0.244836	 -1.342737	 -1.040133
H	 0.584258	 -1.352365	 0.660893
C	 -1.181045	 0.701995	 0.511084
O	 0.711952	 1.534021	 -0.637034
C	 -2.285934	 -0.139295	 -0.145128
H	 -1.449051	 1.751551	 0.493206
H	 -1.071135	 0.403303	 1.551943
C	 -3.651768	 0.085446	 0.506485
H	 -2.346596	 0.110469	 -1.202272
H	 -2.034737	 -1.195320	 -0.088721
C	 -4.759797	 -0.746382	 -0.137905
H	 -3.908762	 1.140117	 0.445781
H	 -3.588286	 -0.154158	 1.565709
H	 -4.868882	 -0.505166	 -1.191300
H	 -4.548009	 -1.809175	 -0.062213
H	 -5.715422	 -0.564821	 0.343442

	symmetry c1
}
set optking {
	frozen_dihedral = ("
		16 12 15 17
	")
}

ee = optimize('scf')
oeprop('DIPOLE', 'QUADRUPOLE', 'MULLIKEN_CHARGES')
f=open( 'psi4out.xyz', 'w' )
f.write( "28  " )
f.write( str(ee) + "\n" )
f.write( MOL.save_string_xyz() )
f.close()
--------------------------------------------------------------------------

    Molecular point group: c1
  Charge       = 0
  Multiplicity = 1
  Basis Set: 6-31G*
  Basis Set:
  @DF-RHF Final Energy:  -426.16918457521274
    Total Energy =                       -426.1691845752123982
    Molecular point group: c1
  Basis Set: 6-31G*
  Basis Set:
  Basis Set: 6-31G*
  Basis Set:
  @DF-RHF Final Energy:  -426.16891048967818
    Total Energy =                       -426.1689104896773870
  Basis Set: 6-31G*
  Basis Set:
  Basis Set: 6-31G*
  Basis Set:
  @DF-RHF Final Energy:  -426.16918660668784
    Total Energy =                       -426.1691866066878447
  Basis Set: 6-31G*
  Basis Set:
  Basis Set: 6-31G*
  Basis Set:
  @DF-RHF Final Energy:  -426.16901623800788
    Total Energy =                       -426.1690162380077709
  Basis Set: 6-31G*
  Basis Set:
  Basis Set: 6-31G*
  Basis Set:
  @DF-RHF Final Energy:  -426.16919287503208
    Total Energy =                       -426.1691928750321949
  Basis Set: 6-31G*
  Basis Set:
  Basis Set: 6-31G*
  Basis Set:
  @DF-RHF Final Energy:  -426.16919458620430
    Total Energy =                       -426.1691945862041848
  Basis Set: 6-31G*
  Basis Set:
  Charge       = 0
  Multiplicity = 1
  Basis Set: 6-31G*
  Basis Set:

    Orbital Energies (a.u.)
    -----------------------

    Doubly Occupied:

       1A    -20.548023     2A    -11.322172     3A    -11.232414
       4A    -11.229957     5A    -11.228940     6A    -11.226188
       7A    -11.216463     8A    -11.216439     9A    -11.212378
      10A    -11.205752    11A     -1.393168    12A     -1.095382
      13A     -1.077374    14A     -1.022681    15A     -0.990711
      16A     -0.907305    17A     -0.873529    18A     -0.809359
      19A     -0.799844    20A     -0.722798    21A     -0.668701
      22A     -0.653579    23A     -0.627560    24A     -0.619833
      25A     -0.609564    26A     -0.587938    27A     -0.577419
      28A     -0.575049    29A     -0.542839    30A     -0.532400
      31A     -0.520253    32A     -0.506952    33A     -0.499011
      34A     -0.485131    35A     -0.479087    36A     -0.475850
      37A     -0.471556    38A     -0.465160    39A     -0.455324
      40A     -0.392286

  @DF-RHF Final Energy:  -426.16919445203416

   => Energetics <=

    Nuclear Repulsion Energy =            531.2800884052422816
    One-Electron Energy =               -1630.7458257140156093
    Two-Electron Energy =                 673.2965428567390518
    DFT Exchange-Correlation Energy =       0.0000000000000000
    Empirical Dispersion Energy =           0.0000000000000000
    PCM Polarization Energy =               0.0000000000000000
    EFP Energy =                            0.0000000000000000
    Total Energy =                       -426.1691944520343895
    Molecular point group: c1
  Basis Set: 6-31G*
  Basis Set:

  -Total Gradient:
     Atom            X                  Y                   Z
    ------   -----------------  -----------------  -----------------
       1        0.000000024748     0.000000501169    -0.000000628889
       2        0.000000604764     0.000002658518     0.000000457270
       3        0.000007480721    -0.000011202557    -0.000001187808
       4        0.000000656439     0.000000144111    -0.000000625470
       5       -0.000000226674    -0.000000219848     0.000000224699
       6        0.000011734242     0.000002207568    -0.000001219879
       7       -0.000003633733     0.000003773631     0.000002486033
       8        0.000001630915     0.000000122102     0.000000139432
       9        0.000001361843     0.000002408487     0.000015387958
      10       -0.000001926293    -0.000003765319     0.000004657477
      11        0.000000591005    -0.000000881347     0.000002236588
      12       -0.000109303763    -0.000075993853    -0.000151593335
      13       -0.000004732500     0.000003591869    -0.000002492346
      14        0.000004095528    -0.000000097749    -0.000003746216
      15       -0.000043843622     0.000168563725    -0.000124105370
      16        0.000073169513     0.000030895425     0.000141539527
      17        0.000021576774    -0.000095330483     0.000089589098
      18        0.000013670788     0.000008287609     0.000031101241
      19        0.000029169660    -0.000013580682    -0.000005718376
      20        0.000012016303    -0.000016697601     0.000007346935
      21       -0.000014847586    -0.000022116942    -0.000014137914
      22        0.000004573368     0.000007384018     0.000016804083
      23       -0.000007244389     0.000020749799    -0.000017262545
      24        0.000010444956    -0.000002094908     0.000014846355
      25       -0.000002817116    -0.000013953390     0.000001753316
      26        0.000000082165    -0.000007645923    -0.000007201033
      27        0.000000065952     0.000005598712     0.000008069810
      28       -0.000004374006     0.000006693856    -0.000006720643

  **** Optimization is complete! (in 7 steps) ****
    Final optimized geometry and variables:
    Molecular point group: c1

    Geometry (in Angstrom), charge = 0, multiplicity = 1:

    H            5.256605724869     0.034574819173     1.094149157876
    C            4.659948422319    -0.316898749412     0.258102365020
    C            3.169214457356    -0.288449312036     0.592806763125
    H            4.879566130339     0.318122579537    -0.595045108527
    H            4.990315121071    -1.323382287376     0.015862527661
    C            2.298574141264    -0.784949890135    -0.563629557355
    H            2.880005174606     0.724219603589     0.854498236954
    H            2.986211174346    -0.905196009796     1.471349932372
    C            0.801905053909    -0.784755516816    -0.251725216405
    H            2.475665240738    -0.172993134319    -1.440977337624
    H            2.593950904264    -1.799770798429    -0.820326448533
    C            0.179374774055     0.601084611579    -0.168422719680
    H            0.263535958991    -1.320075978386    -1.032318958722
    H            0.596984089695    -1.325075543737     0.669859018401
    C           -1.171053103354     0.725117980353     0.515451926691
    O            0.721497708128     1.559219790131    -0.631526834107
    C           -2.282308845171    -0.111302587105    -0.135272767981
    H           -1.435507414094     1.775655743690     0.505740227931
    H           -1.054776414960     0.421881166714     1.554670702924
    C           -3.643146452495     0.116878365792     0.525541467818
    H           -2.349804030980     0.139974974762    -1.191750108384
    H           -2.034418422853    -1.168184258012    -0.082342150427
    C           -4.759318845769    -0.705476402156    -0.116943191468
    H           -3.894990968684     1.173186672049     0.472320427938
    H           -3.574707918013    -0.128980465720     1.583042739302
    H           -4.872471055849    -0.458726469841    -1.168636239368
    H           -4.553313199532    -1.769811921312    -0.047296635320
    H           -5.711398833101    -0.520649476546     0.370192234786

  Mulliken Charges: (a.u.)
   Center  Symbol    Alpha    Beta     Spin     Total
       1     H     0.41934  0.41934  0.00000  0.16131
       2     C     3.24011  3.24011  0.00000 -0.48023
       3     C     3.15643  3.15643  0.00000 -0.31287
       4     H     0.41828  0.41828  0.00000  0.16344
       5     H     0.42362  0.42362  0.00000  0.15277
       6     C     3.14913  3.14913  0.00000 -0.29827
       7     H     0.41046  0.41046  0.00000  0.17908
       8     H     0.42773  0.42773  0.00000  0.14455
       9     C     3.21230  3.21230  0.00000 -0.42460
      10     H     0.40658  0.40658  0.00000  0.18684
      11     H     0.42193  0.42193  0.00000  0.15615
      12     C     2.73043  2.73043  0.00000  0.53914
      13     H     0.40280  0.40280  0.00000  0.19440
      14     H     0.41319  0.41319  0.00000  0.17361
      15     C     3.20230  3.20230  0.00000 -0.40459
      16     O     4.26705  4.26705  0.00000 -0.53411
      17     C     3.16375  3.16375  0.00000 -0.32750
      18     H     0.39970  0.39970  0.00000  0.20061
      19     H     0.41233  0.41233  0.00000  0.17534
      20     C     3.15185  3.15185  0.00000 -0.30370
      21     H     0.41440  0.41440  0.00000  0.17121
      22     H     0.41847  0.41847  0.00000  0.16307
      23     C     3.24031  3.24031  0.00000 -0.48061
      24     H     0.41841  0.41841  0.00000  0.16317
      25     H     0.42138  0.42138  0.00000  0.15724
      26     H     0.41968  0.41968  0.00000  0.16064
      27     H     0.42119  0.42119  0.00000  0.15762
      28     H     0.41685  0.41685  0.00000  0.16630

   Total alpha = 40.00000, Total beta = 40.00000, Total charge =  0.00000
