  ==> Input File <==

--------------------------------------------------------------------------
set {
	reference rhf
	basis 6-31G*
}

set_num_threads( 4 )
memory 2 gb

molecule MOL {
0 1

O	 3.225979	 0.970355	 -0.599647
C	 2.701189	 0.057885	 -0.047330
C	 1.245376	 -0.013843	 0.345420
O	 3.347903	 -1.046386	 0.304773
C	 0.455112	 1.231400	 -0.050772
H	 0.838542	 -0.913825	 -0.103701
H	 1.208210	 -0.175333	 1.419774
C	 -0.998893	 1.219485	 0.433193
H	 0.482531	 1.345121	 -1.130325
H	 0.957290	 2.103070	 0.354729
C	 -2.034752	 0.883911	 -0.643607
H	 -1.226525	 2.202066	 0.839936
H	 -1.099549	 0.519749	 1.261594
C	 -3.474828	 0.992612	 -0.138271
H	 -1.899634	 1.554168	 -1.491143
H	 -1.870213	 -0.122800	 -1.021009
C	 -4.518451	 0.654412	 -1.204387
H	 -3.651890	 2.001970	 0.229264
H	 -3.607625	 0.330567	 0.715990
C	 -5.953996	 0.769097	 -0.692765
H	 -4.386532	 1.314392	 -2.059177
H	 -4.345782	 -0.355730	 -1.569873
H	 -6.670135	 0.523342	 -1.470813
H	 -6.169265	 1.777896	 -0.351914
H	 -6.127914	 0.095327	 0.141537
C	 4.728119	 -1.109107	 -0.004993
H	 4.882018	 -1.033965	 -1.071845
H	 5.068212	 -2.067527	 0.355250
H	 5.265056	 -0.311663	 0.488280

	symmetry c1
}
set optking {
	frozen_dihedral = ("
		11 8 5 9
	")
}

ee = optimize('scf')
oeprop('DIPOLE', 'QUADRUPOLE', 'MULLIKEN_CHARGES')
f=open( 'psi4out.xyz', 'w' )
f.write( "29  " )
f.write( str(ee) + "\n" )
f.write( MOL.save_string_xyz() )
f.close()
--------------------------------------------------------------------------

    Molecular point group: c1
  Charge       = 0
  Multiplicity = 1
  Basis Set: 6-31G*
  Basis Set:
  @DF-RHF Final Energy:  -501.04054081078596
    Total Energy =                       -501.0405408107865242
    Molecular point group: c1
  Basis Set: 6-31G*
  Basis Set:
  Basis Set: 6-31G*
  Basis Set:
  @DF-RHF Final Energy:  -501.04121492652371
    Total Energy =                       -501.0412149265234802
  Basis Set: 6-31G*
  Basis Set:
  Basis Set: 6-31G*
  Basis Set:
  @DF-RHF Final Energy:  -501.04113609164494
    Total Energy =                       -501.0411360916450576
  Basis Set: 6-31G*
  Basis Set:
  Basis Set: 6-31G*
  Basis Set:
  @DF-RHF Final Energy:  -501.04114623491296
    Total Energy =                       -501.0411462349127305
  Basis Set: 6-31G*
  Basis Set:
  Basis Set: 6-31G*
  Basis Set:
  @DF-RHF Final Energy:  -501.04129218378023
    Total Energy =                       -501.0412921837798876
  Basis Set: 6-31G*
  Basis Set:
  Basis Set: 6-31G*
  Basis Set:
  @DF-RHF Final Energy:  -501.04129091911068
    Total Energy =                       -501.0412909191099970
  Basis Set: 6-31G*
  Basis Set:
  Basis Set: 6-31G*
  Basis Set:
  @DF-RHF Final Energy:  -501.04129558313139
    Total Energy =                       -501.0412955831310455
  Basis Set: 6-31G*
  Basis Set:
  Charge       = 0
  Multiplicity = 1
  Basis Set: 6-31G*
  Basis Set:

    Orbital Energies (a.u.)
    -----------------------

    Doubly Occupied:

       1A    -20.603387     2A    -20.545269     3A    -11.371798
       4A    -11.280681     5A    -11.235264     6A    -11.218841
       7A    -11.217245     8A    -11.215579     9A    -11.215317
      10A    -11.213776    11A    -11.208672    12A     -1.469046
      13A     -1.362496    14A     -1.096817    15A     -1.066724
      16A     -1.019545    17A     -0.977110    18A     -0.926922
      19A     -0.857953    20A     -0.800991    21A     -0.790557
      22A     -0.766468    23A     -0.700260    24A     -0.682191
      25A     -0.672238    26A     -0.649571    27A     -0.628729
      28A     -0.602942    29A     -0.595935    30A     -0.581570
      31A     -0.565699    32A     -0.546706    33A     -0.533430
      34A     -0.529603    35A     -0.514839    36A     -0.504388
      37A     -0.501107    38A     -0.478501    39A     -0.469428
      40A     -0.462952    41A     -0.459291    42A     -0.456111
      43A     -0.441747    44A     -0.432583

  @DF-RHF Final Energy:  -501.04129574440401

   => Energetics <=

    Nuclear Repulsion Energy =            607.2178843243920028
    One-Electron Energy =               -1885.5778041365661011
    Two-Electron Energy =                 777.3186240677698606
    DFT Exchange-Correlation Energy =       0.0000000000000000
    Empirical Dispersion Energy =           0.0000000000000000
    PCM Polarization Energy =               0.0000000000000000
    EFP Energy =                            0.0000000000000000
    Total Energy =                       -501.0412957444043514
    Molecular point group: c1
  Basis Set: 6-31G*
  Basis Set:

  -Total Gradient:
     Atom            X                  Y                   Z
    ------   -----------------  -----------------  -----------------
       1        0.000014752111     0.000008444980     0.000029436781
       2       -0.000028241380    -0.000024246313    -0.000043377567
       3        0.000008529266    -0.000011411902    -0.000038845051
       4        0.000006373349     0.000006659629    -0.000002564711
       5        0.000048113462     0.004819357599     0.000086627833
       6        0.000010262403     0.000008919436     0.000015035169
       7       -0.000004278953     0.000022396735     0.000011910286
       8        0.000223090008    -0.003871226045     0.000757908812
       9       -0.000078944963    -0.003179417371    -0.000226226074
      10        0.000011566191    -0.000007438575    -0.000008996830
      11       -0.000202257896     0.002210377017    -0.000576315402
      12       -0.000011183980    -0.000003653926    -0.000001618751
      13       -0.000003973396     0.000000769900    -0.000007732379
      14        0.000000873328     0.000008130407    -0.000009750806
      15        0.000004292147     0.000002899432     0.000002527466
      16        0.000002085707     0.000000220342     0.000007887466
      17       -0.000000951115     0.000009015357     0.000001266481
      18        0.000003822069     0.000003769763    -0.000002432529
      19       -0.000006547886     0.000003926894     0.000002005047
      20       -0.000000049651    -0.000011158505     0.000001214876
      21       -0.000005587459     0.000004825995     0.000000891168
      22        0.000004256518     0.000003944280    -0.000003436407
      23       -0.000000829391    -0.000003217373     0.000000848909
      24        0.000003130802    -0.000001504509    -0.000002886693
      25       -0.000002135156     0.000000022677     0.000002675687
      26        0.000000734597    -0.000000695092     0.000004129925
      27       -0.000000823559     0.000000450966     0.000000184256
      28        0.000002569011     0.000000025056    -0.000000150053
      29        0.000001353813    -0.000000186848    -0.000000216911

  **** Optimization is complete! (in 8 steps) ****
    Final optimized geometry and variables:
    Molecular point group: c1

    Geometry (in Angstrom), charge = 0, multiplicity = 1:

    O            3.257807489467     0.470771757235    -0.514863403723
    C            2.720968063078    -0.358943912522     0.145989502230
    C            1.301087986444    -0.294210209059     0.653499403818
    O            3.319881593164    -1.478237472357     0.533140312571
    C            0.565228105200     0.980266369779     0.241463678556
    H            0.786538197136    -1.180632606308     0.292013004516
    H            1.338078894639    -0.394554120825     1.734640764946
    C           -0.903459037170     0.984957812996     0.710762891387
    H            0.608289215065     1.055734250027    -0.839683760910
    H            1.099309678843     1.837341126187     0.634153642293
    C           -1.896123233066     0.606821336849    -0.392011627108
    H           -1.161898305221     1.975597364958     1.075978553802
    H           -1.027826159294     0.315061491270     1.558938695573
    C           -3.347776607424     0.571589209594     0.087400805390
    H           -1.802209764346     1.318932541743    -1.209290233249
    H           -1.631143225125    -0.365799865593    -0.805289365963
    C           -4.342767523630     0.214023302190    -1.018271174917
    H           -3.611501525877     1.541167376804     0.507049548008
    H           -3.441904505941    -0.146738752846     0.900339825676
    C           -5.790691063272     0.177951905189    -0.530528236145
    H           -4.253303614879     0.933596373107    -1.829277245431
    H           -4.080104831812    -0.754047155772    -1.439659307295
    H           -6.471450207398    -0.078152298209    -1.336506315607
    H           -6.095116027190     1.142730459420    -0.134600988176
    H           -5.920578207880    -0.557692497672     0.258313219463
    C            4.662512373494    -1.663559993922     0.123348354927
    H            4.732311800060    -1.678140551968    -0.954819205629
    H            4.966758312171    -2.615164234590     0.530620518186
    H            5.290212984890    -0.873210625913     0.509185159741

  Mulliken Charges: (a.u.)
   Center  Symbol    Alpha    Beta     Spin     Total
       1     O     4.28606  4.28606  0.00000 -0.57212
       2     C     2.60579  2.60579  0.00000  0.78843
       3     C     3.20943  3.20943  0.00000 -0.41886
       4     O     4.30726  4.30726  0.00000 -0.61453
       5     C     3.15543  3.15543  0.00000 -0.31086
       6     H     0.40078  0.40078  0.00000  0.19844
       7     H     0.40049  0.40049  0.00000  0.19903
       8     C     3.15844  3.15844  0.00000 -0.31687
       9     H     0.40907  0.40907  0.00000  0.18186
      10     H     0.40941  0.40941  0.00000  0.18118
      11     C     3.15350  3.15350  0.00000 -0.30700
      12     H     0.41828  0.41828  0.00000  0.16345
      13     H     0.42251  0.42251  0.00000  0.15499
      14     C     3.15121  3.15121  0.00000 -0.30242
      15     H     0.42069  0.42069  0.00000  0.15862
      16     H     0.42516  0.42516  0.00000  0.14968
      17     C     3.15143  3.15143  0.00000 -0.30287
      18     H     0.42361  0.42361  0.00000  0.15279
      19     H     0.42429  0.42429  0.00000  0.15143
      20     C     3.23930  3.23930  0.00000 -0.47860
      21     H     0.42257  0.42257  0.00000  0.15486
      22     H     0.42327  0.42327  0.00000  0.15346
      23     H     0.41922  0.41922  0.00000  0.16155
      24     H     0.42168  0.42168  0.00000  0.15665
      25     H     0.42199  0.42199  0.00000  0.15602
      26     C     3.09242  3.09242  0.00000 -0.18485
      27     H     0.40912  0.40912  0.00000  0.18176
      28     H     0.40850  0.40850  0.00000  0.18299
      29     H     0.40910  0.40910  0.00000  0.18181

   Total alpha = 44.00000, Total beta = 44.00000, Total charge = -0.00000
