                              Psi4 1.0.54 Driver

  ==> Input File <==

--------------------------------------------------------------------------
set {
	reference rhf
	basis cc-pvtz
}

set_num_threads( 4 )
memory 2 gb

molecule MOL {
0 1

H	 -1.752232	 -2.214755	 -0.011938
C	 -1.343852	 -1.221619	 -0.018179
N	 -0.058800	 -1.097635	 -0.261688
C	 -2.148159	 -0.124236	 0.219734
C	 0.449026	 0.119242	 -0.273393
H	 -3.196988	 -0.237571	 0.417076
N	 -1.655094	 1.094230	 0.209506
C	 -0.370318	 1.215445	 -0.035100
C	 1.924033	 0.265863	 -0.538106
H	 0.033214	 2.210441	 -0.046812
C	 2.226479	 1.277840	 -1.644396
H	 2.402035	 0.583750	 0.380711
H	 2.340001	 -0.699997	 -0.799445
H	 3.296241	 1.380778	 -1.782041
H	 1.820542	 2.249072	 -1.393592
H	 1.794851	 0.964699	 -2.588423

	symmetry c1
}
set optking {
	frozen_dihedral = ("
		12 9 5 3
	")
}

ee,wfn = optimize('scf', return_wfn=True)
oeprop( wfn, 'DIPOLE', 'QUADRUPOLE', 'MULLIKEN_CHARGES')
f=open( 'psi4out.xyz', 'w' )
f.write( "16  " )
f.write( str(ee) + "\n" )
f.write( MOL.save_string_xyz() )
f.close()
--------------------------------------------------------------------------

    Molecular point group: c1
  Charge       = 0
  Multiplicity = 1
  Basis Set: CC-PVTZ
  Basis Set:
  @DF-RHF Final Energy:  -340.86988817087274
    Total Energy =                       -340.8698881708726276
    Molecular point group: c1
  Basis Set: CC-PVTZ
  Basis Set:
  Basis Set: CC-PVTZ
  Basis Set:
  @DF-RHF Final Energy:  -340.87031311622604
    Total Energy =                       -340.8703131162263844
  Basis Set: CC-PVTZ
  Basis Set:
  Basis Set: CC-PVTZ
  Basis Set:
  @DF-RHF Final Energy:  -340.87053575160667
    Total Energy =                       -340.8705357516065533
  Basis Set: CC-PVTZ
  Basis Set:
  Basis Set: CC-PVTZ
  Basis Set:
  @DF-RHF Final Energy:  -340.87055339129807
    Total Energy =                       -340.8705533912981878
  Basis Set: CC-PVTZ
  Basis Set:
  Basis Set: CC-PVTZ
  Basis Set:
  @DF-RHF Final Energy:  -340.87056175586849
    Total Energy =                       -340.8705617558685503
  Basis Set: CC-PVTZ
  Basis Set:
  Basis Set: CC-PVTZ
  Basis Set:
  @DF-RHF Final Energy:  -340.87056424401163
    Total Energy =                       -340.8705642440115184
  Basis Set: CC-PVTZ
  Basis Set:
  Charge       = 0
  Multiplicity = 1
  Basis Set: CC-PVTZ
  Basis Set:

    Orbital Energies (a.u.)
    -----------------------

    Doubly Occupied:

       1A    -15.580319     2A    -15.575476     3A    -11.279276
       4A    -11.270716     5A    -11.269105     6A    -11.266690
       7A    -11.231496     8A    -11.221663     9A     -1.315482
      10A     -1.223420    11A     -1.086546    12A     -1.016575
      13A     -0.906805    14A     -0.896128    15A     -0.831790
      16A     -0.716807    17A     -0.713845    18A     -0.656830
      19A     -0.618636    20A     -0.608131    21A     -0.580807
      22A     -0.565541    23A     -0.524118    24A     -0.511939
      25A     -0.505642    26A     -0.483227    27A     -0.433813
      28A     -0.397550    29A     -0.346376

  @DF-RHF Final Energy:  -340.87056479583839

   => Energetics <=

    Nuclear Repulsion Energy =            350.0384994334049225
    One-Electron Energy =               -1154.5486357500603845
    Two-Electron Energy =                 463.6395715208169577
    DFT Exchange-Correlation Energy =       0.0000000000000000
    Empirical Dispersion Energy =           0.0000000000000000
    PCM Polarization Energy =               0.0000000000000000
    EFP Energy =                            0.0000000000000000
    Total Energy =                       -340.8705647958385043
    Molecular point group: c1
  Basis Set: CC-PVTZ
  Basis Set:

  -Total Gradient:
     Atom            X                  Y                   Z
    ------   -----------------  -----------------  -----------------
       1        0.000003815906     0.000002010883    -0.000005899455
       2        0.000029087108     0.000002970348     0.000039695479
       3        0.000203847271    -0.000081444723     0.001024243780
       4        0.000008749780     0.000017395371    -0.000010056822
       5       -0.000258841910    -0.000167907845    -0.001437722871
       6       -0.000001232061     0.000001790027    -0.000003965770
       7        0.000002767233    -0.000000418306     0.000000183867
       8       -0.000011824732     0.000001155461     0.000006961436
       9       -0.000123250365     0.001433697656     0.000048185284
      10        0.000000494336     0.000002451080    -0.000004123382
      11       -0.000025345897    -0.000065937688     0.000031089856
      12        0.000180934929    -0.001167041761     0.000321880511
      13        0.000003914111    -0.000001120513    -0.000001188709
      14       -0.000010511945    -0.000006093194    -0.000002751685
      15       -0.000003942339     0.000010809713     0.000007822978
      16        0.000001338577     0.000017683489    -0.000014354496

  **** Optimization is complete! (in 7 steps) ****
    Final optimized geometry and variables:
    Molecular point group: c1

    Geometry (in Angstrom), charge = 0, multiplicity = 1:

    H           -1.658415875482    -2.435611445836     0.279591744460
    C           -1.263743301852    -1.437287841682     0.284301934378
    N            0.024128502087    -1.296069170125     0.036936161476
    C           -2.075305410578    -0.356446141426     0.540311618251
    C            0.519110874518    -0.078474786473     0.036819745703
    H           -3.122019876125    -0.480728246785     0.740754928358
    N           -1.591259727120     0.870730854880     0.551450961208
    C           -0.313534117270     1.008190961313     0.303839127633
    C            1.996688163067     0.087028572501    -0.222661572630
    H            0.078910089976     2.007150669077     0.318880935812
    C            2.338716404106     1.061741674125    -1.349418502873
    H            2.480848164831     0.403220730848     0.696732521691
    H            2.387395767849    -0.893639410831    -0.454694741749
    H            3.410764896923     1.095664398896    -1.500602715798
    H            2.007094580609     2.069489168600    -1.131230966263
    H            1.878486708152     0.753755169813    -2.280899492221

  Mulliken Charges: (a.u.)
   Center  Symbol    Alpha    Beta     Spin     Total
       1     H     0.41382  0.41382  0.00000  0.17237
       2     C     3.04074  3.04074  0.00000 -0.08148
       3     N     3.58961  3.58961  0.00000 -0.17923
       4     C     3.04825  3.04825  0.00000 -0.09650
       5     C     2.94981  2.94981  0.00000  0.10038
       6     H     0.41354  0.41354  0.00000  0.17292
       7     N     3.58760  3.58760  0.00000 -0.17520
       8     C     3.07547  3.07547  0.00000 -0.15094
       9     C     3.08228  3.08228  0.00000 -0.16456
      10     H     0.41467  0.41467  0.00000  0.17067
      11     C     3.14697  3.14697  0.00000 -0.29393
      12     H     0.44660  0.44660  0.00000  0.10680
      13     H     0.44029  0.44029  0.00000  0.11943
      14     H     0.44674  0.44674  0.00000  0.10652
      15     H     0.45500  0.45500  0.00000  0.09001
      16     H     0.44863  0.44863  0.00000  0.10275

   Total alpha = 29.00000, Total beta = 29.00000, Total charge =  0.00000

*** Psi4 exiting successfully. Buy a developer a beer!
