  ==> Input File <==

--------------------------------------------------------------------------
set {
	reference rhf
	basis 6-31G*
}

set_num_threads( 4 )
memory 2 gb

molecule MOL {
0 1

O	 -2.821601	 1.309235	 -0.001213
C	 -2.668563	 0.129746	 -0.000350
C	 -3.801572	 -0.864014	 -0.000442
O	 -1.481751	 -0.454642	 0.000584
H	 -4.417280	 -0.689587	 -0.874708
H	 -3.443784	 -1.883046	 -0.000565
H	 -4.417179	 -0.689832	 0.873954
C	 -0.334255	 0.388708	 0.000906
C	 0.891947	 -0.504646	 0.000751
H	 -0.365390	 1.025305	 -0.873475
H	 -0.365484	 1.024911	 0.875569
C	 2.191998	 0.301789	 0.000897
H	 0.855148	 -1.151283	 -0.871571
H	 0.855132	 -1.151660	 0.872805
C	 3.441114	 -0.581407	 0.000108
H	 2.215074	 0.954890	 -0.869742
H	 2.215465	 0.953923	 0.872248
C	 3.843495	 -1.041979	 -1.400188
H	 3.266895	 -1.450599	 0.630369
H	 4.266623	 -0.036513	 0.452541
H	 3.050149	 -1.619359	 -1.866288
H	 4.731233	 -1.665779	 -1.368088
H	 4.057715	 -0.194690	 -2.045340

	symmetry c1
}
set optking {
	frozen_dihedral = ("
		19 15 12 16
	")
}

ee = optimize('scf')
oeprop('DIPOLE', 'QUADRUPOLE', 'MULLIKEN_CHARGES')
f=open( 'psi4out.xyz', 'w' )
f.write( "23  " )
f.write( str(ee) + "\n" )
f.write( MOL.save_string_xyz() )
f.close()
--------------------------------------------------------------------------

    Molecular point group: c1
  Charge       = 0
  Multiplicity = 1
  Basis Set: 6-31G*
  Basis Set:
  @DF-RHF Final Energy:  -422.97676955449020
    Total Energy =                       -422.9767695544895787
    Molecular point group: c1
  Basis Set: 6-31G*
  Basis Set:
  Basis Set: 6-31G*
  Basis Set:
  @DF-RHF Final Energy:  -422.97690578705294
    Total Energy =                       -422.9769057870526012
  Basis Set: 6-31G*
  Basis Set:
  Basis Set: 6-31G*
  Basis Set:
  @DF-RHF Final Energy:  -422.97695364936976
    Total Energy =                       -422.9769536493698752
  Basis Set: 6-31G*
  Basis Set:
  Basis Set: 6-31G*
  Basis Set:
  @DF-RHF Final Energy:  -422.97684108444162
    Total Energy =                       -422.9768410844413893
  Basis Set: 6-31G*
  Basis Set:
  Basis Set: 6-31G*
  Basis Set:
  @DF-RHF Final Energy:  -422.97696068298274
    Total Energy =                       -422.9769606829819395
  Basis Set: 6-31G*
  Basis Set:
  Charge       = 0
  Multiplicity = 1
  Basis Set: 6-31G*
  Basis Set:

    Orbital Energies (a.u.)
    -----------------------

    Doubly Occupied:

       1A    -20.603030     2A    -20.540560     3A    -11.374107
       4A    -11.281435     5A    -11.232413     6A    -11.224415
       7A    -11.223820     8A    -11.221865     9A    -11.213144
      10A     -1.467973    11A     -1.360763    12A     -1.093908
      13A     -1.041148    14A     -1.002212    15A     -0.930639
      16A     -0.849698    17A     -0.796700    18A     -0.772824
      19A     -0.691387    20A     -0.685279    21A     -0.669581
      22A     -0.633930    23A     -0.618728    24A     -0.597223
      25A     -0.578507    26A     -0.571546    27A     -0.546241
      28A     -0.534859    29A     -0.526429    30A     -0.506724
      31A     -0.498050    32A     -0.474141    33A     -0.466344
      34A     -0.465691    35A     -0.451244    36A     -0.435321

  @DF-RHF Final Energy:  -422.97696082500539

   => Energetics <=

    Nuclear Repulsion Energy =            453.3536660762251245
    One-Electron Energy =               -1474.2974956109369487
    Two-Electron Energy =                 597.9668687097062048
    DFT Exchange-Correlation Energy =       0.0000000000000000
    Empirical Dispersion Energy =           0.0000000000000000
    PCM Polarization Energy =               0.0000000000000000
    EFP Energy =                            0.0000000000000000
    Total Energy =                       -422.9769608250055626
    Molecular point group: c1
  Basis Set: 6-31G*
  Basis Set:

  -Total Gradient:
     Atom            X                  Y                   Z
    ------   -----------------  -----------------  -----------------
       1       -0.000000244778    -0.000005085359    -0.000022199128
       2       -0.000006322922     0.000007957574     0.000059730348
       3        0.000001784580     0.000000233712    -0.000016770337
       4        0.000013487668    -0.000002885802    -0.000023088537
       5       -0.000002068160    -0.000003207592    -0.000000944801
       6        0.000000296614    -0.000000075018    -0.000001240676
       7        0.000002931254     0.000003705687    -0.000000889456
       8        0.000000841254     0.000006246327     0.000004088217
       9        0.000026710644    -0.000022410639     0.000009451431
      10       -0.000004039761     0.000004151551     0.000000261294
      11       -0.000003467654     0.000004157252    -0.000000810233
      12        0.001401894253     0.001970176162     0.001241300261
      13        0.000003590877    -0.000006482430     0.000002083746
      14       -0.000015657552    -0.000005753213     0.000007328360
      15        0.000916196657     0.001201608182     0.002299703262
      16       -0.001309397361    -0.001842872965    -0.001435030415
      17        0.000021111667    -0.000028805855     0.000002899852
      18       -0.000034769714     0.000029001301    -0.000004865244
      19       -0.000995946938    -0.001327013163    -0.002112467809
      20       -0.000023511053     0.000018912473    -0.000009565619
      21        0.000000277254     0.000001031236    -0.000003837147
      22       -0.000005284984    -0.000003571071     0.000017416092
      23        0.000011588161     0.000000981654    -0.000012553460

  **** Optimization is complete! (in 6 steps) ****
    Final optimized geometry and variables:
    Molecular point group: c1

    Geometry (in Angstrom), charge = 0, multiplicity = 1:

    O           -2.716870839801     1.455498473081     0.130437317180
    C           -2.565208213163     0.276017606953     0.151248974326
    C           -3.699432388281    -0.716316387077     0.160490822342
    O           -1.379151070971    -0.309685493657     0.168552275476
    H           -4.310095635451    -0.554957700577    -0.719795561620
    H           -3.342924612972    -1.735644329163     0.178423070261
    H           -4.319633959491    -0.527672266534     1.028618035651
    C           -0.230534500040     0.532195045840     0.161943025048
    C            0.994576588313    -0.362410787824     0.184069114414
    H           -0.255641063003     1.154400972325    -0.722935102407
    H           -0.266282639493     1.182917452473     1.025790750795
    C            2.295288893657     0.447418028757     0.191924872044
    H            0.960370118910    -1.020232155656    -0.679202547039
    H            0.949533048002    -0.997175630860     1.064599368385
    C            3.555441129091    -0.431026465903     0.158866184913
    H            2.299392956768     1.110858071338    -0.670890465247
    H            2.312499185319     1.079354367264     1.076171518867
    C            3.939002450461    -0.892389895260    -1.249147993235
    H            3.398253082950    -1.308902042586     0.781156868802
    H            4.389710925391     0.114918813355     0.589248630458
    H            3.140600624703    -1.459525451771    -1.717995359506
    H            4.818898354892    -1.527719431974    -1.223537687325
    H            4.162176483698    -0.044172004743    -1.889990809708

  Mulliken Charges: (a.u.)
   Center  Symbol    Alpha    Beta     Spin     Total
       1     O     4.28389  4.28389  0.00000 -0.56778
       2     C     2.61535  2.61535  0.00000  0.76930
       3     C     3.28774  3.28774  0.00000 -0.57547
       4     O     4.31267  4.31267  0.00000 -0.62535
       5     H     0.39749  0.39749  0.00000  0.20502
       6     H     0.39989  0.39989  0.00000  0.20022
       7     H     0.39750  0.39750  0.00000  0.20501
       8     C     2.99565  2.99565  0.00000  0.00870
       9     C     3.16638  3.16638  0.00000 -0.33277
      10     H     0.41065  0.41065  0.00000  0.17870
      11     H     0.41077  0.41077  0.00000  0.17847
      12     C     3.16238  3.16238  0.00000 -0.32477
      13     H     0.41351  0.41351  0.00000  0.17298
      14     H     0.41413  0.41413  0.00000  0.17174
      15     C     3.15386  3.15386  0.00000 -0.30773
      16     H     0.42048  0.42048  0.00000  0.15903
      17     H     0.41804  0.41804  0.00000  0.16392
      18     C     3.24116  3.24116  0.00000 -0.48231
      19     H     0.42097  0.42097  0.00000  0.15807
      20     H     0.41801  0.41801  0.00000  0.16398
      21     H     0.42069  0.42069  0.00000  0.15863
      22     H     0.41809  0.41809  0.00000  0.16382
      23     H     0.42070  0.42070  0.00000  0.15859

   Total alpha = 36.00000, Total beta = 36.00000, Total charge = -0.00000
