  ==> Input File <==

--------------------------------------------------------------------------
set {
	reference rhf
	basis 6-31G*
}

set_num_threads( 4 )
memory 2 gb

molecule MOL {
0 1

O	 1.938435	 0.107149	 0.863732
C	 1.122059	 0.121804	 -0.000188
C	 -0.170150	 -0.657997	 -0.000612
O	 1.246783	 0.845885	 -1.105234
C	 -1.412532	 0.227344	 -0.000452
H	 -0.153702	 -1.313099	 -0.867402
H	 -0.153924	 -1.313811	 0.865644
C	 -2.706999	 -0.587347	 -0.000541
H	 -1.388000	 0.879466	 -0.868000
H	 -1.387972	 0.879138	 0.867341
C	 -3.956778	 0.291888	 0.000910
H	 -2.726114	 -1.239230	 -0.871609
H	 -2.725217	 -1.240844	 0.869333
H	 -3.985213	 0.933254	 -0.875158
H	 -4.860123	 -0.309979	 0.000519
H	 -3.984618	 0.931166	 0.878514
C	 2.420067	 1.628541	 -1.231703
H	 2.485517	 2.347831	 -0.428070
H	 2.336257	 2.134753	 -2.180742
H	 3.299135	 1.000389	 -1.218632

	symmetry c1
}
set optking {
	frozen_dihedral = ("
		1 2 3 6
	")
}

ee = optimize('scf')
oeprop('DIPOLE', 'QUADRUPOLE', 'MULLIKEN_CHARGES')
f=open( 'psi4out.xyz', 'w' )
f.write( "20  " )
f.write( str(ee) + "\n" )
f.write( MOL.save_string_xyz() )
f.close()
--------------------------------------------------------------------------

    Molecular point group: c1
  Charge       = 0
  Multiplicity = 1
  Basis Set: 6-31G*
  Basis Set:
  @DF-RHF Final Energy:  -383.94002078031167
    Total Energy =                       -383.9400207803117837
    Molecular point group: c1
  Basis Set: 6-31G*
  Basis Set:
  Basis Set: 6-31G*
  Basis Set:
  @DF-RHF Final Energy:  -383.94027748137887
    Total Energy =                       -383.9402774813792121
  Basis Set: 6-31G*
  Basis Set:
  Basis Set: 6-31G*
  Basis Set:
  @DF-RHF Final Energy:  -383.94021449475406
    Total Energy =                       -383.9402144947545139
  Basis Set: 6-31G*
  Basis Set:
  Basis Set: 6-31G*
  Basis Set:
  @DF-RHF Final Energy:  -383.94032302255141
    Total Energy =                       -383.9403230225510697
  Basis Set: 6-31G*
  Basis Set:
  Charge       = 0
  Multiplicity = 1
  Basis Set: 6-31G*
  Basis Set:

    Orbital Energies (a.u.)
    -----------------------

    Doubly Occupied:

       1A    -20.604245     2A    -20.543810     3A    -11.371064
       4A    -11.280913     5A    -11.234365     6A    -11.228478
       7A    -11.224041     8A    -11.214320     9A     -1.468825
      10A     -1.361412    11A     -1.092697    12A     -1.025107
      13A     -0.966585    14A     -0.891216    15A     -0.807188
      16A     -0.773987    17A     -0.693513    18A     -0.680362
      19A     -0.673226    20A     -0.647423    21A     -0.596578
      22A     -0.591996    23A     -0.576792    24A     -0.550693
      25A     -0.532827    26A     -0.521182    27A     -0.510150
      28A     -0.485819    29A     -0.481116    30A     -0.474767
      31A     -0.454430    32A     -0.428929

  @DF-RHF Final Energy:  -383.94032242881360

   => Energetics <=

    Nuclear Repulsion Energy =            383.4889587114413416
    One-Electron Energy =               -1282.8824508422360395
    Two-Electron Energy =                 515.4531697019810963
    DFT Exchange-Correlation Energy =       0.0000000000000000
    Empirical Dispersion Energy =           0.0000000000000000
    PCM Polarization Energy =               0.0000000000000000
    EFP Energy =                            0.0000000000000000
    Total Energy =                       -383.9403224288136016
    Molecular point group: c1
  Basis Set: 6-31G*
  Basis Set:

  -Total Gradient:
     Atom            X                  Y                   Z
    ------   -----------------  -----------------  -----------------
       1        0.000084984694    -0.000155990931    -0.000064790987
       2        0.000044929004     0.000055838312     0.000138671666
       3       -0.000132017886     0.000198729289    -0.000240741695
       4       -0.000081760208     0.000099052583    -0.000027182339
       5       -0.000021478118     0.000127492795     0.000061454242
       6        0.000144501617    -0.000168220928     0.000240195914
       7       -0.000011129683    -0.000019772037    -0.000034957292
       8       -0.000009899574    -0.000050190390    -0.000079466399
       9        0.000058126114    -0.000047392871     0.000019175570
      10        0.000001610533     0.000049283409    -0.000088555543
      11        0.000020673703    -0.000009421182     0.000072746487
      12       -0.000070199966    -0.000008794071    -0.000032813735
      13       -0.000003429302    -0.000042933100    -0.000025947432
      14        0.000011276914    -0.000027036133     0.000007649589
      15       -0.000010424888    -0.000003378425     0.000025467616
      16       -0.000001327304     0.000024118145    -0.000007391213
      17       -0.000051201369    -0.000014322857     0.000050859761
      18        0.000016797131     0.000004750437    -0.000009941628
      19        0.000002121584    -0.000004182098    -0.000003091376
      20        0.000007847000    -0.000007629949    -0.000001341204

  **** Optimization is complete! (in 5 steps) ****
    Final optimized geometry and variables:
    Molecular point group: c1

    Geometry (in Angstrom), charge = 0, multiplicity = 1:

    O            2.100619465649    -0.187327210102     1.047565386543
    C            1.283468382250    -0.154469758578     0.184488968072
    C           -0.006074704001    -0.937281962928     0.183509327939
    O            1.412271637692     0.590142955104    -0.906940158337
    C           -1.251810540177    -0.041592275457     0.163559006963
    H           -0.004427778372    -1.583023949791    -0.689873894965
    H            0.003105485101    -1.564476012678     1.065465587922
    C           -2.547768528711    -0.852890767984     0.207177799287
    H           -1.235828232653     0.576524386177    -0.727876002443
    H           -1.220918218781     0.634455956030     1.015166045251
    C           -3.795776244170     0.028777872054     0.207834405645
    H           -2.580502754480    -1.525228164378    -0.647486171047
    H           -2.550189165356    -1.483347603544     1.093361956391
    H           -3.840242535753     0.645857027334    -0.684907352417
    H           -4.699302906470    -0.571714445230     0.240599301150
    H           -3.807276795733     0.691228826772     1.068533443454
    C            2.586008585276     1.374869097064    -1.014163797200
    H            2.649780886232     2.076994642690    -0.195424130214
    H            2.504936579187     1.900736169606    -1.952723166297
    H            3.464460001174     0.745788055794    -1.011826415019

  Mulliken Charges: (a.u.)
   Center  Symbol    Alpha    Beta     Spin     Total
       1     O     4.28542  4.28542  0.00000 -0.57084
       2     C     2.61450  2.61450  0.00000  0.77100
       3     C     3.19755  3.19755  0.00000 -0.39510
       4     O     4.30261  4.30261  0.00000 -0.60523
       5     C     3.16268  3.16268  0.00000 -0.32537
       6     H     0.40430  0.40430  0.00000  0.19140
       7     H     0.39870  0.39870  0.00000  0.20259
       8     C     3.15329  3.15329  0.00000 -0.30658
       9     H     0.40804  0.40804  0.00000  0.18392
      10     H     0.41525  0.41525  0.00000  0.16950
      11     C     3.24007  3.24007  0.00000 -0.48015
      12     H     0.42102  0.42102  0.00000  0.15796
      13     H     0.42003  0.42003  0.00000  0.15994
      14     H     0.42032  0.42032  0.00000  0.15937
      15     H     0.41744  0.41744  0.00000  0.16512
      16     H     0.42000  0.42000  0.00000  0.16000
      17     C     3.09226  3.09226  0.00000 -0.18452
      18     H     0.40891  0.40891  0.00000  0.18217
      19     H     0.40888  0.40888  0.00000  0.18225
      20     H     0.40872  0.40872  0.00000  0.18257

   Total alpha = 32.00000, Total beta = 32.00000, Total charge =  0.00000
