  ==> Input File <==

--------------------------------------------------------------------------
set {
	reference rhf
	basis cc-pvtz
}

set_num_threads( 4 )
memory 2 gb

molecule MOL {
0 1

H	 -2.362939	 -1.309000	 -0.383250
C	 -1.359344	 -1.272457	 0.020748
C	 -0.684082	 0.000127	 -0.464918
H	 -0.825835	 -2.151141	 -0.318537
H	 -1.416276	 -1.292399	 1.099455
C	 -1.359089	 1.272668	 0.021259
N	 0.742439	 -0.000109	 0.007333
H	 -0.596914	 0.000345	 -1.538146
H	 -2.362696	 1.309620	 -0.382686
H	 -0.825392	 2.151374	 -0.317674
H	 -1.415983	 1.292181	 1.099973
O	 1.471810	 0.806051	 -0.463590
O	 1.048733	 -0.806338	 0.821255

	symmetry c1
}
set optking {
	frozen_dihedral = ("
		12 7 3 8
	")
}

ee = optimize('scf')
oeprop('DIPOLE', 'QUADRUPOLE', 'MULLIKEN_CHARGES')
f=open( 'psi4out.xyz', 'w' )
f.write( "13  " )
f.write( str(ee) + "\n" )
f.write( MOL.save_string_xyz() )
f.close()
--------------------------------------------------------------------------

    Molecular point group: c1
  Charge       = 0
  Multiplicity = 1
  Basis Set: CC-PVTZ
  Basis Set:
  @DF-RHF Final Energy:  -321.86268561574269
    Total Energy =                       -321.8626856157426346
    Molecular point group: c1
  Basis Set: CC-PVTZ
  Basis Set:
  Basis Set: CC-PVTZ
  Basis Set:
  @DF-RHF Final Energy:  -321.86071122549447
    Total Energy =                       -321.8607112254946401
  Basis Set: CC-PVTZ
  Basis Set:
  Basis Set: CC-PVTZ
  Basis Set:
  @DF-RHF Final Energy:  -321.86101563075817
    Total Energy =                       -321.8610156307580610
  Basis Set: CC-PVTZ
  Basis Set:
  Basis Set: CC-PVTZ
  Basis Set:
  @DF-RHF Final Energy:  -321.86315736107446
    Total Energy =                       -321.8631573610742862
  Basis Set: CC-PVTZ
  Basis Set:
  Basis Set: CC-PVTZ
  Basis Set:
  @DF-RHF Final Energy:  -321.86348974005716
    Total Energy =                       -321.8634897400573891
  Basis Set: CC-PVTZ
  Basis Set:
  Basis Set: CC-PVTZ
  Basis Set:
  @DF-RHF Final Energy:  -321.86350871080737
    Total Energy =                       -321.8635087108074231
  Basis Set: CC-PVTZ
  Basis Set:
  Charge       = 0
  Multiplicity = 1
  Basis Set: CC-PVTZ
  Basis Set:

    Orbital Energies (a.u.)
    -----------------------

    Doubly Occupied:

       1A    -20.591477     2A    -20.585823     3A    -15.833316
       4A    -11.305634     5A    -11.243702     6A    -11.237705
       7A     -1.634253     8A     -1.418293     9A     -1.141249
      10A     -0.970756    11A     -0.957709    12A     -0.815571
      13A     -0.760024    14A     -0.730601    15A     -0.725074
      16A     -0.645022    17A     -0.593149    18A     -0.587913
      19A     -0.570856    20A     -0.526807    21A     -0.521637
      22A     -0.484702    23A     -0.472004    24A     -0.451410

  @DF-RHF Final Energy:  -321.86350993475605

   => Energetics <=

    Nuclear Repulsion Energy =            257.3846420235644246
    One-Electron Energy =                -948.8869303937681252
    Two-Electron Energy =                 369.6387784354478754
    DFT Exchange-Correlation Energy =       0.0000000000000000
    Empirical Dispersion Energy =           0.0000000000000000
    PCM Polarization Energy =               0.0000000000000000
    EFP Energy =                            0.0000000000000000
    Total Energy =                       -321.8635099347558253
    Molecular point group: c1
  Basis Set: CC-PVTZ
  Basis Set:

  -Total Gradient:
     Atom            X                  Y                   Z
    ------   -----------------  -----------------  -----------------
       1        0.000000106962     0.000004047661    -0.000004183515
       2        0.000013198857     0.000028736985     0.000002578756
       3       -0.000148682053     0.001825828430     0.000351656888
       4        0.000006038779    -0.000011290508    -0.000003379040
       5        0.000001814809     0.000006901846    -0.000009583252
       6       -0.000030283226     0.000007151504     0.000023508558
       7        0.000401262653    -0.001325760027    -0.001345802084
       8        0.000023278903    -0.001314414492    -0.000012784317
       9        0.000004913437     0.000003893731    -0.000005135358
      10       -0.000010264488    -0.000007299735    -0.000016714527
      11       -0.000001599374    -0.000002497665    -0.000000462595
      12       -0.000320193340     0.000778694337     0.000995791203
      13        0.000060408077     0.000006007928     0.000024509285

  **** Optimization is complete! (in 7 steps) ****
    Final optimized geometry and variables:
    Molecular point group: c1

    Geometry (in Angstrom), charge = 0, multiplicity = 1:

    H           -2.378730523114    -1.301091120799    -0.428951138127
    C           -1.387126194839    -1.289335794177     0.006731496059
    C           -0.683872618410    -0.028890920605    -0.455143870084
    H           -0.861399691009    -2.176927337237    -0.314193043761
    H           -1.481054813975    -1.318674423748     1.082579308753
    C           -1.354145312692     1.253596647018     0.019756179863
    N            0.749208690643     0.000607882447     0.012244535428
    H           -0.589573474465    -0.022053266512    -1.530690413651
    H           -2.371225540280     1.273651383219    -0.348937624295
    H           -0.833540534384     2.124277706551    -0.348442617634
    H           -1.384599505615     1.290430865768     1.101996366800
    O            1.440435435645     0.833865400962    -0.472722988199
    O            1.097127196472    -0.777694106488     0.833163038672

  Mulliken Charges: (a.u.)
   Center  Symbol    Alpha    Beta     Spin     Total
       1     H     0.45023  0.45023  0.00000  0.09954
       2     C     3.14273  3.14273  0.00000 -0.28547
       3     C     3.00718  3.00718  0.00000 -0.01436
       4     H     0.43847  0.43847  0.00000  0.12305
       5     H     0.44150  0.44150  0.00000  0.11700
       6     C     3.14381  3.14381  0.00000 -0.28763
       7     N     3.27467  3.27467  0.00000  0.45067
       8     H     0.42835  0.42835  0.00000  0.14330
       9     H     0.44908  0.44908  0.00000  0.10183
      10     H     0.43248  0.43248  0.00000  0.13504
      11     H     0.44535  0.44535  0.00000  0.10930
      12     O     4.17616  4.17616  0.00000 -0.35232
      13     O     4.16999  4.16999  0.00000 -0.33997

   Total alpha = 24.00000, Total beta = 24.00000, Total charge =  0.00000
