                              Psi4 1.0.54 Driver

  ==> Input File <==

--------------------------------------------------------------------------
set {
	reference rhf
	basis cc-pvtz
}

set_num_threads( 4 )
memory 2 gb

molecule MOL {
0 1

H	 2.614283	 2.028610	 0.296620
O	 3.358864	 1.662087	 -0.142800
C	 3.565468	 0.338079	 0.273842
C	 2.533667	 -0.637565	 -0.272227
H	 4.548038	 0.064914	 -0.086598
H	 3.593945	 0.282242	 1.360360
C	 1.114816	 -0.402372	 0.240993
H	 2.544552	 -0.580764	 -1.356576
H	 2.850574	 -1.642962	 -0.005497
C	 1.086498	 0.245374	 1.624634
H	 0.583995	 -1.347970	 0.273800
H	 0.578522	 0.233444	 -0.461441
C	 -0.310031	 0.571882	 2.156941
H	 1.597886	 -0.402416	 2.332503
H	 1.663061	 1.165484	 1.586664
C	 -1.182730	 -0.642186	 2.470280
H	 -0.200213	 1.161282	 3.063073
H	 -0.825466	 1.210592	 1.443127
C	 -2.526344	 -0.267834	 3.090742
H	 -0.647132	 -1.302212	 3.149227
H	 -1.362545	 -1.216415	 1.566438
C	 -3.401707	 -1.477434	 3.401385
H	 -2.355228	 0.296305	 4.003454
H	 -3.059097	 0.398374	 2.417389
H	 -2.909728	 -2.147923	 4.098263
H	 -4.345240	 -1.176952	 3.842478
H	 -3.622765	 -2.042468	 2.501817

	symmetry c1
}
set optking {
	frozen_dihedral = ("
		10 7 4 8
	")
}

ee,wfn = optimize('scf', return_wfn=True)
oeprop( wfn, 'DIPOLE', 'QUADRUPOLE', 'MULLIKEN_CHARGES')
f=open( 'psi4out.xyz', 'w' )
f.write( "27  " )
f.write( str(ee) + "\n" )
f.write( MOL.save_string_xyz() )
f.close()
--------------------------------------------------------------------------

    Molecular point group: c1
  Charge       = 0
  Multiplicity = 1
  Basis Set: CC-PVTZ
  Basis Set:
  @DF-RHF Final Energy:  -388.41726554720350
    Total Energy =                       -388.4172655472042379
    Molecular point group: c1
  Basis Set: CC-PVTZ
  Basis Set:
  Basis Set: CC-PVTZ
  Basis Set:
  @DF-RHF Final Energy:  -388.35419378277453
    Total Energy =                       -388.3541937827744732
  Basis Set: CC-PVTZ
  Basis Set:
  Basis Set: CC-PVTZ
  Basis Set:
  @DF-RHF Final Energy:  -388.41537414809738
    Total Energy =                       -388.4153741480967028
  Basis Set: CC-PVTZ
  Basis Set:
  Basis Set: CC-PVTZ
  Basis Set:
  @DF-RHF Final Energy:  -388.42084921780594
    Total Energy =                       -388.4208492178063352
  Basis Set: CC-PVTZ
  Basis Set:
  Basis Set: CC-PVTZ
  Basis Set:
  @DF-RHF Final Energy:  -388.42112411793647
    Total Energy =                       -388.4211241179363014
  Basis Set: CC-PVTZ
  Basis Set:
  Basis Set: CC-PVTZ
  Basis Set:
  @DF-RHF Final Energy:  -388.42115698101054
    Total Energy =                       -388.4211569810103128
  Basis Set: CC-PVTZ
  Basis Set:
  Charge       = 0
  Multiplicity = 1
  Basis Set: CC-PVTZ
  Basis Set:

    Orbital Energies (a.u.)
    -----------------------

    Doubly Occupied:

       1A    -20.544268     2A    -11.263024     3A    -11.220315
       4A    -11.217533     5A    -11.216438     6A    -11.215228
       7A    -11.214238     8A    -11.213656     9A    -11.208290
      10A     -1.361804    11A     -1.097408    12A     -1.061381
      13A     -1.012576    14A     -0.948846    15A     -0.894707
      16A     -0.829813    17A     -0.799528    18A     -0.774393
      19A     -0.691505    20A     -0.652846    21A     -0.646195
      22A     -0.612537    23A     -0.602938    24A     -0.583350
      25A     -0.572378    26A     -0.567993    27A     -0.543982
      28A     -0.528160    29A     -0.520132    30A     -0.497351
      31A     -0.483076    32A     -0.472194    33A     -0.465424
      34A     -0.461616    35A     -0.456408    36A     -0.442117
      37A     -0.425066

  @DF-RHF Final Energy:  -388.42115710279757

   => Energetics <=

    Nuclear Repulsion Energy =            465.0461793628444411
    One-Electron Energy =               -1448.2972515583410313
    Two-Electron Energy =                 594.8299150926991388
    DFT Exchange-Correlation Energy =       0.0000000000000000
    Empirical Dispersion Energy =           0.0000000000000000
    PCM Polarization Energy =               0.0000000000000000
    EFP Energy =                            0.0000000000000000
    Total Energy =                       -388.4211571027974514
    Molecular point group: c1
  Basis Set: CC-PVTZ
  Basis Set:

  -Total Gradient:
     Atom            X                  Y                   Z
    ------   -----------------  -----------------  -----------------
       1       -0.000133892724     0.000074097582     0.000104307324
       2        0.000064823607     0.000103583519    -0.000267706371
       3        0.000103473997     0.000017207370     0.000251128133
       4       -0.000447105873    -0.006502627280    -0.000466151425
       5        0.000020647391     0.000064704219    -0.000038068830
       6        0.000000990107    -0.000038196617    -0.000084614894
       7        0.002063765851    -0.004546699114     0.003882049497
       8       -0.000195644341     0.006931152493    -0.000605406011
       9        0.000018851596    -0.000180290575    -0.000002343513
      10       -0.001419877011     0.003927217405    -0.002590439474
      11       -0.000010185104    -0.000005831292    -0.000065336746
      12       -0.000103825564    -0.000026665364    -0.000072053994
      13        0.000097461657     0.000120520264    -0.000049417095
      14       -0.000007802167    -0.000074672583     0.000100496713
      15        0.000081255923     0.000182931470    -0.000103845319
      16       -0.000045875861    -0.000041672790     0.000004008756
      17        0.000007011603    -0.000020753347    -0.000074872450
      18       -0.000105266468     0.000023323150    -0.000060831902
      19        0.000071453906     0.000031472633     0.000037860475
      20        0.000080460449    -0.000048677735     0.000065876755
      21       -0.000019405760     0.000049342306     0.000083243301
      22       -0.000147227818    -0.000034087205    -0.000136904617
      23       -0.000003379200    -0.000040155187    -0.000028059788
      24       -0.000092256482     0.000031615974    -0.000050925934
      25        0.000066314014    -0.000047535081     0.000088141396
      26        0.000001649453     0.000021143364     0.000064889253
      27        0.000053584824     0.000029552422     0.000014976759

  **** Optimization is complete! (in 7 steps) ****
    Final optimized geometry and variables:
    Molecular point group: c1

    Geometry (in Angstrom), charge = 0, multiplicity = 1:

    H            1.396246947985     2.372498911099    -1.922958407254
    O            2.178164548187     2.101877666117    -2.367029612671
    C            2.736547365978     0.977344317180    -1.737013642154
    C            1.876788952517    -0.274218855897    -1.875619036078
    H            3.681351213156     0.806590727435    -2.235276755069
    H            2.960640491091     1.193702999206    -0.697301064459
    C            0.517610843638    -0.266320165358    -1.145124311502
    H            1.694017082491    -0.371824352204    -2.940085122103
    H            2.469356521369    -1.123888089562    -1.550853333404
    C            0.444902516612     0.528590804639     0.160717857705
    H            0.224504086792    -1.293579065225    -0.968436794945
    H           -0.234497727274     0.140377466070    -1.816529421370
    C           -0.928863068756     0.495956937086     0.835999822566
    H            1.192790343916     0.164892013474     0.861915156729
    H            0.696928366228     1.567364639305    -0.026759460143
    C           -1.324283002593    -0.852750817674     1.434964561632
    H           -0.936636831553     1.238868451559     1.628526484391
    H           -1.687200259657     0.809125581014     0.121761234207
    C           -2.661571498527    -0.809352449056     2.170038432389
    H           -0.548257464338    -1.178242810801     2.124535284892
    H           -1.377118095283    -1.607739644507     0.657088825210
    C           -3.060255205411    -2.153864565834     2.769423194553
    H           -2.613646924784    -0.063906158103     2.958976342195
    H           -3.436883521247    -0.477094654158     1.484738688605
    H           -2.320345215481    -2.498441102600     3.484566676564
    H           -4.011417691334    -2.087609178589     3.285084564986
    H           -3.152935655264    -2.913424610613     2.000334911330

  Mulliken Charges: (a.u.)
   Center  Symbol    Alpha    Beta     Spin     Total
       1     H     0.39184  0.39184  0.00000  0.21632
       2     O     4.20899  4.20899  0.00000 -0.41798
       3     C     2.98444  2.98444  0.00000  0.03111
       4     C     3.09635  3.09635  0.00000 -0.19271
       5     H     0.44339  0.44339  0.00000  0.11321
       6     H     0.46646  0.46646  0.00000  0.06708
       7     C     3.11161  3.11161  0.00000 -0.22323
       8     H     0.44779  0.44779  0.00000  0.10442
       9     H     0.45287  0.45287  0.00000  0.09425
      10     C     3.10938  3.10938  0.00000 -0.21876
      11     H     0.44382  0.44382  0.00000  0.11236
      12     H     0.44868  0.44868  0.00000  0.10265
      13     C     3.09781  3.09781  0.00000 -0.19563
      14     H     0.44954  0.44954  0.00000  0.10092
      15     H     0.44965  0.44965  0.00000  0.10070
      16     C     3.08722  3.08722  0.00000 -0.17445
      17     H     0.44756  0.44756  0.00000  0.10487
      18     H     0.45331  0.45331  0.00000  0.09338
      19     C     3.08468  3.08468  0.00000 -0.16937
      20     H     0.45504  0.45504  0.00000  0.08993
      21     H     0.45323  0.45323  0.00000  0.09355
      22     C     3.14967  3.14967  0.00000 -0.29935
      23     H     0.45389  0.45389  0.00000  0.09222
      24     H     0.45421  0.45421  0.00000  0.09158
      25     H     0.45520  0.45520  0.00000  0.08960
      26     H     0.44810  0.44810  0.00000  0.10381
      27     H     0.45525  0.45525  0.00000  0.08949

   Total alpha = 37.00000, Total beta = 37.00000, Total charge = -0.00000

*** Psi4 exiting successfully. Buy a developer a beer!
