  ==> Input File <==

--------------------------------------------------------------------------
set {
	reference rhf
	basis 6-31G*
}

set_num_threads( 1 )
memory 2 gb

molecule MOL {
0 1

H	 0.933250	 2.161082	 -1.195887
O	 1.228383	 1.902367	 -0.333440
C	 0.709265	 0.639550	 -0.033818
C	 -0.793441	 0.596080	 0.058728
H	 1.141164	 0.353203	 0.918375
H	 1.043747	 -0.099000	 -0.761616
C	 -1.530462	 -0.493172	 -0.025500
H	 -1.268471	 1.554324	 0.202247
H	 -1.092586	 -1.461565	 -0.186463
H	 -2.602122	 -0.450675	 0.050101

	symmetry c1
}
set optking {
	frozen_dihedral = ("
		5 3 2 1,
		3 4 7 9
	")
}

ee = energy('scf')
oeprop('DIPOLE', 'QUADRUPOLE', 'MULLIKEN_CHARGES')
f=open( 'psi4out.xyz', 'w' )
f.write( "10  " )
f.write( str(ee) + "\n" )
f.write( MOL.save_string_xyz() )
f.close()
--------------------------------------------------------------------------

    Molecular point group: c1

    Geometry (in Angstrom), charge = 0, multiplicity = 1:

       Center              X                  Y                   Z               Mass
    ------------   -----------------  -----------------  -----------------  -----------------
           H          0.960596297798     1.447611441247    -1.086977973577     1.007825032070
           O          1.255729297798     1.188896441247    -0.224530973577    15.994914619560
           C          0.736611297798    -0.073920558753     0.075091026423    12.000000000000
           C         -0.766094702202    -0.117390558753     0.167637026423    12.000000000000
           H          1.168510297798    -0.360267558753     1.027284026423     1.007825032070
           H          1.071093297798    -0.812470558753    -0.652706973577     1.007825032070
           C         -1.503115702202    -1.206642558753     0.083409026423    12.000000000000
           H         -1.241124702202     0.840853441247     0.311156026423     1.007825032070
           H         -1.065239702202    -2.175035558753    -0.077553973577     1.007825032070
           H         -2.574775702202    -1.164145558753     0.159010026423     1.007825032070

  Charge       = 0
  Multiplicity = 1
  Basis Set: 6-31G*
  Basis Set:

    Orbital Energies (a.u.)
    -----------------------

    Doubly Occupied:

       1A    -20.561463     2A    -11.276815     3A    -11.231185
       4A    -11.222784     5A     -1.369820     6A     -1.062867
       7A     -0.920678     8A     -0.776510     9A     -0.702766
      10A     -0.626006    11A     -0.622927    12A     -0.595680
      13A     -0.525735    14A     -0.498443    15A     -0.446868
      16A     -0.365442

  @DF-RHF Final Energy:  -191.91455348094775

   => Energetics <=

    Nuclear Repulsion Energy =            117.0053749561417931
    One-Electron Energy =                -492.2278801120424987
    Two-Electron Energy =                 183.3079516749530171
    DFT Exchange-Correlation Energy =       0.0000000000000000
    Empirical Dispersion Energy =           0.0000000000000000
    PCM Polarization Energy =               0.0000000000000000
    EFP Energy =                            0.0000000000000000
    Total Energy =                       -191.9145534809476885

  Mulliken Charges: (a.u.)
   Center  Symbol    Alpha    Beta     Spin     Total
       1     H     0.28129  0.28129  0.00000  0.43741
       2     O     4.36862  4.36862  0.00000 -0.73724
       3     C     3.00298  3.00298  0.00000 -0.00595
       4     C     3.09343  3.09343  0.00000 -0.18686
       5     H     0.40638  0.40638  0.00000  0.18724
       6     H     0.42362  0.42362  0.00000  0.15276
       7     C     3.19827  3.19827  0.00000 -0.39653
       8     H     0.40358  0.40358  0.00000  0.19284
       9     H     0.41335  0.41335  0.00000  0.17330
      10     H     0.40849  0.40849  0.00000  0.18303

   Total alpha = 16.00000, Total beta = 16.00000, Total charge = -0.00000
