                              Psi4 1.0.54 Driver

  ==> Input File <==

--------------------------------------------------------------------------
set {
	reference rhf
	basis cc-pvtz
}

set_num_threads( 4 )
memory 2 gb

molecule MOL {
0 1

H	 2.646708	 0.758099	 0.000000
O	 2.258158	 -0.097743	 0.000000
C	 0.911162	 -0.015915	 0.000000
C	 0.207375	 -1.038820	 -0.614126
C	 0.233459	 1.037919	 0.583586
H	 0.749677	 -1.848248	 -1.061604
C	 -1.169862	 -0.997681	 -0.638633
H	 0.779509	 1.831831	 1.060225
C	 -1.149520	 1.066074	 0.551395
H	 -1.710026	 -1.793154	 -1.115965
C	 -1.860198	 0.052988	 -0.057313
H	 -1.667976	 1.888218	 1.007037
H	 -2.931988	 0.078071	 -0.080380

	symmetry c1
}
set optking {
	frozen_dihedral = ("
		4 3 2 1
	")
}

ee,wfn = optimize('scf', return_wfn=True)
oeprop( wfn, 'DIPOLE', 'QUADRUPOLE', 'MULLIKEN_CHARGES')
f=open( 'psi4out.xyz', 'w' )
f.write( "13  " )
f.write( str(ee) + "\n" )
f.write( MOL.save_string_xyz() )
f.close()
--------------------------------------------------------------------------

    Molecular point group: c1
  Charge       = 0
  Multiplicity = 1
  Basis Set: CC-PVTZ
  Basis Set:
  @DF-RHF Final Energy:  -305.66930356008822
    Total Energy =                       -305.6693035600881103
    Molecular point group: c1
  Basis Set: CC-PVTZ
  Basis Set:
  Basis Set: CC-PVTZ
  Basis Set:
  @DF-RHF Final Energy:  -305.66934995843764
    Total Energy =                       -305.6693499584379197
  Basis Set: CC-PVTZ
  Basis Set:
  Basis Set: CC-PVTZ
  Basis Set:
  @DF-RHF Final Energy:  -305.66935824164170
    Total Energy =                       -305.6693582416417598
  Basis Set: CC-PVTZ
  Basis Set:
  Charge       = 0
  Multiplicity = 1
  Basis Set: CC-PVTZ
  Basis Set:

    Orbital Energies (a.u.)
    -----------------------

    Doubly Occupied:

       1A    -20.581300     2A    -11.295435     3A    -11.234956
       4A    -11.233337     5A    -11.226239     6A    -11.221431
       7A    -11.221033     8A     -1.411039     9A     -1.152862
      10A     -1.022699    11A     -1.008399    12A     -0.848464
      13A     -0.827010    14A     -0.740932    15A     -0.687487
      16A     -0.653844    17A     -0.618924    18A     -0.598886
      19A     -0.591835    20A     -0.553281    21A     -0.517464
      22A     -0.494944    23A     -0.482272    24A     -0.342904
      25A     -0.318110

  @DF-RHF Final Energy:  -305.66935909016610

   => Energetics <=

    Nuclear Repulsion Energy =            273.7083346505249324
    One-Electron Energy =                -956.9852132101548250
    Two-Electron Energy =                 377.6075194694635115
    DFT Exchange-Correlation Energy =       0.0000000000000000
    Empirical Dispersion Energy =           0.0000000000000000
    PCM Polarization Energy =               0.0000000000000000
    EFP Energy =                            0.0000000000000000
    Total Energy =                       -305.6693590901664379
    Molecular point group: c1
  Basis Set: CC-PVTZ
  Basis Set:

  -Total Gradient:
     Atom            X                  Y                   Z
    ------   -----------------  -----------------  -----------------
       1       -0.000003142857     0.000013284921    -0.002426613766
       2        0.000080867921     0.000351362261     0.002297550665
       3       -0.000203249485    -0.001141281427     0.001657651509
       4       -0.000037986153     0.000851845994    -0.001510071655
       5        0.000122921779    -0.000091833062    -0.000005307289
       6        0.000021491842    -0.000006074991    -0.000017401579
       7        0.000144249693    -0.000107437112    -0.000027738054
       8       -0.000005524657    -0.000000949459     0.000000360570
       9       -0.000169662642    -0.000059086806    -0.000039728498
      10        0.000006264287     0.000010160133     0.000007114020
      11        0.000038871549     0.000181647649     0.000066628292
      12        0.000011601287     0.000010677178    -0.000008987611
      13       -0.000006702565    -0.000012315278     0.000006543396

  **** Optimization is complete! (in 4 steps) ****
    Final optimized geometry and variables:
    Molecular point group: c1

    Geometry (in Angstrom), charge = 0, multiplicity = 1:

    H            2.649105585781     0.742875588224     0.057970868578
    O            2.260372153464    -0.112996540168     0.048672544508
    C            0.908940180672    -0.027400656012     0.027475731385
    C            0.206013872948    -1.041115651316    -0.598871363423
    C            0.232806910795     1.027307976902     0.611982383101
    H            0.748169761014    -1.847000679296    -1.053020382310
    C           -1.172614080706    -0.999297582808    -0.624756604653
    H            0.781980457604     1.809155953064     1.103694600575
    C           -1.148904630597     1.064021943739     0.568729972640
    H           -1.713541873072    -1.790048344959    -1.108932069464
    C           -1.859942619132     0.052863003864    -0.045221976525
    H           -1.667414073897     1.886731931295     1.023257679021
    H           -2.931661445429     0.082190566452    -0.073148953968

  Mulliken Charges: (a.u.)
   Center  Symbol    Alpha    Beta     Spin     Total
       1     H     0.38597  0.38597  0.00000  0.22805
       2     O     4.18028  4.18028  0.00000 -0.36056
       3     C     2.85819  2.85819  0.00000  0.28362
       4     C     3.10966  3.10966  0.00000 -0.21931
       5     C     3.12865  3.12865  0.00000 -0.25730
       6     H     0.41826  0.41826  0.00000  0.16348
       7     C     3.05919  3.05919  0.00000 -0.11839
       8     H     0.43005  0.43005  0.00000  0.13989
       9     C     3.06599  3.06599  0.00000 -0.13197
      10     H     0.42222  0.42222  0.00000  0.15555
      11     C     3.09552  3.09552  0.00000 -0.19104
      12     H     0.42230  0.42230  0.00000  0.15540
      13     H     0.42372  0.42372  0.00000  0.15256

   Total alpha = 25.00000, Total beta = 25.00000, Total charge =  0.00000

*** Psi4 exiting successfully. Buy a developer a beer!
