  ==> Input File <==

--------------------------------------------------------------------------
set {
	reference rhf
	basis 6-31G*
}

set_num_threads( 4 )
memory 2 gb

molecule MOL {
0 1

H	 -3.407059	 -1.043082	 0.000000
O	 -3.119761	 -0.140267	 0.000000
C	 -1.777559	 -0.059267	 0.000000
C	 -0.967575	 -1.172414	 0.204525
C	 -1.213485	 1.192124	 -0.214262
H	 -1.412830	 -2.138705	 0.369869
C	 0.404029	 -1.029547	 0.193948
H	 -1.859262	 2.035409	 -0.369545
C	 0.159938	 1.318951	 -0.221996
H	 1.040997	 -1.879787	 0.350362
C	 0.984284	 0.216695	 -0.019236
H	 0.597568	 2.288481	 -0.387991
C	 2.452627	 0.367888	 -0.030250
O	 3.228285	 -0.522018	 0.134618
H	 2.810559	 1.387779	 -0.205956

	symmetry c1
}
set optking {
	frozen_dihedral = ("
		5 3 2 1
	")
}

ee = optimize('scf')
oeprop('DIPOLE', 'QUADRUPOLE', 'MULLIKEN_CHARGES')
f=open( 'psi4out.xyz', 'w' )
f.write( "15  " )
f.write( str(ee) + "\n" )
f.write( MOL.save_string_xyz() )
f.close()
--------------------------------------------------------------------------

    Molecular point group: c1
  Charge       = 0
  Multiplicity = 1
  Basis Set: 6-31G*
  Basis Set:
  @DF-RHF Final Energy:  -418.28981296070077
    Total Energy =                       -418.2898129607008286
    Molecular point group: c1
  Basis Set: 6-31G*
  Basis Set:
  Basis Set: 6-31G*
  Basis Set:
  @DF-RHF Final Energy:  -418.28981633619986
    Total Energy =                       -418.2898163361996922
  Basis Set: 6-31G*
  Basis Set:
  Charge       = 0
  Multiplicity = 1
  Basis Set: 6-31G*
  Basis Set:

    Orbital Energies (a.u.)
    -----------------------

    Doubly Occupied:

       1A    -20.610596     2A    -20.555809     3A    -11.327988
       4A    -11.323644     5A    -11.260661     6A    -11.256746
       7A    -11.244390     8A    -11.238821     9A    -11.238733
      10A     -1.431656    11A     -1.397023    12A     -1.170594
      13A     -1.041528    14A     -1.038647    15A     -0.888792
      16A     -0.867162    17A     -0.794372    18A     -0.757362
      19A     -0.713607    20A     -0.666147    21A     -0.641390
      22A     -0.628136    23A     -0.609842    24A     -0.607796
      25A     -0.580494    26A     -0.557765    27A     -0.549264
      28A     -0.506229    29A     -0.483725    30A     -0.418561
      31A     -0.357951    32A     -0.326712

  @DF-RHF Final Energy:  -418.28981715875472

   => Energetics <=

    Nuclear Repulsion Energy =            401.3544320184541334
    One-Electron Energy =               -1365.1042162323949469
    Two-Electron Energy =                 545.4599670551860982
    DFT Exchange-Correlation Energy =       0.0000000000000000
    Empirical Dispersion Energy =           0.0000000000000000
    PCM Polarization Energy =               0.0000000000000000
    EFP Energy =                            0.0000000000000000
    Total Energy =                       -418.2898171587546585
    Molecular point group: c1
  Basis Set: 6-31G*
  Basis Set:

  -Total Gradient:
     Atom            X                  Y                   Z
    ------   -----------------  -----------------  -----------------
       1        0.000000601483     0.000003228614    -0.001337489346
       2        0.000039007536    -0.000075123126     0.001237150022
       3       -0.000068921247     0.000156167723     0.001080368190
       4       -0.000054341652     0.000013418164    -0.000070915431
       5        0.000106962237    -0.000116235154    -0.000941003857
       6        0.000005105188     0.000003833761     0.000014468261
       7        0.000045446515     0.000054681384     0.000038776256
       8       -0.000008924027    -0.000002018896    -0.000009591213
       9       -0.000074836277     0.000034269404    -0.000020199375
      10       -0.000004183745    -0.000008883109    -0.000009833952
      11        0.000011859292    -0.000061787184     0.000060275028
      12        0.000003085057     0.000001676375     0.000003550744
      13       -0.000001332178    -0.000026613281    -0.000146581416
      14       -0.000002155844     0.000012270981     0.000051540329
      15        0.000002627665     0.000011114348     0.000049485761

  **** Optimization is complete! (in 3 steps) ****
    Final optimized geometry and variables:
    Molecular point group: c1

    Geometry (in Angstrom), charge = 0, multiplicity = 1:

    H           -3.406016884297    -1.044252130994    -0.003228695765
    O           -3.120036382390    -0.141075715801    -0.004597324482
    C           -1.777264204523    -0.059438393438    -0.006853405357
    C           -0.967487919315    -1.173167767919     0.195827506165
    C           -1.213290121227     1.191346663896    -0.223161285644
    H           -1.413224279137    -2.138565228807     0.364613147655
    C            0.403966337246    -1.030628304579     0.184895186767
    H           -1.858726352018     2.034318207372    -0.381925997155
    C            0.160296725526     1.318781233651    -0.227438373882
    H            1.040847140063    -1.881114856430     0.340399338001
    C            0.984245459981     0.216254680868    -0.025643360920
    H            0.597998756341     2.288163713845    -0.394015912690
    C            2.452564640599     0.367585151849    -0.036321888285
    O            3.228151842731    -0.522901080022     0.126470982578
    H            2.810889033810     1.387845220611    -0.208640275289

  Mulliken Charges: (a.u.)
   Center  Symbol    Alpha    Beta     Spin     Total
       1     H     0.26853  0.26853  0.00000  0.46294
       2     O     4.37331  4.37331  0.00000 -0.74663
       3     C     2.78559  2.78559  0.00000  0.42881
       4     C     3.14683  3.14683  0.00000 -0.29366
       5     C     3.12836  3.12836  0.00000 -0.25672
       6     H     0.39763  0.39763  0.00000  0.20473
       7     C     3.07778  3.07778  0.00000 -0.15556
       8     H     0.38647  0.38647  0.00000  0.22706
       9     C     3.09214  3.09214  0.00000 -0.18427
      10     H     0.37457  0.37457  0.00000  0.25086
      11     C     3.06908  3.06908  0.00000 -0.13817
      12     H     0.38978  0.38978  0.00000  0.22043
      13     C     2.83029  2.83029  0.00000  0.33942
      14     O     4.25489  4.25489  0.00000 -0.50978
      15     H     0.42474  0.42474  0.00000  0.15052

   Total alpha = 32.00000, Total beta = 32.00000, Total charge =  0.00000
