                              Psi4 1.0.54 Driver

  ==> Input File <==

--------------------------------------------------------------------------
set {
	reference rhf
	basis cc-pvtz
}

set_num_threads( 4 )
memory 2 gb

molecule MOL {
0 1

O	 -1.857983	 0.822423	 0.716609
C	 -1.081510	 0.147522	 0.122720
C	 0.327029	 -0.064006	 0.641890
C	 -1.446178	 -0.517274	 -1.183164
C	 1.349460	 -0.017068	 -0.500215
H	 0.399029	 -1.014606	 1.159950
H	 0.538021	 0.726928	 1.350471
C	 2.779782	 -0.209014	 -0.009215
H	 1.115007	 -0.782959	 -1.233891
H	 1.259071	 0.936707	 -1.006644
H	 3.481860	 -0.160270	 -0.833072
H	 2.903471	 -1.171535	 0.475559
H	 3.052569	 0.559584	 0.705428
H	 -0.697341	 -0.311049	 -1.939782
H	 -2.413686	 -0.175301	 -1.517051
H	 -1.470783	 -1.593015	 -1.041640

	symmetry c1
}
set optking {
	frozen_dihedral = ("
		4 2 3 5
	")
}

ee,wfn = optimize('scf', return_wfn=True)
oeprop( wfn, 'DIPOLE', 'QUADRUPOLE', 'MULLIKEN_CHARGES')
f=open( 'psi4out.xyz', 'w' )
f.write( "16  " )
f.write( str(ee) + "\n" )
f.write( MOL.save_string_xyz() )
f.close()
--------------------------------------------------------------------------

    Molecular point group: c1
  Charge       = 0
  Multiplicity = 1
  Basis Set: CC-PVTZ
  Basis Set:
  @DF-RHF Final Energy:  -270.12482870680572
    Total Energy =                       -270.1248287068056584
    Molecular point group: c1
  Basis Set: CC-PVTZ
  Basis Set:
  Basis Set: CC-PVTZ
  Basis Set:
  @DF-RHF Final Energy:  -269.94510317390223
    Total Energy =                       -269.9451031739022255
  Basis Set: CC-PVTZ
  Basis Set:
  Basis Set: CC-PVTZ
  Basis Set:
  @DF-RHF Final Energy:  -270.05986079081026
    Total Energy =                       -270.0598607908099211
  Basis Set: CC-PVTZ
  Basis Set:
  Basis Set: CC-PVTZ
  Basis Set:
  @DF-RHF Final Energy:  -270.12155275537896
    Total Energy =                       -270.1215527553788434
  Basis Set: CC-PVTZ
  Basis Set:
  @DF-RHF Final Energy:  -270.12685280021350
    Total Energy =                       -270.1268528002132143
  @DF-RHF Final Energy:  -270.12803433287536
    Total Energy =                       -270.1280343328753588
  @DF-RHF Final Energy:  -270.12823170140996
    Total Energy =                       -270.1282317014098453
  @DF-RHF Final Energy:  -270.12823774587036
    Total Energy =                       -270.1282377458705923
  @DF-RHF Final Energy:  -270.12839040115477
    Total Energy =                       -270.1283904011545474
  Basis Set: CC-PVTZ
  Basis Set:
  @DF-RHF Final Energy:  -270.12840274526025
    Total Energy =                       -270.1284027452601322
  Basis Set: CC-PVTZ
  Basis Set:
  Basis Set: CC-PVTZ
  Basis Set:
  @DF-RHF Final Energy:  -270.12841986286253
    Total Energy =                       -270.1284198628625290
  Basis Set: CC-PVTZ
  Basis Set:
  Basis Set: CC-PVTZ
  Basis Set:
  @DF-RHF Final Energy:  -270.12842391259437
    Total Energy =                       -270.1284239125944282
  Basis Set: CC-PVTZ
  Basis Set:
  Charge       = 0
  Multiplicity = 1
  Basis Set: CC-PVTZ
  Basis Set:

    Orbital Energies (a.u.)
    -----------------------

    Doubly Occupied:

       1A    -20.536862     2A    -11.320313     3A    -11.233039
       4A    -11.229567     5A    -11.226806     6A    -11.219478
       7A     -1.397100     8A     -1.086802     9A     -1.010993
      10A     -0.952774    11A     -0.835042    12A     -0.735242
      13A     -0.659244    14A     -0.653692    15A     -0.624585
      16A     -0.603796    17A     -0.578496    18A     -0.552524
      19A     -0.538424    20A     -0.522195    21A     -0.506568
      22A     -0.489042    23A     -0.476052    24A     -0.400797

  @DF-RHF Final Energy:  -270.12842444156468

   => Energetics <=

    Nuclear Repulsion Energy =            237.3224861175038143
    One-Electron Energy =                -836.1229560185204264
    Two-Electron Energy =                 328.6720454594518515
    DFT Exchange-Correlation Energy =       0.0000000000000000
    Empirical Dispersion Energy =           0.0000000000000000
    PCM Polarization Energy =               0.0000000000000000
    EFP Energy =                            0.0000000000000000
    Total Energy =                       -270.1284244415647890
    Molecular point group: c1
  Basis Set: CC-PVTZ
  Basis Set:

  -Total Gradient:
     Atom            X                  Y                   Z
    ------   -----------------  -----------------  -----------------
       1       -0.000057305696     0.000065954541     0.000011416226
       2       -0.001036880402    -0.001700841141     0.000054033394
       3        0.000672914004     0.001742054004     0.000483051776
       4        0.000692476511     0.000841863915    -0.000189705877
       5       -0.000231040365    -0.000958463290    -0.000379175545
       6        0.000015477968     0.000005988892    -0.000008657599
       7        0.000007809758    -0.000003213359     0.000002850179
       8       -0.000010701686     0.000016038371    -0.000015735327
       9        0.000007363939     0.000011468187     0.000023348659
      10       -0.000015118968    -0.000016356714     0.000016979823
      11       -0.000004469480    -0.000002055440     0.000001164793
      12       -0.000000637696     0.000012882660    -0.000008134155
      13       -0.000001717117    -0.000002187096    -0.000007676963
      14       -0.000048466398    -0.000022879827     0.000019874356
      15        0.000022520202    -0.000008493846    -0.000003867957
      16       -0.000012224577     0.000018240143     0.000000234216

  **** Optimization is complete! (in 13 steps) ****
    Final optimized geometry and variables:
    Molecular point group: c1

    Geometry (in Angstrom), charge = 0, multiplicity = 1:

    O           -1.846471566877     1.139089723946     0.116023581064
    C           -1.014756692112     0.397895728133    -0.297078045471
    C           -0.015005273624    -0.244638879111     0.646480342559
    C           -0.938548139863     0.058664346055    -1.768231727199
    C            1.419494755905    -0.366256719404     0.131806154351
    H           -0.398955195648    -1.239156181583     0.868144300848
    H           -0.048040245427     0.317715463038     1.569994146199
    C            2.352684560436    -0.967924345197     1.177176476976
    H            1.445355238479    -0.978176765778    -0.762776428075
    H            1.787405840628     0.614986095612    -0.153628870048
    H            3.364196945948    -1.045559242161     0.796866348632
    H            2.028438376233    -1.962601086938     1.463860591113
    H            2.380411147619    -0.358424667768     2.073433758447
    H           -0.049588310602     0.501883045749    -2.202234054520
    H           -1.811281621288     0.446846645451    -2.270017146149
    H           -0.871460118307    -1.013137836692    -1.917094059598

  Mulliken Charges: (a.u.)
   Center  Symbol    Alpha    Beta     Spin     Total
       1     O     4.17237  4.17237  0.00000 -0.34474
       2     C     2.85896  2.85896  0.00000  0.28209
       3     C     3.09642  3.09642  0.00000 -0.19284
       4     C     3.16454  3.16454  0.00000 -0.32908
       5     C     3.09674  3.09674  0.00000 -0.19348
       6     H     0.44734  0.44734  0.00000  0.10532
       7     H     0.43770  0.43770  0.00000  0.12459
       8     C     3.14935  3.14935  0.00000 -0.29871
       9     H     0.45065  0.45065  0.00000  0.09870
      10     H     0.44727  0.44727  0.00000  0.10546
      11     H     0.44609  0.44609  0.00000  0.10782
      12     H     0.45417  0.45417  0.00000  0.09166
      13     H     0.45098  0.45098  0.00000  0.09803
      14     H     0.44689  0.44689  0.00000  0.10622
      15     H     0.43201  0.43201  0.00000  0.13597
      16     H     0.44851  0.44851  0.00000  0.10297

   Total alpha = 24.00000, Total beta = 24.00000, Total charge =  0.00000

*** Psi4 exiting successfully. Buy a developer a beer!
