  ==> Input File <==

--------------------------------------------------------------------------
set {
	reference rhf
	basis cc-pvtz
}

set_num_threads( 4 )
memory 2 gb

molecule MOL {
0 1

H	 -3.642953	 0.223825	 0.000000
C	 -2.571844	 0.155001	 0.000000
C	 -1.957580	 -1.086132	 0.000000
C	 -1.807160	 1.303787	 0.000000
H	 -2.551493	 -1.979629	 0.000000
C	 -0.582719	 -1.174294	 0.000000
H	 -2.279934	 2.266806	 0.000000
C	 -0.427220	 1.213406	 0.000000
H	 -0.094904	 -2.127556	 0.000000
C	 0.196908	 -0.024061	 0.000000
H	 0.151409	 2.115254	 0.000000
C	 1.690041	 -0.173233	 0.000000
C	 2.544231	 0.989030	 0.451841
O	 2.195360	 -1.191630	 -0.350546
H	 2.370411	 1.858085	 -0.171465
H	 3.580723	 0.699421	 0.384457
H	 2.310871	 1.262128	 1.474064

	symmetry c1
}
set optking {
	frozen_dihedral = ("
		13 12 10 8
	")
}

ee = optimize('scf')
oeprop('DIPOLE', 'QUADRUPOLE', 'MULLIKEN_CHARGES')
f=open( 'psi4out.xyz', 'w' )
f.write( "17  " )
f.write( str(ee) + "\n" )
f.write( MOL.save_string_xyz() )
f.close()
--------------------------------------------------------------------------

    Molecular point group: c1
  Charge       = 0
  Multiplicity = 1
  Basis Set: CC-PVTZ
  Basis Set:
  @DF-RHF Final Energy:  -382.60481762080826
    Total Energy =                       -382.6048176208089444
    Molecular point group: c1
  Basis Set: CC-PVTZ
  Basis Set:
  Basis Set: CC-PVTZ
  Basis Set:
  @DF-RHF Final Energy:  -382.60252278279671
    Total Energy =                       -382.6025227827967683
  Basis Set: CC-PVTZ
  Basis Set:
  Basis Set: CC-PVTZ
  Basis Set:
  @DF-RHF Final Energy:  -382.60501816546639
    Total Energy =                       -382.6050181654661628
  Basis Set: CC-PVTZ
  Basis Set:
  Basis Set: CC-PVTZ
  Basis Set:
  @DF-RHF Final Energy:  -382.60508318902947
    Total Energy =                       -382.6050831890294148
  Basis Set: CC-PVTZ
  Basis Set:
  Basis Set: CC-PVTZ
  Basis Set:
  @DF-RHF Final Energy:  -382.60509160414944
    Total Energy =                       -382.6050916041494929
  Basis Set: CC-PVTZ
  Basis Set:
  Charge       = 0
  Multiplicity = 1
  Basis Set: CC-PVTZ
  Basis Set:

    Orbital Energies (a.u.)
    -----------------------

    Doubly Occupied:

       1A    -20.540964     2A    -11.327912     3A    -11.246657
       4A    -11.243941     5A    -11.242811     6A    -11.239162
       7A    -11.238957     8A    -11.236752     9A    -11.229061
      10A     -1.402301    11A     -1.171194    12A     -1.053424
      13A     -1.030667    14A     -0.998984    15A     -0.864446
      16A     -0.839161    17A     -0.763709    18A     -0.712649
      19A     -0.659225    20A     -0.651953    21A     -0.628326
      22A     -0.612998    23A     -0.602689    24A     -0.598573
      25A     -0.556435    26A     -0.530118    27A     -0.520648
      28A     -0.504039    29A     -0.497441    30A     -0.414492
      31A     -0.350705    32A     -0.346815

  @DF-RHF Final Energy:  -382.60509495872765

   => Energetics <=

    Nuclear Repulsion Energy =            404.4468926234129071
    One-Electron Energy =               -1320.3895555851172503
    Two-Electron Energy =                 533.3375680029764681
    DFT Exchange-Correlation Energy =       0.0000000000000000
    Empirical Dispersion Energy =           0.0000000000000000
    PCM Polarization Energy =               0.0000000000000000
    EFP Energy =                            0.0000000000000000
    Total Energy =                       -382.6050949587279320
    Molecular point group: c1
  Basis Set: CC-PVTZ
  Basis Set:

  -Total Gradient:
     Atom            X                  Y                   Z
    ------   -----------------  -----------------  -----------------
       1       -0.000000494237    -0.000001661269     0.000009259267
       2        0.000010688587     0.000027922501    -0.000043081659
       3        0.000020548808    -0.000010918556     0.000008025557
       4       -0.000037046486    -0.000007544673     0.000006811474
       5       -0.000002452543     0.000002710096    -0.000005401973
       6       -0.000018825605     0.000005675045     0.000053659178
       7       -0.000003181494    -0.000001866435    -0.000000318941
       8       -0.000015229165     0.000007808280    -0.001867703976
       9        0.000002973399    -0.000002166100    -0.000025425703
      10        0.000021448592    -0.000258330215     0.003595670726
      11       -0.000018640135    -0.000014358672    -0.000025114267
      12        0.000098537092     0.000771979009    -0.003293337622
      13       -0.000017557419    -0.000587521855     0.001553572499
      14       -0.000037085738     0.000061012355     0.000003697875
      15       -0.000010792886    -0.000010031693     0.000000108367
      16        0.000001369356     0.000015333175     0.000013372534
      17        0.000005739873     0.000001959004     0.000016206661

  **** Optimization is complete! (in 6 steps) ****
    Final optimized geometry and variables:
    Molecular point group: c1

    Geometry (in Angstrom), charge = 0, multiplicity = 1:

    H           -3.641766964469     0.224701755736    -0.019180996718
    C           -2.570640342453     0.156196439427    -0.013934490781
    C           -1.956147730071    -1.084655312234    -0.026840536543
    C           -1.806059674813     1.305072856434     0.003873575885
    H           -2.549939572706    -1.978164042244    -0.042035931013
    C           -0.580940770753    -1.172614950217    -0.027369041171
    H           -2.278943709311     2.268107786739     0.007215932922
    C           -0.426129140607     1.214985053604     0.017889030868
    H           -0.093484787246    -2.126037065532    -0.053214781671
    C            0.197121972765    -0.022440771883     0.004908704628
    H            0.153872442525     2.116260764693     0.034588986653
    C            1.690460151960    -0.168535852946    -0.023617615239
    C            2.545188463245     0.998890283311     0.414305247009
    O            2.190219306414    -1.195365299396    -0.355237895332
    H            2.457570296913     1.820588843461    -0.287200183959
    H            3.574124207717     0.677896198238     0.452960235470
    H            2.233100420252     1.359499247519     1.386708240696

  Mulliken Charges: (a.u.)
   Center  Symbol    Alpha    Beta     Spin     Total
       1     H     0.42035  0.42035  0.00000  0.15931
       2     C     3.07381  3.07381  0.00000 -0.14762
       3     C     3.07279  3.07279  0.00000 -0.14559
       4     C     3.07521  3.07521  0.00000 -0.15043
       5     H     0.42038  0.42038  0.00000  0.15924
       6     C     3.07743  3.07743  0.00000 -0.15486
       7     H     0.42217  0.42217  0.00000  0.15566
       8     C     3.08711  3.08711  0.00000 -0.17422
       9     H     0.40845  0.40845  0.00000  0.18310
      10     C     3.00577  3.00577  0.00000 -0.01154
      11     H     0.42184  0.42184  0.00000  0.15631
      12     C     2.84174  2.84174  0.00000  0.31652
      13     C     3.16519  3.16519  0.00000 -0.33038
      14     O     4.18132  4.18132  0.00000 -0.36264
      15     H     0.44912  0.44912  0.00000  0.10177
      16     H     0.43217  0.43217  0.00000  0.13566
      17     H     0.44515  0.44515  0.00000  0.10971

   Total alpha = 32.00000, Total beta = 32.00000, Total charge =  0.00000
