  ==> Input File <==

--------------------------------------------------------------------------
set {
	reference rhf
	basis 6-31G*
}

set_num_threads( 4 )
memory 2 gb

molecule MOL {
0 1

H	 3.576299	 0.828926	 -1.049857
N	 2.804897	 0.189882	 -1.039532
C	 1.865559	 0.531981	 0.018834
H	 3.188034	 -0.723787	 -0.887070
C	 0.645745	 -0.382037	 -0.029944
H	 1.550600	 1.558944	 -0.139305
H	 2.309633	 0.490883	 1.016586
C	 -0.679275	 0.379305	 0.025956
H	 0.698998	 -0.976915	 -0.937203
H	 0.693479	 -1.083846	 0.802235
C	 -1.903357	 -0.536963	 -0.023547
H	 -0.726309	 1.082987	 -0.803784
H	 -0.717680	 0.977832	 0.934877
C	 -3.225172	 0.228290	 0.028445
H	 -1.867824	 -1.134999	 -0.931459
H	 -1.860449	 -1.239604	 0.805977
H	 -3.313397	 0.915643	 -0.808262
H	 -4.073500	 -0.448134	 -0.008893
H	 -3.306061	 0.809945	 0.942516

	symmetry c1
}
set optking {
	frozen_dihedral = ("
		6 3 5 9
	")
}

ee = optimize('scf')
oeprop('DIPOLE', 'QUADRUPOLE', 'MULLIKEN_CHARGES')
f=open( 'psi4out.xyz', 'w' )
f.write( "19  " )
f.write( str(ee) + "\n" )
f.write( MOL.save_string_xyz() )
f.close()
--------------------------------------------------------------------------

    Molecular point group: c1
  Charge       = 0
  Multiplicity = 1
  Basis Set: 6-31G*
  Basis Set:
  @DF-RHF Final Energy:  -251.34618062624898
    Total Energy =                       -251.3461806262489517
    Molecular point group: c1
  Basis Set: 6-31G*
  Basis Set:
  Basis Set: 6-31G*
  Basis Set:
  @DF-RHF Final Energy:  -251.34643294070423
    Total Energy =                       -251.3464329407042896
  Basis Set: 6-31G*
  Basis Set:
  Basis Set: 6-31G*
  Basis Set:
  @DF-RHF Final Energy:  -251.34652031566651
    Total Energy =                       -251.3465203156665098
  Basis Set: 6-31G*
  Basis Set:
  Basis Set: 6-31G*
  Basis Set:
  @DF-RHF Final Energy:  -251.34651652149046
    Total Energy =                       -251.3465165214904573
  Basis Set: 6-31G*
  Basis Set:
  Basis Set: 6-31G*
  Basis Set:
  @DF-RHF Final Energy:  -251.34652267375358
    Total Energy =                       -251.3465226737537250
  Basis Set: 6-31G*
  Basis Set:
  Charge       = 0
  Multiplicity = 1
  Basis Set: 6-31G*
  Basis Set:

    Orbital Energies (a.u.)
    -----------------------

    Doubly Occupied:

       1A    -15.533012     2A    -11.239637     3A    -11.212782
       4A    -11.211770     5A    -11.209249     6A    -11.206601
       7A     -1.175810     8A     -1.071539     9A     -0.996253
      10A     -0.899258    11A     -0.813859    12A     -0.789267
      13A     -0.653733    14A     -0.650643    15A     -0.613298
      16A     -0.591629    17A     -0.552939    18A     -0.549296
      19A     -0.538703    20A     -0.490597    21A     -0.482592
      22A     -0.463071    23A     -0.458684    24A     -0.451537
      25A     -0.379011

  @DF-RHF Final Energy:  -251.34652271251949

   => Energetics <=

    Nuclear Repulsion Energy =            245.7331961402352078
    One-Electron Energy =                -825.6898955238532380
    Two-Electron Energy =                 328.6101766710986567
    DFT Exchange-Correlation Energy =       0.0000000000000000
    Empirical Dispersion Energy =           0.0000000000000000
    PCM Polarization Energy =               0.0000000000000000
    EFP Energy =                            0.0000000000000000
    Total Energy =                       -251.3465227125193451
    Molecular point group: c1
  Basis Set: 6-31G*
  Basis Set:

  -Total Gradient:
     Atom            X                  Y                   Z
    ------   -----------------  -----------------  -----------------
       1        0.000002545616     0.000000388833    -0.000000357475
       2        0.000000459909    -0.000011267470    -0.000001517406
       3        0.000762978411    -0.000802489740    -0.003239534910
       4        0.000008957414    -0.000005559766    -0.000005206288
       5       -0.001861645001     0.002587433291    -0.001014856648
       6       -0.000372164795     0.000296008965     0.002872627626
       7        0.000000522817    -0.000005633370    -0.000002152307
       8        0.000000338076     0.000001994634     0.000003988783
       9        0.001452949828    -0.002057548139     0.001394243581
      10       -0.000001829793    -0.000002344800     0.000001020996
      11        0.000000273696    -0.000002030465    -0.000011010598
      12       -0.000002301951    -0.000003658741    -0.000000082029
      13        0.000002495341     0.000000690429    -0.000000279482
      14        0.000002210867     0.000002044768     0.000006205424
      15        0.000002507418     0.000000810901    -0.000001610026
      16        0.000000352953     0.000000718731    -0.000001253692
      17       -0.000001231623    -0.000002389542    -0.000002803774
      18        0.000002588644    -0.000000785124     0.000003168418
      19       -0.000000007826     0.000003616604    -0.000000590194

  **** Optimization is complete! (in 6 steps) ****
    Final optimized geometry and variables:
    Molecular point group: c1

    Geometry (in Angstrom), charge = 0, multiplicity = 1:

    H            3.676573132668     0.740351870709    -0.805936457664
    N            2.885324503629     0.126811906467    -0.849536840636
    C            1.919893990363     0.462616319508     0.188598770531
    H            3.235369480345    -0.802758784766    -0.712389170250
    C            0.683946517285    -0.452560136694     0.123479225705
    H            1.620433243850     1.495905907180     0.045169305300
    H            2.347751713616     0.418577589176     1.192410367435
    C           -0.643364823460     0.303955970787     0.187907538018
    H            0.735419202798    -1.035259420585    -0.791610018069
    H            0.720184558802    -1.173208745229     0.938251745722
    C           -1.865220160619    -0.615096641216     0.164883883561
    H           -0.696975279325     0.997561788426    -0.648995832614
    H           -0.669269868094     0.912243120621     1.091319879804
    C           -3.188138150256     0.148269749124     0.219229838334
    H           -1.837587448904    -1.225890451926    -0.734925690641
    H           -1.812723857879    -1.305737518250     1.004033249024
    H           -3.286935164551     0.821789083838    -0.627369476179
    H           -4.035417351449    -0.530359347061     0.202250052510
    H           -3.260108078372     0.744354772780     1.124736092927

  Mulliken Charges: (a.u.)
   Center  Symbol    Alpha    Beta     Spin     Total
       1     H     0.33342  0.33342  0.00000  0.33316
       2     N     3.92033  3.92033  0.00000 -0.84067
       3     C     3.06404  3.06404  0.00000 -0.12808
       4     H     0.33540  0.33540  0.00000  0.32919
       5     C     3.15877  3.15877  0.00000 -0.31753
       6     H     0.41829  0.41829  0.00000  0.16341
       7     H     0.43316  0.43316  0.00000  0.13367
       8     C     3.15493  3.15493  0.00000 -0.30987
       9     H     0.41172  0.41172  0.00000  0.17655
      10     H     0.42456  0.42456  0.00000  0.15089
      11     C     3.15207  3.15207  0.00000 -0.30414
      12     H     0.41976  0.41976  0.00000  0.16049
      13     H     0.42519  0.42519  0.00000  0.14962
      14     C     3.23929  3.23929  0.00000 -0.47858
      15     H     0.42187  0.42187  0.00000  0.15626
      16     H     0.42384  0.42384  0.00000  0.15231
      17     H     0.42131  0.42131  0.00000  0.15739
      18     H     0.41967  0.41967  0.00000  0.16065
      19     H     0.42237  0.42237  0.00000  0.15526

   Total alpha = 25.00000, Total beta = 25.00000, Total charge = -0.00000
