  ==> Input File <==

--------------------------------------------------------------------------
set {
	reference rhf
	basis cc-pvtz
}

set_num_threads( 4 )
memory 2 gb

molecule MOL {
0 1

H	 -1.795697	 1.666963	 -0.070993
C	 -1.927413	 0.604749	 -0.249866
O	 -0.775228	 0.000056	 -0.739966
H	 -2.689097	 0.483300	 -1.006992
H	 -2.283458	 0.141234	 0.664474
C	 0.406133	 -0.000384	 0.036994
C	 1.526415	 -0.003194	 -0.997339
C	 0.498772	 1.259027	 0.900673
C	 0.495883	 -1.257378	 0.904465
H	 1.452279	 0.872071	 -1.630204
H	 1.451276	 -0.881020	 -1.626529
H	 2.497919	 -0.002741	 -0.517601
H	 0.368981	 2.144239	 0.289753
H	 1.470064	 1.313479	 1.377660
H	 -0.248448	 1.271586	 1.684297
H	 0.363971	 -2.144195	 0.296316
H	 1.467114	 -1.312636	 1.381470
H	 -0.251246	 -1.265768	 1.688235

	symmetry c1
}
set optking {
	frozen_dihedral = ("
		2 3 6 7
	")
}

ee = optimize('scf')
oeprop('DIPOLE', 'QUADRUPOLE', 'MULLIKEN_CHARGES')
f=open( 'psi4out.xyz', 'w' )
f.write( "18  " )
f.write( str(ee) + "\n" )
f.write( MOL.save_string_xyz() )
f.close()
--------------------------------------------------------------------------

    Molecular point group: c1
  Charge       = 0
  Multiplicity = 1
  Basis Set: CC-PVTZ
  Basis Set:
  @DF-RHF Final Energy:  -271.27387450895998
    Total Energy =                       -271.2738745089600343
    Molecular point group: c1
  Basis Set: CC-PVTZ
  Basis Set:
  Basis Set: CC-PVTZ
  Basis Set:
  @DF-RHF Final Energy:  -271.27453242404454
    Total Energy =                       -271.2745324240445370
  Basis Set: CC-PVTZ
  Basis Set:
  Basis Set: CC-PVTZ
  Basis Set:
  @DF-RHF Final Energy:  -271.27492576110012
    Total Energy =                       -271.2749257610997802
  Basis Set: CC-PVTZ
  Basis Set:
  Basis Set: CC-PVTZ
  Basis Set:
  @DF-RHF Final Energy:  -271.27492969718128
    Total Energy =                       -271.2749296971814488
  Basis Set: CC-PVTZ
  Basis Set:
  Basis Set: CC-PVTZ
  Basis Set:
  @DF-RHF Final Energy:  -271.27499875822997
    Total Energy =                       -271.2749987582299127
  Basis Set: CC-PVTZ
  Basis Set:
  Basis Set: CC-PVTZ
  Basis Set:
  @DF-RHF Final Energy:  -271.27500221253069
    Total Energy =                       -271.2750022125308078
  Basis Set: CC-PVTZ
  Basis Set:
  Charge       = 0
  Multiplicity = 1
  Basis Set: CC-PVTZ
  Basis Set:

    Orbital Energies (a.u.)
    -----------------------

    Doubly Occupied:

       1A    -20.539025     2A    -11.280352     3A    -11.259057
       4A    -11.210241     5A    -11.204213     6A    -11.201996
       7A     -1.371916     8A     -1.074976     9A     -0.949729
      10A     -0.938289    11A     -0.912415    12A     -0.752864
      13A     -0.657469    14A     -0.647962    15A     -0.639234
      16A     -0.588315    17A     -0.575382    18A     -0.551970
      19A     -0.537700    20A     -0.526122    21A     -0.515420
      22A     -0.492308    23A     -0.485531    24A     -0.441940
      25A     -0.403213

  @DF-RHF Final Energy:  -271.27500269931562

   => Energetics <=

    Nuclear Repulsion Energy =            272.5151645741190691
    One-Electron Energy =                -908.0650583314163669
    Two-Electron Energy =                 364.2748910579815629
    DFT Exchange-Correlation Energy =       0.0000000000000000
    Empirical Dispersion Energy =           0.0000000000000000
    PCM Polarization Energy =               0.0000000000000000
    EFP Energy =                            0.0000000000000000
    Total Energy =                       -271.2750026993156780
    Molecular point group: c1
  Basis Set: CC-PVTZ
  Basis Set:

  -Total Gradient:
     Atom            X                  Y                   Z
    ------   -----------------  -----------------  -----------------
       1        0.000002166429    -0.000021708981    -0.000001487791
       2        0.000847254172     0.002899951295    -0.001434721590
       3       -0.001248769925    -0.003667048006     0.002360849788
       4        0.000000119447     0.000000762006    -0.000012233652
       5        0.000019573174    -0.000017969784     0.000028433569
       6        0.000628498776    -0.001941517645    -0.000792037578
       7        0.000076608951     0.002707292544    -0.000084654452
       8       -0.000071350097    -0.000009061616     0.000022508711
       9       -0.000188724652     0.000042833469    -0.000047073355
      10        0.000007029602    -0.000007700770     0.000012831011
      11        0.000015319023     0.000009389172    -0.000032631831
      12        0.000014387872    -0.000018997033    -0.000021674787
      13        0.000014144774    -0.000004741218    -0.000004073884
      14       -0.000030395888    -0.000021638486    -0.000014269137
      15       -0.000040736078     0.000018389960     0.000028594721
      16       -0.000019323788    -0.000008141567     0.000008947712
      17       -0.000004009857     0.000056341285    -0.000065298467
      18       -0.000021791939    -0.000016434625     0.000047991009

  **** Optimization is complete! (in 7 steps) ****
    Final optimized geometry and variables:
    Molecular point group: c1

    Geometry (in Angstrom), charge = 0, multiplicity = 1:

    H           -1.880340181532     1.545469058841    -0.150064722023
    C           -1.959390197360     0.466087892163    -0.218493970308
    O           -0.797884015837    -0.121862020194    -0.705145788399
    H           -2.746163271570     0.227521304446    -0.920209129676
    H           -2.247893413485     0.078271282390     0.755177062811
    C            0.397890151979    -0.094504668849     0.055254131989
    C            1.518323146500    -0.092081343217    -0.979641037279
    C            0.521258512611     1.155842963949     0.928906503776
    C            0.451550185690    -1.354290569687     0.917736263677
    H            1.476308272978     0.811666518867    -1.574303734136
    H            1.412397299494    -0.938653945458    -1.646344067097
    H            2.489957340481    -0.149067028588    -0.502551678406
    H            0.443165963781     2.057427254720     0.333528615555
    H            1.490266650181     1.159375252622     1.412222456941
    H           -0.231291618721     1.191120252329     1.706373783765
    H            0.379748981538    -2.235596955941     0.292984283434
    H            1.377419602400    -1.403742818542     1.479495505366
    H           -0.369543858658    -1.374850840993     1.625294716596

  Mulliken Charges: (a.u.)
   Center  Symbol    Alpha    Beta     Spin     Total
       1     H     0.46699  0.46699  0.00000  0.06601
       2     C     3.04295  3.04295  0.00000 -0.08591
       3     O     4.19519  4.19519  0.00000 -0.39037
       4     H     0.44226  0.44226  0.00000  0.11548
       5     H     0.47039  0.47039  0.00000  0.05921
       6     C     2.87403  2.87403  0.00000  0.25195
       7     C     3.14070  3.14070  0.00000 -0.28141
       8     C     3.17446  3.17446  0.00000 -0.34893
       9     C     3.14849  3.14849  0.00000 -0.29699
      10     H     0.45142  0.45142  0.00000  0.09717
      11     H     0.44750  0.44750  0.00000  0.10500
      12     H     0.45925  0.45925  0.00000  0.08149
      13     H     0.44522  0.44522  0.00000  0.10956
      14     H     0.44396  0.44396  0.00000  0.11207
      15     H     0.44496  0.44496  0.00000  0.11008
      16     H     0.44793  0.44793  0.00000  0.10415
      17     H     0.45384  0.45384  0.00000  0.09232
      18     H     0.45044  0.45044  0.00000  0.09911

   Total alpha = 25.00000, Total beta = 25.00000, Total charge = -0.00000
