  ==> Input File <==

--------------------------------------------------------------------------
set {
	reference rhf
	basis 6-31G*
}

set_num_threads( 4 )
memory 2 gb

molecule MOL {
0 1

O	 -2.324811	 1.361668	 -0.277141
C	 -2.105949	 0.203097	 -0.092081
C	 -0.889235	 -0.467034	 -0.705952
C	 -3.002726	 -0.644460	 0.782455
C	 0.404637	 0.033530	 -0.043778
H	 -0.874796	 -0.218983	 -1.761682
H	 -0.960107	 -1.547027	 -0.613106
C	 1.654044	 -0.598294	 -0.662159
H	 0.436566	 1.113163	 -0.137362
H	 0.380706	 -0.189095	 1.021873
C	 2.969882	 -0.186446	 0.007922
H	 1.695872	 -0.346965	 -1.720370
H	 1.562255	 -1.681172	 -0.609269
C	 3.328466	 1.291850	 -0.153493
H	 3.770942	 -0.788461	 -0.413472
H	 2.927960	 -0.436219	 1.066196
H	 3.367053	 1.571660	 -1.202751
H	 4.301937	 1.500424	 0.279232
H	 2.609981	 1.940985	 0.335581
H	 -3.496582	 -1.399307	 0.176174
H	 -3.747939	 -0.023774	 1.260148
H	 -2.421318	 -1.168775	 1.535358

	symmetry c1
}
set optking {
	frozen_dihedral = ("
		6 3 2 1
	")
}

ee = optimize('scf')
oeprop('DIPOLE', 'QUADRUPOLE', 'MULLIKEN_CHARGES')
f=open( 'psi4out.xyz', 'w' )
f.write( "22  " )
f.write( str(ee) + "\n" )
f.write( MOL.save_string_xyz() )
f.close()
--------------------------------------------------------------------------

    Molecular point group: c1
  Charge       = 0
  Multiplicity = 1
  Basis Set: 6-31G*
  Basis Set:
  @DF-RHF Final Energy:  -348.09829512544502
    Total Energy =                       -348.0982951254450199
    Molecular point group: c1
  Basis Set: 6-31G*
  Basis Set:
  Basis Set: 6-31G*
  Basis Set:
  @DF-RHF Final Energy:  -348.09792757468097
    Total Energy =                       -348.0979275746806252
  Basis Set: 6-31G*
  Basis Set:
  Basis Set: 6-31G*
  Basis Set:
  @DF-RHF Final Energy:  -348.09830582045726
    Total Energy =                       -348.0983058204569147
  Basis Set: 6-31G*
  Basis Set:
  Basis Set: 6-31G*
  Basis Set:
  @DF-RHF Final Energy:  -348.09782867894506
    Total Energy =                       -348.0978286789448930
  Basis Set: 6-31G*
  Basis Set:
  @DF-RHF Final Energy:  -348.09831495708761
    Total Energy =                       -348.0983149570874957
  Basis Set: 6-31G*
  Basis Set:
  @DF-RHF Final Energy:  -348.09831669445754
    Total Energy =                       -348.0983166944570257
  Basis Set: 6-31G*
  Basis Set:
  Basis Set: 6-31G*
  Basis Set:
  @DF-RHF Final Energy:  -348.09831027482159
    Total Energy =                       -348.0983102748216425
  Basis Set: 6-31G*
  Basis Set:
  Basis Set: 6-31G*
  Basis Set:
  @DF-RHF Final Energy:  -348.09832940037751
    Total Energy =                       -348.0983294003773381
  Basis Set: 6-31G*
  Basis Set:
  Charge       = 0
  Multiplicity = 1
  Basis Set: 6-31G*
  Basis Set:

    Orbital Energies (a.u.)
    -----------------------

    Doubly Occupied:

       1A    -20.547482     2A    -11.324896     3A    -11.229467
       4A    -11.228475     5A    -11.227295     6A    -11.221377
       7A    -11.219771     8A    -11.210188     9A     -1.393425
      10A     -1.094426    11A     -1.043487    12A     -1.000118
      13A     -0.936997    14A     -0.856619    15A     -0.785388
      16A     -0.732689    17A     -0.662253    18A     -0.643700
      19A     -0.624535    20A     -0.621119    21A     -0.596644
      22A     -0.582291    23A     -0.562959    24A     -0.543052
      25A     -0.533051    26A     -0.517251    27A     -0.498133
      28A     -0.486578    29A     -0.469736    30A     -0.463089
      31A     -0.458875    32A     -0.396496

  @DF-RHF Final Energy:  -348.09832939104882

   => Energetics <=

    Nuclear Repulsion Energy =            372.8653778677465311
    One-Electron Energy =               -1210.5036968698136661
    Two-Electron Energy =                 489.5399896110182567
    DFT Exchange-Correlation Energy =       0.0000000000000000
    Empirical Dispersion Energy =           0.0000000000000000
    PCM Polarization Energy =               0.0000000000000000
    EFP Energy =                            0.0000000000000000
    Total Energy =                       -348.0983293910489351
    Molecular point group: c1
  Basis Set: 6-31G*
  Basis Set:

  -Total Gradient:
     Atom            X                  Y                   Z
    ------   -----------------  -----------------  -----------------
       1       -0.000024435277    -0.000006923260    -0.000027186578
       2        0.000008751207     0.000011041068     0.000022710078
       3       -0.000018812562    -0.000034895456     0.000002849031
       4        0.000030968661     0.000018035956     0.000054119949
       5        0.000009832497     0.000003065765     0.000004120269
       6        0.000019611865     0.000026741273    -0.000002319652
       7        0.000005485350     0.000010489195    -0.000018642158
       8        0.000011550743    -0.000005369579     0.000001959456
       9        0.000006148000    -0.000003226199     0.000005269586
      10       -0.000022883534    -0.000000202305     0.000003436854
      11        0.000001419650     0.000007307847    -0.000019735333
      12       -0.000005536006    -0.000008168439    -0.000005868680
      13        0.000018251670    -0.000002708636     0.000006727922
      14       -0.000000740612    -0.000009087672    -0.000000964509
      15        0.000006604904     0.000001407690     0.000002563149
      16       -0.000009702689     0.000003529643    -0.000001584275
      17       -0.000007675953    -0.000001758533     0.000001550337
      18        0.000004817905    -0.000002597924    -0.000003696761
      19       -0.000008691805    -0.000000719202     0.000005884909
      20       -0.000001692450     0.000006968366    -0.000016586223
      21       -0.000012859480    -0.000005040355    -0.000010462432
      22       -0.000010412083    -0.000007889248    -0.000004144939

  **** Optimization is complete! (in 9 steps) ****
    Final optimized geometry and variables:
    Molecular point group: c1

    Geometry (in Angstrom), charge = 0, multiplicity = 1:

    O           -2.326605419568     1.226266300885    -0.139177355989
    C           -2.112380532904     0.067623944918     0.050633834575
    C           -0.894791773053    -0.606378985859    -0.560547041422
    C           -3.020198849028    -0.777058262499     0.915574201433
    C            0.401341646430    -0.108827086730     0.096746756890
    H           -0.881493656255    -0.358662187908    -1.617367001319
    H           -0.969267285295    -1.686249846603    -0.472996698447
    C            1.648448679082    -0.736188445517    -0.530438408869
    H            0.430273305665     0.970899502984     0.010069623079
    H            0.380946004950    -0.338002010129     1.161211135645
    C            2.966733289200    -0.325951086825     0.135687755882
    H            1.685315050423    -0.479507139722    -1.587745560230
    H            1.558777263898    -1.819591021380    -0.482947997805
    C            3.319705825837     1.154769383428    -0.015531234849
    H            3.767620416925    -0.922036376956    -0.294490749891
    H            2.931232903720    -0.584001250882     1.192202738275
    H            3.351217171492     1.443145073571    -1.062683950408
    H            4.295082907193     1.362860292627     0.413167824604
    H            2.601870411971     1.797439435340     0.482875755249
    H           -3.470403107894    -1.565231172750     0.317980912209
    H           -3.797349674921    -0.162670942636     1.348307281885
    H           -2.450085388528    -1.260107136400     1.704335449506

  Mulliken Charges: (a.u.)
   Center  Symbol    Alpha    Beta     Spin     Total
       1     O     4.26314  4.26314  0.00000 -0.52628
       2     C     2.73653  2.73653  0.00000  0.52694
       3     C     3.20054  3.20054  0.00000 -0.40108
       4     C     3.28940  3.28940  0.00000 -0.57881
       5     C     3.16246  3.16246  0.00000 -0.32492
       6     H     0.40169  0.40169  0.00000  0.19661
       7     H     0.41688  0.41688  0.00000  0.16624
       8     C     3.15290  3.15290  0.00000 -0.30580
       9     H     0.40209  0.40209  0.00000  0.19582
      10     H     0.42163  0.42163  0.00000  0.15675
      11     C     3.15317  3.15317  0.00000 -0.30634
      12     H     0.42118  0.42118  0.00000  0.15763
      13     H     0.42231  0.42231  0.00000  0.15538
      14     C     3.24210  3.24210  0.00000 -0.48419
      15     H     0.41983  0.41983  0.00000  0.16033
      16     H     0.42299  0.42299  0.00000  0.15401
      17     H     0.42097  0.42097  0.00000  0.15805
      18     H     0.41845  0.41845  0.00000  0.16310
      19     H     0.41791  0.41791  0.00000  0.16418
      20     H     0.40732  0.40732  0.00000  0.18535
      21     H     0.39719  0.39719  0.00000  0.20562
      22     H     0.40930  0.40930  0.00000  0.18140

   Total alpha = 32.00000, Total beta = 32.00000, Total charge =  0.00000
