                              Psi4 1.0.54 Driver

  ==> Input File <==

--------------------------------------------------------------------------
set {
	reference rhf
	basis cc-pvtz
}

set_num_threads( 4 )
memory 2 gb

molecule MOL {
0 1

H	 1.128311	 0.207724	 1.465118
C	 1.134565	 0.093781	 0.372499
C	 0.062554	 0.862911	 -0.350953
O	 1.948932	 -0.587720	 -0.146651
C	 -0.774868	 -0.023325	 -1.278273
H	 0.527844	 1.676476	 -0.892350
H	 -0.582685	 1.292683	 0.411961
C	 0.010193	 -0.570730	 -2.466835
H	 -1.617199	 0.556358	 -1.637467
H	 -1.195640	 -0.845934	 -0.706686
H	 0.407917	 0.235041	 -3.073552
H	 -0.623389	 -1.182206	 -3.097953
H	 0.846758	 -1.182630	 -2.147818

	symmetry c1
}
set optking {
	frozen_dihedral = ("
		6 3 2 4
	")
}

ee,wfn = optimize('scf', return_wfn=True)
oeprop( wfn, 'DIPOLE', 'QUADRUPOLE', 'MULLIKEN_CHARGES')
f=open( 'psi4out.xyz', 'w' )
f.write( "13  " )
f.write( str(ee) + "\n" )
f.write( MOL.save_string_xyz() )
f.close()
--------------------------------------------------------------------------

    Molecular point group: c1
  Charge       = 0
  Multiplicity = 1
  Basis Set: CC-PVTZ
  Basis Set:
  @DF-RHF Final Energy:  -231.06617682454041
    Total Energy =                       -231.0661768245403209
    Molecular point group: c1
  Basis Set: CC-PVTZ
  Basis Set:
  Basis Set: CC-PVTZ
  Basis Set:
  @DF-RHF Final Energy:  -231.06728850703689
    Total Energy =                       -231.0672885070367215
  Basis Set: CC-PVTZ
  Basis Set:
  Basis Set: CC-PVTZ
  Basis Set:
  @DF-RHF Final Energy:  -231.06740290823004
    Total Energy =                       -231.0674029082300081
  Basis Set: CC-PVTZ
  Basis Set:
  Basis Set: CC-PVTZ
  Basis Set:
  @DF-RHF Final Energy:  -231.06748433687792
    Total Energy =                       -231.0674843368778966
  Basis Set: CC-PVTZ
  Basis Set:
  Basis Set: CC-PVTZ
  Basis Set:
  @DF-RHF Final Energy:  -231.06749387866020
    Total Energy =                       -231.0674938786603434
  Basis Set: CC-PVTZ
  Basis Set:
  Basis Set: CC-PVTZ
  Basis Set:
  @DF-RHF Final Energy:  -231.06749786342584
    Total Energy =                       -231.0674978634257570
  Basis Set: CC-PVTZ
  Basis Set:
  Basis Set: CC-PVTZ
  Basis Set:
  @DF-RHF Final Energy:  -231.06749935431708
    Total Energy =                       -231.0674993543170501
  Basis Set: CC-PVTZ
  Basis Set:
  Charge       = 0
  Multiplicity = 1
  Basis Set: CC-PVTZ
  Basis Set:

    Orbital Energies (a.u.)
    -----------------------

    Doubly Occupied:

       1A    -20.553393     2A    -11.323888     3A    -11.235896
       4A    -11.230493     5A    -11.206192     6A     -1.409025
       7A     -1.078221     8A     -0.971736     9A     -0.845601
      10A     -0.777068    11A     -0.684644    12A     -0.651232
      13A     -0.599516    14A     -0.593440    15A     -0.572161
      16A     -0.525339    17A     -0.499756    18A     -0.488107
      19A     -0.480532    20A     -0.409341

  @DF-RHF Final Energy:  -231.06749939017519

   => Energetics <=

    Nuclear Repulsion Energy =            176.0031651883784605
    One-Electron Energy =                -661.8701587781680473
    Two-Electron Energy =                 254.7994941996144576
    DFT Exchange-Correlation Energy =       0.0000000000000000
    Empirical Dispersion Energy =           0.0000000000000000
    PCM Polarization Energy =               0.0000000000000000
    EFP Energy =                            0.0000000000000000
    Total Energy =                       -231.0674993901751009
    Molecular point group: c1
  Basis Set: CC-PVTZ
  Basis Set:

  -Total Gradient:
     Atom            X                  Y                   Z
    ------   -----------------  -----------------  -----------------
       1       -0.000007681700     0.000002917882    -0.000000203446
       2       -0.000755244382    -0.000974489438     0.000038228121
       3        0.000169323567     0.000891922005     0.000607743387
       4        0.000528465474     0.000606755559    -0.000111325290
       5       -0.000001553671    -0.000010000082     0.000015840963
       6        0.000078877688    -0.000509055066    -0.000553486237
       7        0.000003132259    -0.000008821229     0.000004112887
       8       -0.000018851393     0.000016818981     0.000002252084
       9       -0.000001385824    -0.000005805883    -0.000005419999
      10       -0.000004516350    -0.000008371330    -0.000006417576
      11        0.000002647206     0.000004430490    -0.000001453666
      12        0.000002707216     0.000003647861     0.000001222451
      13        0.000004079910    -0.000009949754     0.000008906321

  **** Optimization is complete! (in 8 steps) ****
    Final optimized geometry and variables:
    Molecular point group: c1

    Geometry (in Angstrom), charge = 0, multiplicity = 1:

    H            0.660585536315     0.400943968301     2.277210994486
    C            0.653194161081     0.179365275205     1.203053039457
    C           -0.374429948791     0.930275340208     0.386479285418
    O            1.432941226972    -0.592434140233     0.761070589552
    C           -1.241198435861     0.044185575534    -0.520213026304
    H            0.166477596701     1.653584863532    -0.218270602427
    H           -1.004950290209     1.490934782586     1.066748411916
    C           -0.529520246802    -0.492345798970    -1.758470092002
    H           -2.096656183104     0.634377988425    -0.830808292001
    H           -1.638149863263    -0.782332658267     0.061304840120
    H           -0.160611922014     0.322392519455    -2.373203758945
    H           -1.214840355953    -1.076490047245    -2.362035587549
    H            0.310774632260    -1.117185397327    -1.494088122481

  Mulliken Charges: (a.u.)
   Center  Symbol    Alpha    Beta     Spin     Total
       1     H     0.45068  0.45068  0.00000  0.09863
       2     C     2.91861  2.91861  0.00000  0.16278
       3     C     3.09499  3.09499  0.00000 -0.18999
       4     O     4.16792  4.16792  0.00000 -0.33584
       5     C     3.08574  3.08574  0.00000 -0.17149
       6     H     0.44482  0.44482  0.00000  0.11036
       7     H     0.44213  0.44213  0.00000  0.11574
       8     C     3.14580  3.14580  0.00000 -0.29161
       9     H     0.44761  0.44761  0.00000  0.10478
      10     H     0.45225  0.45225  0.00000  0.09550
      11     H     0.45880  0.45880  0.00000  0.08241
      12     H     0.45107  0.45107  0.00000  0.09786
      13     H     0.43957  0.43957  0.00000  0.12086

   Total alpha = 20.00000, Total beta = 20.00000, Total charge = -0.00000

*** Psi4 exiting successfully. Buy a developer a beer!
