                              Psi4 1.0.54 Driver

  ==> Input File <==

--------------------------------------------------------------------------
set {
	reference rhf
	basis cc-pvtz
}

set_num_threads( 4 )
memory 2 gb

molecule MOL {
0 1

H	 -2.451241	 -0.726122	 0.698166
O	 -2.313989	 -0.142475	 -0.025864
C	 -0.943808	 -0.065018	 -0.330000
H	 -0.812293	 -0.225641	 -1.398673
C	 -0.231030	 -1.182113	 0.407592
C	 -0.353797	 1.300461	 0.050970
H	 -0.312800	 -0.992012	 1.473041
H	 -0.738841	 -2.119564	 0.220514
C	 1.246176	 -1.268044	 -0.015480
H	 -0.539537	 2.008579	 -0.751815
H	 -0.889989	 1.662858	 0.920677
C	 1.153605	 1.231851	 0.356834
H	 1.823096	 -1.684665	 0.802361
H	 1.352335	 -1.958223	 -0.845114
C	 1.826409	 0.100723	 -0.416008
H	 1.622968	 2.181508	 0.128734
H	 1.301983	 1.066493	 1.419367
H	 2.897299	 0.112407	 -0.249665
H	 1.683458	 0.265621	 -1.480024

	symmetry c1
}
set optking {
	frozen_dihedral = ("
		1 2 3 4
	")
}

ee,wfn = optimize('scf', return_wfn=True)
oeprop( wfn, 'DIPOLE', 'QUADRUPOLE', 'MULLIKEN_CHARGES')
f=open( 'psi4out.xyz', 'w' )
f.write( "19  " )
f.write( str(ee) + "\n" )
f.write( MOL.save_string_xyz() )
f.close()
--------------------------------------------------------------------------

    Molecular point group: c1
  Charge       = 0
  Multiplicity = 1
  Basis Set: CC-PVTZ
  Basis Set:
  @DF-RHF Final Energy:  -309.15991550660846
    Total Energy =                       -309.1599155066083995
    Molecular point group: c1
  Basis Set: CC-PVTZ
  Basis Set:
  Basis Set: CC-PVTZ
  Basis Set:
  @DF-RHF Final Energy:  -309.16105123821615
    Total Energy =                       -309.1610512382161460
  Basis Set: CC-PVTZ
  Basis Set:
  Basis Set: CC-PVTZ
  Basis Set:
  @DF-RHF Final Energy:  -309.16141845203776
    Total Energy =                       -309.1614184520374806
  Basis Set: CC-PVTZ
  Basis Set:
  Basis Set: CC-PVTZ
  Basis Set:
  @DF-RHF Final Energy:  -309.16142414501860
    Total Energy =                       -309.1614241450190548
  Basis Set: CC-PVTZ
  Basis Set:
  Charge       = 0
  Multiplicity = 1
  Basis Set: CC-PVTZ
  Basis Set:

    Orbital Energies (a.u.)
    -----------------------

    Doubly Occupied:

       1A    -20.540789     2A    -11.267227     3A    -11.219303
       4A    -11.218370     5A    -11.215314     6A    -11.213909
       7A    -11.207067     8A     -1.361208     9A     -1.111886
      10A     -1.005693    11A     -0.990053    12A     -0.852750
      13A     -0.835522    14A     -0.748247    15A     -0.678137
      16A     -0.668490    17A     -0.623935    18A     -0.600904
      19A     -0.579883    20A     -0.555116    21A     -0.532832
      22A     -0.521990    23A     -0.501201    24A     -0.493029
      25A     -0.465889    26A     -0.449899    27A     -0.428655
      28A     -0.413190

  @DF-RHF Final Energy:  -309.16142458019550

   => Energetics <=

    Nuclear Repulsion Energy =            331.8458603964929239
    One-Electron Energy =               -1077.4135980255498453
    Two-Electron Energy =                 436.4063130488613069
    DFT Exchange-Correlation Energy =       0.0000000000000000
    Empirical Dispersion Energy =           0.0000000000000000
    PCM Polarization Energy =               0.0000000000000000
    EFP Energy =                            0.0000000000000000
    Total Energy =                       -309.1614245801955576
    Molecular point group: c1
  Basis Set: CC-PVTZ
  Basis Set:

  -Total Gradient:
     Atom            X                  Y                   Z
    ------   -----------------  -----------------  -----------------
       1       -0.000112045754    -0.000703176186    -0.000622161979
       2        0.000132982523     0.000688269844     0.000799644045
       3       -0.000050622585     0.000801653085    -0.000274390957
       4        0.000026039892    -0.000793125819     0.000110435217
       5        0.000004240134     0.000006901764    -0.000024046800
       6        0.000023275084    -0.000005586592     0.000008844667
       7        0.000001964104    -0.000006276880    -0.000008528406
       8        0.000001782928    -0.000001760317     0.000006108381
       9       -0.000019359340    -0.000014335205     0.000045728306
      10        0.000008295971     0.000011312241    -0.000009567661
      11        0.000001883429    -0.000001063025    -0.000003527784
      12       -0.000011991286     0.000012957845    -0.000013855546
      13        0.000022156835    -0.000019571154    -0.000000464351
      14       -0.000007411569     0.000003030951    -0.000003166270
      15       -0.000008442605     0.000021350617    -0.000020662804
      16       -0.000008267045     0.000012636272     0.000012255015
      17       -0.000000710564     0.000001503955     0.000008049245
      18       -0.000008038142    -0.000015968012     0.000001433696
      19        0.000004267989     0.000001246617    -0.000012126013

  **** Optimization is complete! (in 5 steps) ****
    Final optimized geometry and variables:
    Molecular point group: c1

    Geometry (in Angstrom), charge = 0, multiplicity = 1:

    H           -2.567196935261    -0.589270687692     0.597007572502
    O           -2.336305894596    -0.007007749405    -0.102352420069
    C           -0.946416109329    -0.033360544327    -0.326685919559
    H           -0.817462932509    -0.184108451289    -1.393570804163
    C           -0.257631373637    -1.182900920831     0.392499624249
    C           -0.320560638108     1.307812582011     0.076728847986
    H           -0.327771789318    -1.013002741471     1.464749931769
    H           -0.779583129428    -2.111367604901     0.186379502878
    C            1.218188972979    -1.298911761034    -0.030300173510
    H           -0.500703468376     2.030397051578    -0.711232627886
    H           -0.845951079744     1.670011276353     0.952578522250
    C            1.186376397095     1.197145271818     0.371861882068
    H            1.785349243582    -1.735323758372     0.784009705020
    H            1.306004460190    -1.984733050171    -0.865286339761
    C            1.826810134267     0.060188735375    -0.419644614181
    H            1.678485805786     2.137215461460     0.152566946827
    H            1.340598494604     1.014562665002     1.431348436792
    H            2.898777174468     0.041936930111    -0.261365046898
    H            1.679308599478     0.239876705710    -1.480288591988

  Mulliken Charges: (a.u.)
   Center  Symbol    Alpha    Beta     Spin     Total
       1     H     0.39190  0.39190  0.00000  0.21619
       2     O     4.21072  4.21072  0.00000 -0.42143
       3     C     2.92773  2.92773  0.00000  0.14454
       4     H     0.45148  0.45148  0.00000  0.09703
       5     C     3.11662  3.11662  0.00000 -0.23323
       6     C     3.10645  3.10645  0.00000 -0.21290
       7     H     0.45487  0.45487  0.00000  0.09027
       8     H     0.44223  0.44223  0.00000  0.11553
       9     C     3.11287  3.11287  0.00000 -0.22575
      10     H     0.44728  0.44728  0.00000  0.10544
      11     H     0.44916  0.44916  0.00000  0.10167
      12     C     3.10159  3.10159  0.00000 -0.20318
      13     H     0.44725  0.44725  0.00000  0.10550
      14     H     0.44579  0.44579  0.00000  0.10842
      15     C     3.10196  3.10196  0.00000 -0.20392
      16     H     0.44192  0.44192  0.00000  0.11615
      17     H     0.45464  0.45464  0.00000  0.09072
      18     H     0.44272  0.44272  0.00000  0.11457
      19     H     0.45281  0.45281  0.00000  0.09438

   Total alpha = 28.00000, Total beta = 28.00000, Total charge =  0.00000

*** Psi4 exiting successfully. Buy a developer a beer!
