  ==> Input File <==

--------------------------------------------------------------------------
set {
	reference rhf
	basis cc-pvtz
}

set_num_threads( 4 )
memory 2 gb

molecule MOL {
0 1

H	 1.837606	 2.427208	 -0.283845
N	 1.011594	 1.873658	 -0.366760
C	 1.263552	 0.494993	 0.021953
H	 0.715598	 1.927007	 -1.319061
C	 -0.016533	 -0.325589	 -0.026925
H	 1.645457	 0.501551	 1.037384
H	 2.022856	 0.012165	 -0.594747
C	 -1.280353	 0.525521	 0.047747
H	 -0.016686	 -0.912532	 -0.939714
H	 -0.014099	 -1.037598	 0.796369
C	 -2.560681	 -0.301323	 -0.007747
H	 -1.279957	 1.241025	 -0.770189
H	 -1.270445	 1.110526	 0.963468
H	 -2.617064	 -0.872870	 -0.928010
H	 -3.439525	 0.331102	 0.043462
H	 -2.609427	 -1.002736	 0.818585

	symmetry c1
}
set optking {
	frozen_dihedral = ("
		6 3 5 9
	")
}

ee = optimize('scf')
oeprop('DIPOLE', 'QUADRUPOLE', 'MULLIKEN_CHARGES')
f=open( 'psi4out.xyz', 'w' )
f.write( "16  " )
f.write( str(ee) + "\n" )
f.write( MOL.save_string_xyz() )
f.close()
--------------------------------------------------------------------------

    Molecular point group: c1
  Charge       = 0
  Multiplicity = 1
  Basis Set: CC-PVTZ
  Basis Set:
  @DF-RHF Final Energy:  -212.39087527013993
    Total Energy =                       -212.3908752701398157
    Molecular point group: c1
  Basis Set: CC-PVTZ
  Basis Set:
  Basis Set: CC-PVTZ
  Basis Set:
  @DF-RHF Final Energy:  -212.39219095054065
    Total Energy =                       -212.3921909505408507
  Basis Set: CC-PVTZ
  Basis Set:
  Basis Set: CC-PVTZ
  Basis Set:
  @DF-RHF Final Energy:  -212.39370144291573
    Total Energy =                       -212.3937014429158694
  Basis Set: CC-PVTZ
  Basis Set:
  Basis Set: CC-PVTZ
  Basis Set:
  @DF-RHF Final Energy:  -212.39381524110965
    Total Energy =                       -212.3938152411096212
  Basis Set: CC-PVTZ
  Basis Set:
  Basis Set: CC-PVTZ
  Basis Set:
  @DF-RHF Final Energy:  -212.39382451511617
    Total Energy =                       -212.3938245151160800
  Basis Set: CC-PVTZ
  Basis Set:
  Charge       = 0
  Multiplicity = 1
  Basis Set: CC-PVTZ
  Basis Set:

    Orbital Energies (a.u.)
    -----------------------

    Doubly Occupied:

       1A    -15.527654     2A    -11.239285     3A    -11.208609
       4A    -11.204860     5A    -11.201259     6A     -1.178699
       7A     -1.053302     8A     -0.958650     9A     -0.850314
      10A     -0.778496    11A     -0.668763    12A     -0.625807
      13A     -0.612399    14A     -0.576612    15A     -0.560509
      16A     -0.523645    17A     -0.498365    18A     -0.469192
      19A     -0.462968    20A     -0.452558    21A     -0.381421

  @DF-RHF Final Energy:  -212.39382513765528

   => Energetics <=

    Nuclear Repulsion Energy =            189.1873406966587083
    One-Electron Energy =                -661.0955983049891529
    Two-Electron Energy =                 259.5144324706751036
    DFT Exchange-Correlation Energy =       0.0000000000000000
    Empirical Dispersion Energy =           0.0000000000000000
    PCM Polarization Energy =               0.0000000000000000
    EFP Energy =                            0.0000000000000000
    Total Energy =                       -212.3938251376553694
    Molecular point group: c1
  Basis Set: CC-PVTZ
  Basis Set:

  -Total Gradient:
     Atom            X                  Y                   Z
    ------   -----------------  -----------------  -----------------
       1       -0.000001664870    -0.000021303605     0.000003355928
       2       -0.000016808462     0.000017009428     0.000008551962
       3       -0.003531647797     0.005457061816     0.002220093748
       4        0.000002259235    -0.000009147372     0.000003206268
       5       -0.002590198286     0.004890198705    -0.004274948809
       6        0.003407060801    -0.005389105964    -0.001176250059
       7       -0.000010873548     0.000000124386     0.000001545186
       8        0.000005153746     0.000008897764     0.000025651953
       9        0.002738389504    -0.004960064959     0.003177145369
      10        0.000001331316     0.000022393899     0.000004068170
      11       -0.000006596193    -0.000016030953    -0.000011365094
      12        0.000002396572    -0.000013804079     0.000008353599
      13       -0.000003004792     0.000010466086     0.000010048966
      14        0.000001624281    -0.000004195277     0.000002130455
      15        0.000006366451     0.000001930351    -0.000005949050
      16       -0.000003787956     0.000005569774     0.000004361409

  **** Optimization is complete! (in 6 steps) ****
    Final optimized geometry and variables:
    Molecular point group: c1

    Geometry (in Angstrom), charge = 0, multiplicity = 1:

    H            2.296150444177     1.913839087291    -0.159736682055
    N            1.441380323537     1.425074150311    -0.321045441936
    C            1.552277675884     0.045127415829     0.122173281585
    H            1.259026288528     1.472843328997    -1.301923038731
    C            0.242724824783    -0.753827876828     0.008239752346
    H            1.891046503130     0.034016398762     1.151667675454
    H            2.320187648731    -0.502593526353    -0.425490333967
    C           -1.050218489400     0.045068132661     0.132252670141
    H            0.248995638181    -1.340709454131    -0.906869914684
    H            0.258450317872    -1.502160530459     0.797171333075
    C           -2.285326953995    -0.850230512446     0.121557138436
    H           -1.121490787301     0.766723780677    -0.672502373456
    H           -1.026460080115     0.625488980810     1.048543862156
    H           -2.345469212379    -1.426424124988    -0.796352017999
    H           -3.193634689621    -0.264001931284     0.202331540942
    H           -2.270864257374    -1.552195916271     0.949002209462

  Mulliken Charges: (a.u.)
   Center  Symbol    Alpha    Beta     Spin     Total
       1     H     0.42908  0.42908  0.00000  0.14184
       2     N     3.68563  3.68563  0.00000 -0.37125
       3     C     3.03599  3.03599  0.00000 -0.07198
       4     H     0.43184  0.43184  0.00000  0.13632
       5     C     3.09989  3.09989  0.00000 -0.19977
       6     H     0.45551  0.45551  0.00000  0.08898
       7     H     0.46253  0.46253  0.00000  0.07493
       8     C     3.07133  3.07133  0.00000 -0.14266
       9     H     0.45293  0.45293  0.00000  0.09413
      10     H     0.45472  0.45472  0.00000  0.09056
      11     C     3.15137  3.15137  0.00000 -0.30274
      12     H     0.45557  0.45557  0.00000  0.08887
      13     H     0.45146  0.45146  0.00000  0.09708
      14     H     0.45711  0.45711  0.00000  0.08579
      15     H     0.44869  0.44869  0.00000  0.10262
      16     H     0.45637  0.45637  0.00000  0.08727

   Total alpha = 21.00000, Total beta = 21.00000, Total charge = -0.00000
