                              Psi4 1.0.54 Driver

  ==> Input File <==

--------------------------------------------------------------------------
set {
	reference rhf
	basis cc-pvtz
}

set_num_threads( 4 )
memory 2 gb

molecule MOL {
0 1

H	 1.719197	 0.253064	 -3.074091
O	 2.214660	 0.539601	 -2.327677
C	 1.471446	 0.522312	 -1.207001
C	 2.082303	 0.923317	 -0.027523
C	 0.151044	 0.126271	 -1.199974
H	 3.109878	 1.227410	 -0.055351
C	 1.371073	 0.926193	 1.150397
H	 -0.345121	 -0.187782	 -2.094673
C	 -0.532034	 0.141680	 0.000000
H	 1.851427	 1.237686	 2.057028
C	 0.043645	 0.532707	 1.182782
N	 -1.937041	 -0.281114	 0.000000
H	 -0.520819	 0.529805	 2.089476
O	 -2.159542	 -1.446261	 0.000000
O	 -2.764978	 0.565773	 0.000000

	symmetry c1
}
set optking {
	frozen_dihedral = ("
		11 9 12 14
	")
}

ee,wfn = optimize('scf', return_wfn=True)
oeprop( wfn, 'DIPOLE', 'QUADRUPOLE', 'MULLIKEN_CHARGES')
f=open( 'psi4out.xyz', 'w' )
f.write( "15  " )
f.write( str(ee) + "\n" )
f.write( MOL.save_string_xyz() )
f.close()
--------------------------------------------------------------------------

    Molecular point group: c1
  Charge       = 0
  Multiplicity = 1
  Basis Set: CC-PVTZ
  Basis Set:
  @DF-RHF Final Energy:  -509.20967405437250
    Total Energy =                       -509.2096740543724991
    Molecular point group: c1
  Basis Set: CC-PVTZ
  Basis Set:
  Basis Set: CC-PVTZ
  Basis Set:
  @DF-RHF Final Energy:  -509.20638900148469
    Total Energy =                       -509.2063890014846947
  Basis Set: CC-PVTZ
  Basis Set:
  Basis Set: CC-PVTZ
  Basis Set:
  @DF-RHF Final Energy:  -509.20887287180381
    Total Energy =                       -509.2088728718039192
  Basis Set: CC-PVTZ
  Basis Set:
  Basis Set: CC-PVTZ
  Basis Set:
  @DF-RHF Final Energy:  -509.20993686477601
    Total Energy =                       -509.2099368647757274
  Basis Set: CC-PVTZ
  Basis Set:
  Basis Set: CC-PVTZ
  Basis Set:
  @DF-RHF Final Energy:  -509.20995258678136
    Total Energy =                       -509.2099525867810144
  Basis Set: CC-PVTZ
  Basis Set:
  Charge       = 0
  Multiplicity = 1
  Basis Set: CC-PVTZ
  Basis Set:

    Orbital Energies (a.u.)
    -----------------------

    Doubly Occupied:

       1A    -20.610669     2A    -20.601050     3A    -20.600777
       4A    -15.851008     5A    -11.330839     6A    -11.314935
       7A    -11.265287     8A    -11.263978     9A    -11.257729
      10A    -11.250068    11A     -1.648540    12A     -1.443649
      13A     -1.431792    14A     -1.204634    15A     -1.096622
      16A     -1.050031    17A     -0.966825    18A     -0.887208
      19A     -0.834104    20A     -0.793960    21A     -0.768657
      22A     -0.741247    23A     -0.725056    24A     -0.712692
      25A     -0.672454    26A     -0.636120    27A     -0.623965
      28A     -0.596306    29A     -0.565863    30A     -0.550299
      31A     -0.538373    32A     -0.495719    33A     -0.487371
      34A     -0.461819    35A     -0.376517    36A     -0.346338

  @DF-RHF Final Energy:  -509.20996212642899

   => Energetics <=

    Nuclear Repulsion Energy =            503.8144002286201157
    One-Electron Energy =               -1694.0437280536759772
    Two-Electron Energy =                 681.0193656986268707
    DFT Exchange-Correlation Energy =       0.0000000000000000
    Empirical Dispersion Energy =           0.0000000000000000
    PCM Polarization Energy =               0.0000000000000000
    EFP Energy =                            0.0000000000000000
    Total Energy =                       -509.2099621264289908
    Molecular point group: c1
  Basis Set: CC-PVTZ
  Basis Set:

  -Total Gradient:
     Atom            X                  Y                   Z
    ------   -----------------  -----------------  -----------------
       1       -0.000004797885    -0.000000101621     0.000000823323
       2        0.000044495119    -0.000008239978    -0.000036970664
       3       -0.000113101301    -0.000010406122     0.000022192790
       4        0.000007505962     0.000001511272     0.000040640032
       5        0.000088211306     0.000064136760    -0.000063941826
       6       -0.000004783158     0.000004454065    -0.000002768554
       7        0.000043375183    -0.000021500989    -0.000005608821
       8       -0.000003740756    -0.000002041462     0.000015763262
       9       -0.000985785867     0.002814182528     0.000504145234
      10       -0.000001517987    -0.000000970100     0.000002653015
      11        0.000636388395    -0.001976544556     0.000284920992
      12        0.000315556840    -0.000793218434    -0.003216201289
      13        0.000000280338     0.000001842767    -0.000004870928
      14       -0.000000385084    -0.000036457598     0.002458644110
      15       -0.000021701095    -0.000036646538     0.000000579323

  **** Optimization is complete! (in 6 steps) ****
    Final optimized geometry and variables:
    Molecular point group: c1

    Geometry (in Angstrom), charge = 0, multiplicity = 1:

    H            1.773155445890     0.059282801624    -2.796729404923
    O            2.267516176744     0.343328681264    -2.048726849240
    C            1.530221029967     0.313256034351    -0.926935387295
    C            2.143795226860     0.703258582484     0.254630821910
    C            0.209616691948    -0.092117784328    -0.919450409638
    H            3.170482994705     1.009091322538     0.227389407615
    C            1.435188609351     0.689974798946     1.433569290797
    H           -0.282052211707    -0.413481397473    -1.817488174911
    C           -0.464786803288    -0.076257851560     0.279995972936
    H            1.918905572575     0.988433029498     2.343047999118
    C            0.106079255610     0.298070078544     1.465999396037
    N           -1.860717261548    -0.525488565206     0.284002306092
    H           -0.457026183007     0.290747783293     2.376839877633
    O           -2.048973004266    -1.694247532112     0.261263980464
    O           -2.696642586324     0.311528572351     0.326605590705

  Mulliken Charges: (a.u.)
   Center  Symbol    Alpha    Beta     Spin     Total
       1     H     0.38453  0.38453  0.00000  0.23094
       2     O     4.16722  4.16722  0.00000 -0.33444
       3     C     2.84109  2.84109  0.00000  0.31782
       4     C     3.10949  3.10949  0.00000 -0.21898
       5     C     3.13822  3.13822  0.00000 -0.27643
       6     H     0.41434  0.41434  0.00000  0.17131
       7     C     3.04834  3.04834  0.00000 -0.09669
       8     H     0.42375  0.42375  0.00000  0.15249
       9     C     2.91941  2.91941  0.00000  0.16118
      10     H     0.41630  0.41630  0.00000  0.16741
      11     C     3.10586  3.10586  0.00000 -0.21172
      12     N     3.29188  3.29188  0.00000  0.41624
      13     H     0.41474  0.41474  0.00000  0.17053
      14     O     4.16271  4.16271  0.00000 -0.32542
      15     O     4.16212  4.16212  0.00000 -0.32423

   Total alpha = 36.00000, Total beta = 36.00000, Total charge =  0.00000

*** Psi4 exiting successfully. Buy a developer a beer!
