  ==> Input File <==

--------------------------------------------------------------------------
set {
	reference rhf
	basis 6-31G*
}

set_num_threads( 1 )
memory 2 gb

molecule MOL {
0 1

O	 0.625848	 1.349995	 -0.000749
C	 0.486307	 0.169203	 0.000779
C	 1.608116	 -0.841643	 0.000302
O	 -0.698257	 -0.426125	 0.001050
C	 2.990107	 -0.200498	 -0.000684
H	 1.468623	 -1.481519	 -0.865924
H	 1.469683	 -1.481289	 0.866878
H	 3.129736	 0.423364	 -0.875135
H	 3.757882	 -0.966877	 -0.001197
H	 3.130964	 0.423383	 0.873533
C	 -1.384143	 -0.525776	 1.244847
C	 -2.696355	 -1.234543	 0.983964
H	 -1.538760	 0.467884	 1.642738
H	 -0.766979	 -1.072008	 1.945083
H	 -3.300421	 -0.677715	 0.276712
H	 -3.253945	 -1.332155	 1.909823
H	 -2.524527	 -2.226086	 0.580760

	symmetry c1
}
set optking {
	frozen_dihedral = ("
		2 4 11 13,
		4 2 3 6
	")
}

ee = energy('scf')
oeprop('DIPOLE', 'QUADRUPOLE', 'MULLIKEN_CHARGES')
f=open( 'psi4out.xyz', 'w' )
f.write( "17  " )
f.write( str(ee) + "\n" )
f.write( MOL.save_string_xyz() )
f.close()
--------------------------------------------------------------------------

    Molecular point group: c1

    Geometry (in Angstrom), charge = 0, multiplicity = 1:

       Center              X                  Y                   Z               Mass
    ------------   -----------------  -----------------  -----------------  -----------------
           O          0.503627936345     1.593037469373    -0.325613503786    15.994914619560
           C          0.364086936345     0.412245469373    -0.324085503786    12.000000000000
           C          1.485895936345    -0.598600530627    -0.324562503786    12.000000000000
           O         -0.820477063655    -0.183082530627    -0.323814503786    15.994914619560
           C          2.867886936345     0.042544469373    -0.325548503786    12.000000000000
           H          1.346402936345    -1.238476530627    -1.190788503786     1.007825032070
           H          1.347462936345    -1.238246530627     0.542013496214     1.007825032070
           H          3.007515936345     0.666406469373    -1.199999503786     1.007825032070
           H          3.635661936345    -0.723834530627    -0.326061503786     1.007825032070
           H          3.008743936345     0.666425469373     0.548668496214     1.007825032070
           C         -1.506363063655    -0.282733530627     0.919982496214    12.000000000000
           C         -2.818575063655    -0.991500530627     0.659099496214    12.000000000000
           H         -1.660980063655     0.710926469373     1.317873496214     1.007825032070
           H         -0.889199063655    -0.828965530627     1.620218496214     1.007825032070
           H         -3.422641063655    -0.434672530627    -0.048152503786     1.007825032070
           H         -3.376165063655    -1.089112530627     1.584958496214     1.007825032070
           H         -2.646747063655    -1.983043530627     0.255895496214     1.007825032070

  Charge       = 0
  Multiplicity = 1
  Basis Set: 6-31G*
  Basis Set:

    Orbital Energies (a.u.)
    -----------------------

    Doubly Occupied:

       1A    -20.584229     2A    -20.553149     3A    -11.372230
       4A    -11.297732     5A    -11.238422     6A    -11.226793
       7A    -11.215955     8A     -1.462302     9A     -1.365377
      10A     -1.066535    11A     -1.038089    12A     -0.905627
      13A     -0.864726    14A     -0.773392    15A     -0.699974
      16A     -0.685425    17A     -0.658870    18A     -0.633837
      19A     -0.603432    20A     -0.564146    21A     -0.556596
      22A     -0.530829    23A     -0.525413    24A     -0.519421
      25A     -0.505226    26A     -0.486390    27A     -0.451855
      28A     -0.433268

  @DF-RHF Final Energy:  -344.89266424682802

   => Energetics <=

    Nuclear Repulsion Energy =            315.2799374373935848
    One-Electron Energy =               -1094.7066518474916847
    Two-Electron Energy =                 434.5340501632701375
    DFT Exchange-Correlation Energy =       0.0000000000000000
    Empirical Dispersion Energy =           0.0000000000000000
    PCM Polarization Energy =               0.0000000000000000
    EFP Energy =                            0.0000000000000000
    Total Energy =                       -344.8926642468280193

  Mulliken Charges: (a.u.)
   Center  Symbol    Alpha    Beta     Spin     Total
       1     O     4.26186  4.26186  0.00000 -0.52373
       2     C     2.61293  2.61293  0.00000  0.77414
       3     C     3.20809  3.20809  0.00000 -0.41617
       4     O     4.31698  4.31698  0.00000 -0.63395
       5     C     3.23973  3.23973  0.00000 -0.47946
       6     H     0.39897  0.39897  0.00000  0.20207
       7     H     0.40769  0.40769  0.00000  0.18463
       8     H     0.40879  0.40879  0.00000  0.18242
       9     H     0.41899  0.41899  0.00000  0.16203
      10     H     0.41134  0.41134  0.00000  0.17732
      11     C     3.00390  3.00390  0.00000 -0.00779
      12     C     3.24732  3.24732  0.00000 -0.49463
      13     H     0.40741  0.40741  0.00000  0.18518
      14     H     0.42239  0.42239  0.00000  0.15521
      15     H     0.40590  0.40590  0.00000  0.18820
      16     H     0.41695  0.41695  0.00000  0.16610
      17     H     0.41078  0.41078  0.00000  0.17845

   Total alpha = 28.00000, Total beta = 28.00000, Total charge = -0.00000
