  ==> Input File <==

--------------------------------------------------------------------------
set {
	reference rhf
	basis 6-31G*
}

set_num_threads( 4 )
memory 2 gb

molecule MOL {
0 1

H	 -1.895537	 -0.589908	 0.876256
O	 -2.035884	 -0.060112	 0.102722
C	 -0.955155	 0.788182	 -0.092531
C	 0.353668	 0.040312	 -0.004810
H	 -0.985057	 1.290372	 -1.054184
H	 -0.974469	 1.533190	 0.688632
F	 0.394464	 -0.937475	 -0.903053
F	 1.368604	 0.853376	 -0.249821
F	 0.546173	 -0.502608	 1.179981

	symmetry c1
}
set optking {
	frozen_dihedral = ("
		1 2 3 5
	")
}

ee = optimize('scf')
oeprop('DIPOLE', 'QUADRUPOLE', 'MULLIKEN_CHARGES')
f=open( 'psi4out.xyz', 'w' )
f.write( "9  " )
f.write( str(ee) + "\n" )
f.write( MOL.save_string_xyz() )
f.close()
--------------------------------------------------------------------------

    Molecular point group: c1
  Charge       = 0
  Multiplicity = 1
  Basis Set: 6-31G*
  Basis Set:
  @DF-RHF Final Energy:  -450.65984964402884
    Total Energy =                       -450.6598496440288386
    Molecular point group: c1
  Basis Set: 6-31G*
  Basis Set:
  Basis Set: 6-31G*
  Basis Set:
  @DF-RHF Final Energy:  -450.66188901093182
    Total Energy =                       -450.6618890109318727
  Basis Set: 6-31G*
  Basis Set:
  Basis Set: 6-31G*
  Basis Set:
  @DF-RHF Final Energy:  -450.66225537881616
    Total Energy =                       -450.6622553788162122
  Basis Set: 6-31G*
  Basis Set:
  Basis Set: 6-31G*
  Basis Set:
  @DF-RHF Final Energy:  -450.66234027543578
    Total Energy =                       -450.6623402754355538
  Basis Set: 6-31G*
  Basis Set:
  Basis Set: 6-31G*
  Basis Set:
  @DF-RHF Final Energy:  -450.66235428775093
    Total Energy =                       -450.6623542877510999
  Basis Set: 6-31G*
  Basis Set:
  Charge       = 0
  Multiplicity = 1
  Basis Set: 6-31G*
  Basis Set:

    Orbital Energies (a.u.)
    -----------------------

    Doubly Occupied:

       1A    -26.347298     2A    -26.346209     3A    -26.341931
       4A    -20.589560     5A    -11.503123     6A    -11.309731
       7A     -1.743162     8A     -1.642308     9A     -1.639500
      10A     -1.401838    11A     -1.049262    12A     -0.925774
      13A     -0.833233    14A     -0.831480    15A     -0.810331
      16A     -0.724292    17A     -0.714640    18A     -0.694781
      19A     -0.667153    20A     -0.662360    21A     -0.645531
      22A     -0.630632    23A     -0.620094    24A     -0.529108
      25A     -0.479862

  @DF-RHF Final Energy:  -450.66235485336216

   => Energetics <=

    Nuclear Repulsion Energy =            277.2932419278556040
    One-Electron Energy =               -1176.5448038325628204
    Two-Electron Energy =                 448.5892070513451699
    DFT Exchange-Correlation Energy =       0.0000000000000000
    Empirical Dispersion Energy =           0.0000000000000000
    PCM Polarization Energy =               0.0000000000000000
    EFP Energy =                            0.0000000000000000
    Total Energy =                       -450.6623548533619896
    Molecular point group: c1
  Basis Set: 6-31G*
  Basis Set:

  -Total Gradient:
     Atom            X                  Y                   Z
    ------   -----------------  -----------------  -----------------
       1        0.000932316230    -0.001555290891    -0.001082125707
       2       -0.000974260846     0.001528456062     0.001231927425
       3       -0.000951193987     0.001403663668     0.000574065825
       4        0.000072562319    -0.000035521776    -0.000148770458
       5        0.000986703820    -0.001381114928    -0.000678101467
       6       -0.000015581283     0.000018163763    -0.000003652806
       7       -0.000048731927    -0.000054884333    -0.000026547840
       8        0.000003008858     0.000058654029     0.000070045636
       9       -0.000004823180     0.000017874407     0.000063159389

  **** Optimization is complete! (in 6 steps) ****
    Final optimized geometry and variables:
    Molecular point group: c1

    Geometry (in Angstrom), charge = 0, multiplicity = 1:

    H           -1.906264028482    -0.557871209391     0.913778035572
    O           -2.037802435670    -0.062796015587     0.115484093396
    C           -0.960043175365     0.784248596312    -0.103332203566
    C            0.351752837799     0.038378578501    -0.042368945655
    H           -1.058653536531     1.194115079196    -1.097420824662
    H           -0.913814062233     1.595595625369     0.615758553586
    F            0.456060088476    -0.876336336924    -0.985455242798
    F            1.368496507093     0.873617771626    -0.169159385911
    F            0.481060478194    -0.582404972177     1.126494291381

  Mulliken Charges: (a.u.)
   Center  Symbol    Alpha    Beta     Spin     Total
       1     H     0.27234  0.27234  0.00000  0.45532
       2     O     4.36407  4.36407  0.00000 -0.72814
       3     C     3.04483  3.04483  0.00000 -0.08965
       4     C     2.47104  2.47104  0.00000  1.05793
       5     H     0.39631  0.39631  0.00000  0.20738
       6     H     0.40958  0.40958  0.00000  0.18083
       7     F     4.67485  4.67485  0.00000 -0.34971
       8     F     4.68030  4.68030  0.00000 -0.36059
       9     F     4.68668  4.68668  0.00000 -0.37337

   Total alpha = 25.00000, Total beta = 25.00000, Total charge = -0.00000
