  ==> Input File <==

--------------------------------------------------------------------------
set {
	reference rhf
	basis 6-31G*
}

set_num_threads( 1 )
memory 2 gb

molecule MOL {
0 1

H	 1.136379	 0.211822	 1.465562
C	 1.135357	 0.094285	 0.374742
C	 0.065331	 0.871482	 -0.349150
O	 1.941633	 -0.601957	 -0.151457
C	 -1.318185	 0.216975	 -0.226735
H	 0.362812	 0.978760	 -1.385928
H	 0.032703	 1.865326	 0.095115
C	 -1.415356	 -1.129845	 -0.944409
H	 -2.058494	 0.898281	 -0.633890
H	 -1.567105	 0.092066	 0.824967
H	 -1.204314	 -1.021504	 -2.003772
H	 -2.410686	 -1.549967	 -0.843749
H	 -0.710709	 -1.852021	 -0.542755

	symmetry c1
}
set optking {
	frozen_dihedral = ("
		6 3 5 9
	")
}

ee = energy('scf')
oeprop('DIPOLE', 'QUADRUPOLE', 'MULLIKEN_CHARGES')
f=open( 'psi4out.xyz', 'w' )
f.write( "13  " )
f.write( str(ee) + "\n" )
f.write( MOL.save_string_xyz() )
f.close()
--------------------------------------------------------------------------

    Molecular point group: c1

    Geometry (in Angstrom), charge = 0, multiplicity = 1:

       Center              X                  Y                   Z               Mass
    ------------   -----------------  -----------------  -----------------  -----------------
           H          1.050442481821     0.341908025412     1.732255657626     1.007825032070
           C          1.049420481821     0.224371025412     0.641435657626    12.000000000000
           C         -0.020605518179     1.001568025412    -0.082456342374    12.000000000000
           O          1.855696481821    -0.471870974588     0.115236657626    15.994914619560
           C         -1.404121518179     0.347061025412     0.039958657626    12.000000000000
           H          0.276875481821     1.108846025412    -1.119234342374     1.007825032070
           H         -0.053233518179     1.995412025412     0.361808657626     1.007825032070
           C         -1.501292518179    -0.999758974588    -0.677715342374    12.000000000000
           H         -2.144430518179     1.028367025412    -0.367196342374     1.007825032070
           H         -1.653041518179     0.222152025412     1.091660657626     1.007825032070
           H         -1.290250518179    -0.891417974588    -1.737078342374     1.007825032070
           H         -2.496622518179    -1.419880974588    -0.577055342374     1.007825032070
           H         -0.796645518179    -1.721934974588    -0.276061342374     1.007825032070

  Charge       = 0
  Multiplicity = 1
  Basis Set: 6-31G*
  Basis Set:

    Orbital Energies (a.u.)
    -----------------------

    Doubly Occupied:

       1A    -20.563781     2A    -11.327150     3A    -11.238986
       4A    -11.235548     5A    -11.217464     6A     -1.403658
       7A     -1.084967     8A     -0.972253     9A     -0.847091
      10A     -0.785493    11A     -0.671169    12A     -0.650179
      13A     -0.617998    14A     -0.594214    15A     -0.558951
      16A     -0.530532    17A     -0.505533    18A     -0.491998
      19A     -0.480840    20A     -0.410019

  @DF-RHF Final Energy:  -230.98407484783272

   => Energetics <=

    Nuclear Repulsion Energy =            174.7467461048810549
    One-Electron Energy =                -659.0859641420067874
    Two-Electron Energy =                 253.3551431892931873
    DFT Exchange-Correlation Energy =       0.0000000000000000
    Empirical Dispersion Energy =           0.0000000000000000
    PCM Polarization Energy =               0.0000000000000000
    EFP Energy =                            0.0000000000000000
    Total Energy =                       -230.9840748478325736

  Mulliken Charges: (a.u.)
   Center  Symbol    Alpha    Beta     Spin     Total
       1     H     0.43127  0.43127  0.00000  0.13747
       2     C     2.83578  2.83578  0.00000  0.32845
       3     C     3.20360  3.20360  0.00000 -0.40719
       4     O     4.23572  4.23572  0.00000 -0.47145
       5     C     3.16433  3.16433  0.00000 -0.32866
       6     H     0.40032  0.40032  0.00000  0.19936
       7     H     0.41240  0.41240  0.00000  0.17520
       8     C     3.24203  3.24203  0.00000 -0.48407
       9     H     0.41160  0.41160  0.00000  0.17679
      10     H     0.41824  0.41824  0.00000  0.16351
      11     H     0.41619  0.41619  0.00000  0.16762
      12     H     0.41692  0.41692  0.00000  0.16617
      13     H     0.41160  0.41160  0.00000  0.17680

   Total alpha = 20.00000, Total beta = 20.00000, Total charge =  0.00000
