                              Psi4 1.0.54 Driver

  ==> Input File <==

--------------------------------------------------------------------------
set {
	reference rhf
	basis cc-pvtz
}

set_num_threads( 4 )
memory 2 gb

molecule MOL {
0 1

H	 -2.644180	 -0.653737	 1.272255
C	 -2.092774	 -0.380414	 0.391915
O	 -0.808934	 -0.154049	 0.752536
F	 -2.163230	 -1.351640	 -0.507133
F	 -2.627232	 0.691260	 -0.169301
C	 0.085006	 0.250800	 -0.215074
C	 1.370439	 -0.548013	 -0.012993
Cl	 0.421658	 1.987697	 -0.091007
H	 -0.272219	 0.063284	 -1.212508
F	 1.350070	 -1.639255	 -0.735349
F	 1.461001	 -0.899535	 1.247779
F	 2.434638	 0.139980	 -0.323472

	symmetry c1
}
set optking {
	frozen_dihedral = ("
		10 7 6 9
	")
}

ee,wfn = optimize('scf', return_wfn=True)
oeprop( wfn, 'DIPOLE', 'QUADRUPOLE', 'MULLIKEN_CHARGES')
f=open( 'psi4out.xyz', 'w' )
f.write( "12  " )
f.write( str(ee) + "\n" )
f.write( MOL.save_string_xyz() )
f.close()
--------------------------------------------------------------------------

    Molecular point group: c1
  Charge       = 0
  Multiplicity = 1
  Basis Set: CC-PVTZ
  Basis Set:
  @DF-RHF Final Energy: -1146.61348652352717
    Total Energy =                      -1146.6134865235283087
    Molecular point group: c1
  Basis Set: CC-PVTZ
  Basis Set:
  Basis Set: CC-PVTZ
  Basis Set:
  @DF-RHF Final Energy: -1146.61412170863014
    Total Energy =                      -1146.6141217086310462
  Basis Set: CC-PVTZ
  Basis Set:
  Basis Set: CC-PVTZ
  Basis Set:
  @DF-RHF Final Energy: -1146.61556257723259
    Total Energy =                      -1146.6155625772332769
  Basis Set: CC-PVTZ
  Basis Set:
  Basis Set: CC-PVTZ
  Basis Set:
  @DF-RHF Final Energy: -1146.61562912588806
    Total Energy =                      -1146.6156291258880628
  Basis Set: CC-PVTZ
  Basis Set:
  Basis Set: CC-PVTZ
  Basis Set:
  @DF-RHF Final Energy: -1146.61564071178327
    Total Energy =                      -1146.6156407117830440
  Basis Set: CC-PVTZ
  Basis Set:
  Basis Set: CC-PVTZ
  Basis Set:
  @DF-RHF Final Energy: -1146.61564297083896
    Total Energy =                      -1146.6156429708389624
  Basis Set: CC-PVTZ
  Basis Set:
  Charge       = 0
  Multiplicity = 1
  Basis Set: CC-PVTZ
  Basis Set:

    Orbital Energies (a.u.)
    -----------------------

    Doubly Occupied:

       1A   -104.857430     2A    -26.355064     3A    -26.353723
       4A    -26.351948     5A    -26.342624     6A    -26.342412
       7A    -20.639336     8A    -11.521439     9A    -11.482806
      10A    -11.401489    11A    -10.583001    12A     -8.049805
      13A     -8.047797    14A     -8.047736    15A     -1.768128
      16A     -1.723863    17A     -1.663990    18A     -1.659372
      19A     -1.644017    20A     -1.485006    21A     -1.177618
      22A     -1.052525    23A     -0.989556    24A     -0.924108
      25A     -0.863547    26A     -0.857669    27A     -0.851846
      28A     -0.829383    29A     -0.817407    30A     -0.794780
      31A     -0.731528    32A     -0.731214    33A     -0.711722
      34A     -0.708162    35A     -0.683713    36A     -0.681431
      37A     -0.664983    38A     -0.663439    39A     -0.650022
      40A     -0.637109    41A     -0.597797    42A     -0.581083
      43A     -0.525654    44A     -0.477754    45A     -0.470623

  @DF-RHF Final Energy: -1146.61564357207362

   => Energetics <=

    Nuclear Repulsion Energy =            736.9724769668331419
    One-Electron Energy =               -3057.1849179339042166
    Two-Electron Energy =                1173.5967973949977932
    DFT Exchange-Correlation Energy =       0.0000000000000000
    Empirical Dispersion Energy =           0.0000000000000000
    PCM Polarization Energy =               0.0000000000000000
    EFP Energy =                            0.0000000000000000
    Total Energy =                      -1146.6156435720731679
    Molecular point group: c1
  Basis Set: CC-PVTZ
  Basis Set:

  -Total Gradient:
     Atom            X                  Y                   Z
    ------   -----------------  -----------------  -----------------
       1       -0.000021494167    -0.000038735411    -0.000048379255
       2        0.000228770901     0.000037791275    -0.000045876039
       3       -0.000020877050    -0.000031785554     0.000276562271
       4       -0.000074881405     0.000003145530     0.000072041808
       5       -0.000152768305    -0.000010365335    -0.000017571881
       6        0.005441027461     0.007977058991    -0.004872084896
       7       -0.004183765837    -0.004910612623     0.006869346541
       8        0.000077832876     0.000026242912     0.000073747297
       9       -0.003913817125    -0.005812262061     0.002614188986
      10        0.002607940055     0.002761474631    -0.004857020381
      11       -0.000000540585    -0.000102175535     0.000006450000
      12        0.000012573175     0.000100223274    -0.000071404448

  **** Optimization is complete! (in 7 steps) ****
    Final optimized geometry and variables:
    Molecular point group: c1

    Geometry (in Angstrom), charge = 0, multiplicity = 1:

    H           -2.646876361699    -0.744223600041     1.207198858592
    C           -2.086771836456    -0.422871533036     0.348707692014
    O           -0.812373279713    -0.196793378251     0.737549158678
    F           -2.131011449888    -1.354839292347    -0.594070464159
    F           -2.632088593202     0.663847597962    -0.172304085064
    C            0.091406758848     0.273817174464    -0.200116924924
    C            1.388504985183    -0.535229833095    -0.010547457818
    CL           0.356472120883     2.009346790803    -0.000714611942
    H           -0.273440270403     0.077824820965    -1.192370524243
    F            1.308777197123    -1.622044641011    -0.747614220483
    F            1.582500316985    -0.880007182223     1.229941449356
    F            2.437865335504     0.127847233789    -0.423565344796

  Mulliken Charges: (a.u.)
   Center  Symbol    Alpha    Beta     Spin     Total
       1     H     0.45214  0.45214  0.00000  0.09573
       2     C     2.74008  2.74008  0.00000  0.51984
       3     O     4.15472  4.15472  0.00000 -0.30944
       4     F     4.61879  4.61879  0.00000 -0.23758
       5     F     4.61524  4.61524  0.00000 -0.23048
       6     C     2.94873  2.94873  0.00000  0.10254
       7     C     2.66790  2.66790  0.00000  0.66420
       8    CL     8.56863  8.56863  0.00000 -0.13726
       9     H     0.43084  0.43084  0.00000  0.13832
      10     F     4.60665  4.60665  0.00000 -0.21331
      11     F     4.59667  4.59667  0.00000 -0.19335
      12     F     4.59961  4.59961  0.00000 -0.19922

   Total alpha = 45.00000, Total beta = 45.00000, Total charge = -0.00000

*** Psi4 exiting successfully. Buy a developer a beer!
