                              Psi4 1.0.54 Driver

  ==> Input File <==

--------------------------------------------------------------------------
set {
	reference rhf
	basis cc-pvtz
}

set_num_threads( 4 )
memory 2 gb

molecule MOL {
0 1

H	 -2.644180	 -0.653737	 1.272255
C	 -2.092774	 -0.380414	 0.391915
O	 -0.808934	 -0.154049	 0.752536
F	 -2.163230	 -1.351640	 -0.507133
F	 -2.627232	 0.691260	 -0.169301
C	 0.028216	 -1.235870	 0.920298
C	 0.828924	 -1.000487	 2.198868
Cl	 1.125973	 -1.417772	 -0.460781
H	 -0.509135	 -2.161817	 1.027646
F	 1.637532	 -2.004620	 2.424463
F	 -0.000120	 -0.913680	 3.212014
F	 1.530026	 0.098678	 2.148448

	symmetry c1
}
set optking {
	frozen_dihedral = ("
		6 3 2 4
	")
}

ee,wfn = optimize('scf', return_wfn=True)
oeprop( wfn, 'DIPOLE', 'QUADRUPOLE', 'MULLIKEN_CHARGES')
f=open( 'psi4out.xyz', 'w' )
f.write( "12  " )
f.write( str(ee) + "\n" )
f.write( MOL.save_string_xyz() )
f.close()
--------------------------------------------------------------------------

    Molecular point group: c1
  Charge       = 0
  Multiplicity = 1
  Basis Set: CC-PVTZ
  Basis Set:
  @DF-RHF Final Energy: -1146.61356925543760
    Total Energy =                      -1146.6135692554364596
    Molecular point group: c1
  Basis Set: CC-PVTZ
  Basis Set:
  Basis Set: CC-PVTZ
  Basis Set:
  @DF-RHF Final Energy: -1146.61530041926812
    Total Energy =                      -1146.6153004192678964
  Basis Set: CC-PVTZ
  Basis Set:
  Basis Set: CC-PVTZ
  Basis Set:
  @DF-RHF Final Energy: -1146.61574393915453
    Total Energy =                      -1146.6157439391533899
  Basis Set: CC-PVTZ
  Basis Set:
  Basis Set: CC-PVTZ
  Basis Set:
  @DF-RHF Final Energy: -1146.61578459040516
    Total Energy =                      -1146.6157845904056103
  Basis Set: CC-PVTZ
  Basis Set:
  Basis Set: CC-PVTZ
  Basis Set:
  @DF-RHF Final Energy: -1146.61578824653975
    Total Energy =                      -1146.6157882465397506
  Basis Set: CC-PVTZ
  Basis Set:
  Basis Set: CC-PVTZ
  Basis Set:
  @DF-RHF Final Energy: -1146.61579162415660
    Total Energy =                      -1146.6157916241570547
  Basis Set: CC-PVTZ
  Basis Set:
  Basis Set: CC-PVTZ
  Basis Set:
  @DF-RHF Final Energy: -1146.61579557719210
    Total Energy =                      -1146.6157955771918751
  Basis Set: CC-PVTZ
  Basis Set:
  Charge       = 0
  Multiplicity = 1
  Basis Set: CC-PVTZ
  Basis Set:

    Orbital Energies (a.u.)
    -----------------------

    Doubly Occupied:

       1A   -104.857132     2A    -26.358607     3A    -26.358180
       4A    -26.355995     5A    -26.347045     6A    -26.343599
       7A    -20.638915     8A    -11.522988     9A    -11.486799
      10A    -11.404541    11A    -10.582646    12A     -8.049438
      13A     -8.047444    14A     -8.047369    15A     -1.771178
      16A     -1.727298    17A     -1.666131    18A     -1.664985
      19A     -1.650431    20A     -1.485744    21A     -1.177954
      22A     -1.053056    23A     -0.991407    24A     -0.932168
      25A     -0.865987    26A     -0.858643    27A     -0.848428
      28A     -0.843480    29A     -0.824542    30A     -0.795932
      31A     -0.737784    32A     -0.735297    33A     -0.708867
      34A     -0.704967    35A     -0.688690    36A     -0.684203
      37A     -0.670393    38A     -0.667801    39A     -0.650189
      40A     -0.638465    41A     -0.617363    42A     -0.575475
      43A     -0.515937    44A     -0.478221    45A     -0.470687

  @DF-RHF Final Energy: -1146.61579649363239

   => Energetics <=

    Nuclear Repulsion Energy =            731.1017877947305124
    One-Electron Energy =               -3045.2303673791161600
    Two-Electron Energy =                1167.5127830907529187
    DFT Exchange-Correlation Energy =       0.0000000000000000
    Empirical Dispersion Energy =           0.0000000000000000
    PCM Polarization Energy =               0.0000000000000000
    EFP Energy =                            0.0000000000000000
    Total Energy =                      -1146.6157964936326152
    Molecular point group: c1
  Basis Set: CC-PVTZ
  Basis Set:

  -Total Gradient:
     Atom            X                  Y                   Z
    ------   -----------------  -----------------  -----------------
       1       -0.000001844848    -0.000027595458    -0.000002429349
       2        0.000200172958     0.001511995739    -0.002236085512
       3       -0.000499393061    -0.000583580506     0.002609607697
       4       -0.000026709947    -0.001051202852     0.001089721026
       5        0.000021218149    -0.000015689278     0.000037564408
       6        0.000322783292     0.000197561728    -0.001465091269
       7        0.000055706103     0.000012983944    -0.000008210248
       8       -0.000032471164    -0.000012853303    -0.000023817863
       9        0.000005874419    -0.000013694711     0.000006299505
      10       -0.000016881965     0.000005432146     0.000005124847
      11       -0.000008227495     0.000002132439    -0.000005046680
      12       -0.000020226372    -0.000025489955    -0.000007636674

  **** Optimization is complete! (in 8 steps) ****
    Final optimized geometry and variables:
    Molecular point group: c1

    Geometry (in Angstrom), charge = 0, multiplicity = 1:

    H           -2.602944979635     0.136228888109     0.287216679950
    C           -1.990734252395     0.437693374994    -0.549123871062
    O           -0.696467321595     0.661464350053    -0.184068327132
    F           -2.061349736611    -0.500094489366    -1.481400724178
    F           -2.445563311213     1.558507443202    -1.047566273210
    C            0.156535821578    -0.404765139041    -0.055936675877
    C            0.945329507021    -0.207214696388     1.236043954743
    CL           1.261121197213    -0.521144522965    -1.438665742170
    H           -0.358218766791    -1.348017062974     0.013604695378
    F            1.768056665362    -1.205671295773     1.431645993703
    F            0.098398431900    -0.180714159296     2.242401070781
    F            1.624095482920     0.904677190510     1.243419157407

  Mulliken Charges: (a.u.)
   Center  Symbol    Alpha    Beta     Spin     Total
       1     H     0.47191  0.47191  0.00000  0.05618
       2     C     2.74551  2.74551  0.00000  0.50899
       3     O     4.14903  4.14903  0.00000 -0.29807
       4     F     4.61545  4.61545  0.00000 -0.23090
       5     F     4.59832  4.59832  0.00000 -0.19664
       6     C     2.93654  2.93654  0.00000  0.12691
       7     C     2.66712  2.66712  0.00000  0.66576
       8    CL     8.57364  8.57364  0.00000 -0.14729
       9     H     0.43332  0.43332  0.00000  0.13337
      10     F     4.60207  4.60207  0.00000 -0.20414
      11     F     4.60887  4.60887  0.00000 -0.21774
      12     F     4.59822  4.59822  0.00000 -0.19644

   Total alpha = 45.00000, Total beta = 45.00000, Total charge =  0.00000

*** Psi4 exiting successfully. Buy a developer a beer!
