                              Psi4 1.0.54 Driver

  ==> Input File <==

--------------------------------------------------------------------------
set {
	reference rhf
	basis cc-pvtz
}

set_num_threads( 4 )
memory 2 gb

molecule MOL {
0 1

O	 -0.988175	 -1.402891	 0.050086
C	 -0.675048	 -0.248293	 -0.009686
C	 -1.742492	 0.826599	 -0.011538
N	 0.622280	 0.144970	 -0.099307
H	 -1.692153	 1.431066	 -0.908439
H	 -2.698310	 0.331559	 0.031353
H	 -1.642148	 1.483784	 0.843455
C	 0.918947	 1.462461	 -0.620993
C	 1.745635	 -0.758997	 -0.030969
H	 1.745738	 1.891932	 -0.068548
H	 0.055453	 2.094273	 -0.519147
H	 1.196668	 1.418150	 -1.671012
H	 2.585369	 -0.249217	 0.423572
H	 1.525271	 -1.623631	 0.571313
H	 2.055580	 -1.096732	 -1.017332

	symmetry c1
}
set optking {
	frozen_dihedral = ("
		8 4 2 3
	")
}

ee,wfn = optimize('scf', return_wfn=True)
oeprop( wfn, 'DIPOLE', 'QUADRUPOLE', 'MULLIKEN_CHARGES')
f=open( 'psi4out.xyz', 'w' )
f.write( "15  " )
f.write( str(ee) + "\n" )
f.write( MOL.save_string_xyz() )
f.close()
--------------------------------------------------------------------------

    Molecular point group: c1
  Charge       = 0
  Multiplicity = 1
  Basis Set: CC-PVTZ
  Basis Set:
  @DF-RHF Final Energy:  -286.13020724791772
    Total Energy =                       -286.1302072479176104
    Molecular point group: c1
  Basis Set: CC-PVTZ
  Basis Set:
  Basis Set: CC-PVTZ
  Basis Set:
  @DF-RHF Final Energy:  -286.12649962675295
    Total Energy =                       -286.1264996267526612
  Basis Set: CC-PVTZ
  Basis Set:
  Basis Set: CC-PVTZ
  Basis Set:
  @DF-RHF Final Energy:  -286.13458340467275
    Total Energy =                       -286.1345834046726964
  Basis Set: CC-PVTZ
  Basis Set:
  Basis Set: CC-PVTZ
  Basis Set:
  @DF-RHF Final Energy:  -286.13464149326853
    Total Energy =                       -286.1346414932687594
  Basis Set: CC-PVTZ
  Basis Set:
  @DF-RHF Final Energy:  -286.13539607012331
    Total Energy =                       -286.1353960701231927
  @DF-RHF Final Energy:  -286.13546498601511
    Total Energy =                       -286.1354649860152222
  Basis Set: CC-PVTZ
  Basis Set:
  @DF-RHF Final Energy:  -286.13547507401802
    Total Energy =                       -286.1354750740182453
  Basis Set: CC-PVTZ
  Basis Set:
  Basis Set: CC-PVTZ
  Basis Set:
  @DF-RHF Final Energy:  -286.13548301028237
    Total Energy =                       -286.1354830102823144
  Basis Set: CC-PVTZ
  Basis Set:
  Basis Set: CC-PVTZ
  Basis Set:
  @DF-RHF Final Energy:  -286.13548601640963
    Total Energy =                       -286.1354860164095726
  Basis Set: CC-PVTZ
  Basis Set:
  Charge       = 0
  Multiplicity = 1
  Basis Set: CC-PVTZ
  Basis Set:

    Orbital Energies (a.u.)
    -----------------------

    Doubly Occupied:

       1A    -20.506175     2A    -15.577817     3A    -11.335072
       4A    -11.263702     5A    -11.246200     6A    -11.226634
       7A     -1.389227     8A     -1.245793     9A     -1.015004
      10A     -0.972576    11A     -0.919477    12A     -0.738593
      13A     -0.683167    14A     -0.661448    15A     -0.653747
      16A     -0.590743    17A     -0.578703    18A     -0.568487
      19A     -0.561758    20A     -0.547199    21A     -0.529963
      22A     -0.506074    23A     -0.415478    24A     -0.372226

  @DF-RHF Final Energy:  -286.13548694338249

   => Energetics <=

    Nuclear Repulsion Energy =            253.0378889856828835
    One-Electron Energy =                -890.1362249283876054
    Two-Electron Energy =                 350.9628489993222615
    DFT Exchange-Correlation Energy =       0.0000000000000000
    Empirical Dispersion Energy =           0.0000000000000000
    PCM Polarization Energy =               0.0000000000000000
    EFP Energy =                            0.0000000000000000
    Total Energy =                       -286.1354869433824319
    Molecular point group: c1
  Basis Set: CC-PVTZ
  Basis Set:

  -Total Gradient:
     Atom            X                  Y                   Z
    ------   -----------------  -----------------  -----------------
       1       -0.000004290602    -0.000035282649    -0.000019047091
       2       -0.000105144918     0.000058138105    -0.001772279152
       3        0.000060428804    -0.000098306152     0.000873562736
       4        0.000011205542     0.000269985651     0.001864570103
       5        0.000004045405    -0.000003166314    -0.000033643022
       6       -0.000018153933    -0.000008827097     0.000001177114
       7       -0.000004146823     0.000005606386    -0.000002824571
       8        0.000051769082    -0.000200536069    -0.000901893230
       9       -0.000010345507     0.000019212828     0.000001953217
      10        0.000001475106     0.000000517134     0.000002106206
      11        0.000003177799    -0.000000483527    -0.000001967748
      12        0.000001810716     0.000001909214    -0.000004786105
      13        0.000009472743    -0.000001402901     0.000004112447
      14       -0.000000490204    -0.000004296189     0.000003471182
      15       -0.000000813207    -0.000003068422    -0.000014512083

  **** Optimization is complete! (in 10 steps) ****
    Final optimized geometry and variables:
    Molecular point group: c1

    Geometry (in Angstrom), charge = 0, multiplicity = 1:

    O           -0.949382260651    -1.418445370471     0.005575833604
    C           -0.661063301825    -0.259836898349     0.091053040830
    C           -1.744016442903     0.781035009899     0.284336295125
    N            0.632246790637     0.164308533737     0.063954700912
    H           -1.813789837851     1.437010528147    -0.575069236376
    H           -2.678069489037     0.257339310778     0.403114507031
    H           -1.556598379869     1.390177138422     1.159127963196
    C            1.009192748451     1.531849698356    -0.209548342287
    C            1.662162609111    -0.820750143893    -0.196005747883
    H            1.955988002972     1.742718880367     0.269853600842
    H            0.285362353349     2.228003052603     0.178762063874
    H            1.126109505529     1.716029306252    -1.275389130051
    H            2.584719636067    -0.498886797710     0.269508012608
    H            1.368845259843    -1.770882192334     0.213459468288
    H            1.839661905473    -0.945469373056    -1.261302230019

  Mulliken Charges: (a.u.)
   Center  Symbol    Alpha    Beta     Spin     Total
       1     O     4.21761  4.21761  0.00000 -0.43522
       2     C     2.84422  2.84422  0.00000  0.31156
       3     C     3.16072  3.16072  0.00000 -0.32143
       4     N     3.56623  3.56623  0.00000 -0.13246
       5     H     0.44881  0.44881  0.00000  0.10237
       6     H     0.42873  0.42873  0.00000  0.14254
       7     H     0.44853  0.44853  0.00000  0.10294
       8     C     3.09575  3.09575  0.00000 -0.19149
       9     C     3.09614  3.09614  0.00000 -0.19228
      10     H     0.44864  0.44864  0.00000  0.10273
      11     H     0.44534  0.44534  0.00000  0.10933
      12     H     0.45560  0.45560  0.00000  0.08880
      13     H     0.45680  0.45680  0.00000  0.08640
      14     H     0.42912  0.42912  0.00000  0.14177
      15     H     0.45777  0.45777  0.00000  0.08445

   Total alpha = 24.00000, Total beta = 24.00000, Total charge = -0.00000

*** Psi4 exiting successfully. Buy a developer a beer!
