  ==> Input File <==

--------------------------------------------------------------------------
set {
	reference rhf
	basis 6-31G*
}

set_num_threads( 1 )
memory 2 gb

molecule MOL {
0 1

O	 -3.408300	 0.116241	 -0.931597
C	 -2.668563	 0.129746	 -0.000350
C	 -2.977175	 0.812312	 1.307369
O	 -1.481751	 -0.454642	 0.000584
H	 -3.888003	 0.389438	 1.714102
H	 -2.171925	 0.703151	 2.018773
H	 -3.160348	 1.863007	 1.116666
C	 -0.334255	 0.388708	 0.000906
C	 0.891947	 -0.504646	 0.000751
H	 -0.365390	 1.025305	 -0.873475
H	 -0.365484	 1.024911	 0.875569
C	 2.191998	 0.301789	 0.000897
H	 0.855148	 -1.151283	 -0.871571
H	 0.855132	 -1.151660	 0.872805
C	 3.441114	 -0.581407	 0.000108
H	 2.215074	 0.954890	 -0.869742
H	 2.215465	 0.953923	 0.872248
C	 4.739576	 0.224112	 -0.001102
H	 3.419457	 -1.233487	 -0.870178
H	 3.420834	 -1.233096	 0.870717
H	 4.804918	 0.861552	 -0.878265
H	 5.606527	 -0.429058	 -0.001824
H	 4.806469	 0.861674	 0.875853

	symmetry c1
}
set optking {
	frozen_dihedral = ("
		13 9 8 10,
		2 4 8 10,
		16 12 9 13,
		19 15 12 16
	")
}

ee = energy('scf')
oeprop('DIPOLE', 'QUADRUPOLE', 'MULLIKEN_CHARGES')
f=open( 'psi4out.xyz', 'w' )
f.write( "23  " )
f.write( str(ee) + "\n" )
f.write( MOL.save_string_xyz() )
f.close()
--------------------------------------------------------------------------

    Molecular point group: c1

    Geometry (in Angstrom), charge = 0, multiplicity = 1:

       Center              X                  Y                   Z               Mass
    ------------   -----------------  -----------------  -----------------  -----------------
           O         -3.435897517971     0.060123497442    -0.975418247303    15.994914619560
           C         -2.696160517971     0.073628497442    -0.044171247303    12.000000000000
           C         -3.004772517971     0.756194497442     1.263547752697    12.000000000000
           O         -1.509348517971    -0.510759502558    -0.043237247303    15.994914619560
           H         -3.915600517971     0.333320497442     1.670280752697     1.007825032070
           H         -2.199522517971     0.647033497442     1.974951752697     1.007825032070
           H         -3.187945517971     1.806889497442     1.072844752697     1.007825032070
           C         -0.361852517971     0.332590497442    -0.042915247303    12.000000000000
           C          0.864349482029    -0.560763502558    -0.043070247303    12.000000000000
           H         -0.392987517971     0.969187497442    -0.917296247303     1.007825032070
           H         -0.393081517971     0.968793497442     0.831747752697     1.007825032070
           C          2.164400482029     0.245671497442    -0.042924247303    12.000000000000
           H          0.827550482029    -1.207400502558    -0.915392247303     1.007825032070
           H          0.827534482029    -1.207777502558     0.828983752697     1.007825032070
           C          3.413516482029    -0.637524502558    -0.043713247303    12.000000000000
           H          2.187476482029     0.898772497442    -0.913563247303     1.007825032070
           H          2.187867482029     0.897805497442     0.828426752697     1.007825032070
           C          4.711978482029     0.167994497442    -0.044923247303    12.000000000000
           H          3.391859482029    -1.289604502558    -0.913999247303     1.007825032070
           H          3.393236482029    -1.289213502558     0.826895752697     1.007825032070
           H          4.777320482029     0.805434497442    -0.922086247303     1.007825032070
           H          5.578929482029    -0.485175502558    -0.045645247303     1.007825032070
           H          4.778871482029     0.805556497442     0.832031752697     1.007825032070

  Charge       = 0
  Multiplicity = 1
  Basis Set: 6-31G*
  Basis Set:

    Orbital Energies (a.u.)
    -----------------------

    Doubly Occupied:

       1A    -20.586938     2A    -20.549194     3A    -11.375229
       4A    -11.297644     5A    -11.233858     6A    -11.230464
       7A    -11.229155     8A    -11.225341     9A    -11.216136
      10A     -1.461950    11A     -1.365956    12A     -1.098237
      13A     -1.038332    14A     -1.009968    15A     -0.941150
      16A     -0.847688    17A     -0.808340    18A     -0.778371
      19A     -0.700985    20A     -0.687900    21A     -0.656999
      22A     -0.651442    23A     -0.620885    24A     -0.593353
      25A     -0.581098    26A     -0.579410    27A     -0.562744
      28A     -0.547745    29A     -0.520453    30A     -0.503196
      31A     -0.484874    32A     -0.480197    33A     -0.475596
      34A     -0.474058    35A     -0.455901    36A     -0.432567

  @DF-RHF Final Energy:  -422.95695567208008

   => Energetics <=

    Nuclear Repulsion Energy =            450.6501337834229162
    One-Electron Energy =               -1468.6075402867143112
    Two-Electron Energy =                 595.0004508312122198
    DFT Exchange-Correlation Energy =       0.0000000000000000
    Empirical Dispersion Energy =           0.0000000000000000
    PCM Polarization Energy =               0.0000000000000000
    EFP Energy =                            0.0000000000000000
    Total Energy =                       -422.9569556720791752

  Mulliken Charges: (a.u.)
   Center  Symbol    Alpha    Beta     Spin     Total
       1     O     4.25601  4.25601  0.00000 -0.51202
       2     C     2.62396  2.62396  0.00000  0.75207
       3     C     3.29807  3.29807  0.00000 -0.59614
       4     O     4.31407  4.31407  0.00000 -0.62813
       5     H     0.39321  0.39321  0.00000  0.21358
       6     H     0.40678  0.40678  0.00000  0.18644
       7     H     0.39864  0.39864  0.00000  0.20271
       8     C     2.99837  2.99837  0.00000  0.00326
       9     C     3.16283  3.16283  0.00000 -0.32567
      10     H     0.41169  0.41169  0.00000  0.17662
      11     H     0.42156  0.42156  0.00000  0.15687
      12     C     3.16150  3.16150  0.00000 -0.32301
      13     H     0.40702  0.40702  0.00000  0.18597
      14     H     0.41212  0.41212  0.00000  0.17575
      15     C     3.15189  3.15189  0.00000 -0.30379
      16     H     0.42041  0.42041  0.00000  0.15918
      17     H     0.42248  0.42248  0.00000  0.15504
      18     C     3.24004  3.24004  0.00000 -0.48009
      19     H     0.41964  0.41964  0.00000  0.16073
      20     H     0.42083  0.42083  0.00000  0.15834
      21     H     0.42056  0.42056  0.00000  0.15889
      22     H     0.41701  0.41701  0.00000  0.16598
      23     H     0.42130  0.42130  0.00000  0.15739

   Total alpha = 36.00000, Total beta = 36.00000, Total charge =  0.00000
