  ==> Input File <==

--------------------------------------------------------------------------
set {
	reference rhf
	basis cc-pvtz
}

set_num_threads( 4 )
memory 2 gb

molecule MOL {
0 1

H	 5.284000	 0.229000	 1.057000
C	 4.689000	 -0.178000	 0.245000
C	 3.200000	 -0.166000	 0.591000
H	 4.887000	 0.418000	 -0.641000
H	 5.040000	 -1.187000	 0.050000
C	 2.333000	 -0.740000	 -0.531000
H	 2.890000	 0.852000	 0.803000
H	 3.038000	 -0.741000	 1.501000
C	 0.839000	 -0.758000	 -0.206000
H	 2.488000	 -0.169000	 -1.440000
H	 2.650000	 -1.760000	 -0.740000
C	 0.185000	 0.615000	 -0.187000
H	 0.307000	 -1.344000	 -0.955000
H	 0.653000	 -1.257000	 0.743000
C	 -1.166000	 0.740000	 0.496000
O	 0.700000	 1.561000	 -0.703000
C	 -2.271000	 -0.102000	 -0.159000
H	 -1.434000	 1.790000	 0.478000
H	 -1.056000	 0.442000	 1.537000
C	 -3.637000	 0.123000	 0.492000
H	 -2.331000	 0.147000	 -1.217000
H	 -2.019000	 -1.158000	 -0.102000
C	 -4.745000	 -0.709000	 -0.152000
H	 -3.894000	 1.178000	 0.430000
H	 -3.574000	 -0.115000	 1.551000
H	 -4.853000	 -0.469000	 -1.206000
H	 -4.533000	 -1.772000	 -0.076000
H	 -5.700000	 -0.527000	 0.328000

	symmetry c1
}
ee = optimize('scf')
oeprop('DIPOLE', 'QUADRUPOLE', 'MULLIKEN_CHARGES')
f=open( 'psi4out.xyz', 'w' )
f.write( "28  " )
f.write( str(ee) + "\n" )
f.write( MOL.save_string_xyz() )
f.close()
--------------------------------------------------------------------------

    Molecular point group: c1
  Charge       = 0
  Multiplicity = 1
  Basis Set: CC-PVTZ
  Basis Set:
  @DF-RHF Final Energy:  -426.31973526440004
    Total Energy =                       -426.3197352643996965
    Molecular point group: c1
  Basis Set: CC-PVTZ
  Basis Set:
  Basis Set: CC-PVTZ
  Basis Set:
  @DF-RHF Final Energy:  -426.31988325334896
    Total Energy =                       -426.3198832533482800
  Basis Set: CC-PVTZ
  Basis Set:
  Basis Set: CC-PVTZ
  Basis Set:
  @DF-RHF Final Energy:  -426.31905156376058
    Total Energy =                       -426.3190515637597855
  Basis Set: CC-PVTZ
  Basis Set:
  Basis Set: CC-PVTZ
  Basis Set:
  @DF-RHF Final Energy:  -426.31988360875926
    Total Energy =                       -426.3198836087590280
  Basis Set: CC-PVTZ
  Basis Set:
  Basis Set: CC-PVTZ
  Basis Set:
  @DF-RHF Final Energy:  -426.31973749887436
    Total Energy =                       -426.3197374988748152
  Basis Set: CC-PVTZ
  Basis Set:
  Basis Set: CC-PVTZ
  Basis Set:
  @DF-RHF Final Energy:  -426.31989531021918
    Total Energy =                       -426.3198953102190671
  Basis Set: CC-PVTZ
  Basis Set:
  Basis Set: CC-PVTZ
  Basis Set:
  @DF-RHF Final Energy:  -426.31989661457726
    Total Energy =                       -426.3198966145777149
  Basis Set: CC-PVTZ
  Basis Set:
  Charge       = 0
  Multiplicity = 1
  Basis Set: CC-PVTZ
  Basis Set:

    Orbital Energies (a.u.)
    -----------------------

    Doubly Occupied:

       1A    -20.536627     2A    -11.316578     3A    -11.229838
       4A    -11.228274     5A    -11.226868     6A    -11.223819
       7A    -11.214657     8A    -11.214247     9A    -11.210934
      10A    -11.204033    11A     -1.396530    12A     -1.096174
      13A     -1.078910    14A     -1.023624    15A     -0.991813
      16A     -0.908108    17A     -0.873944    18A     -0.809376
      19A     -0.800321    20A     -0.724391    21A     -0.670749
      22A     -0.654105    23A     -0.629913    24A     -0.621429
      25A     -0.611200    26A     -0.588883    27A     -0.577550
      28A     -0.576250    29A     -0.543307    30A     -0.533688
      31A     -0.522032    32A     -0.506344    33A     -0.501772
      34A     -0.485401    35A     -0.479206    36A     -0.476517
      37A     -0.472928    38A     -0.466031    39A     -0.456860
      40A     -0.394229

  @DF-RHF Final Energy:  -426.31989672838813

   => Energetics <=

    Nuclear Repulsion Energy =            531.8779350865085007
    One-Electron Energy =               -1632.2407334530687422
    Two-Electron Energy =                 674.0429016381722249
    DFT Exchange-Correlation Energy =       0.0000000000000000
    Empirical Dispersion Energy =           0.0000000000000000
    PCM Polarization Energy =               0.0000000000000000
    EFP Energy =                            0.0000000000000000
    Total Energy =                       -426.3198967283879028
    Molecular point group: c1
  Basis Set: CC-PVTZ
  Basis Set:

  -Total Gradient:
     Atom            X                  Y                   Z
    ------   -----------------  -----------------  -----------------
       1        0.000005253926     0.000001192619     0.000001899796
       2        0.000002963788    -0.000004024673    -0.000004158999
       3       -0.000024273716     0.000031665558    -0.000000503492
       4        0.000006718050     0.000000703630    -0.000005076695
       5        0.000009312255    -0.000002996199    -0.000002161311
       6       -0.000034805049     0.000007768389     0.000021611920
       7        0.000000617909    -0.000001420377     0.000010147419
       8       -0.000005681698    -0.000005444174     0.000006297710
       9        0.000028029625     0.000009634178     0.000029638052
      10        0.000006315130     0.000014614565    -0.000013034917
      11       -0.000016083276    -0.000014141839    -0.000016660667
      12       -0.000010638948     0.000003903094    -0.000053897149
      13        0.000000065942    -0.000021755194    -0.000013491395
      14        0.000003115630    -0.000009017188     0.000010667803
      15       -0.000011866651    -0.000029809764    -0.000007068656
      16        0.000070984806     0.000027195671    -0.000007517732
      17        0.000008142236     0.000027945687     0.000021414945
      18        0.000002022699     0.000006252582     0.000007236950
      19        0.000000488058    -0.000002421670     0.000014539823
      20       -0.000002142201    -0.000023391396     0.000008106723
      21       -0.000000766290    -0.000018078592    -0.000025189538
      22        0.000004316609    -0.000003814060     0.000013309581
      23       -0.000023680221     0.000016286975    -0.000006052700
      24        0.000005562553     0.000004487322     0.000016115844
      25       -0.000004454662    -0.000006220796     0.000008848198
      26       -0.000004047592    -0.000007072043    -0.000010675233
      27       -0.000003287492    -0.000001767371     0.000005495421
      28       -0.000012181421    -0.000000274932    -0.000009841699

  **** Optimization is complete! (in 8 steps) ****
    Final optimized geometry and variables:
    Molecular point group: c1

    Geometry (in Angstrom), charge = 0, multiplicity = 1:

    H            5.269878308811     0.195679261373     1.068175213486
    C            4.673900779032    -0.208484795841     0.258033462336
    C            3.190199387108    -0.204713798603     0.610085841792
    H            4.865136397794     0.391892990481    -0.624684404129
    H            5.027838655555    -1.214511651773     0.056938323884
    C            2.319207928719    -0.778154524924    -0.505491398920
    H            2.876954557112     0.809860436592     0.827925197089
    H            3.035335112599    -0.782732962210     1.518234325054
    C            0.829291325268    -0.792919408977    -0.178663539907
    H            2.475094952987    -0.210925465714    -1.414764858695
    H            2.632968960457    -1.797508427146    -0.711051104843
    C            0.166485368656     0.574256593257    -0.177157871434
    H            0.295808499568    -1.386238231280    -0.916994805416
    H            0.645358017716    -1.277086323165     0.775940958143
    C           -1.180024718321     0.697760779036     0.509156458018
    O            0.667884991390     1.511522179050    -0.709518672868
    C           -2.285430669043    -0.137487719669    -0.145670805093
    H           -1.447360050501     1.745712800162     0.496199319399
    H           -1.065513752986     0.394095782812     1.546399071731
    C           -3.646544148877     0.082746977631     0.508954118835
    H           -2.348634405134     0.118246915853    -1.199806347353
    H           -2.034894522128    -1.192387331341    -0.096473073424
    C           -4.757411159086    -0.737227293074    -0.138149680766
    H           -3.900210539786     1.137404336778     0.459734273482
    H           -3.580878055567    -0.166775137650     1.564415395090
    H           -4.867875151631    -0.486707347026    -1.187777236259
    H           -4.549649879707    -1.800048978101    -0.072540400076
    H           -5.709584285582    -0.556396695563     0.346596302260

  Mulliken Charges: (a.u.)
   Center  Symbol    Alpha    Beta     Spin     Total
       1     H     0.44866  0.44866  0.00000  0.10269
       2     C     3.15196  3.15196  0.00000 -0.30392
       3     C     3.08439  3.08439  0.00000 -0.16879
       4     H     0.45177  0.45177  0.00000  0.09645
       5     H     0.45682  0.45682  0.00000  0.08636
       6     C     3.08726  3.08726  0.00000 -0.17452
       7     H     0.44595  0.44595  0.00000  0.10810
       8     H     0.45855  0.45855  0.00000  0.08290
       9     C     3.13032  3.13032  0.00000 -0.26064
      10     H     0.44408  0.44408  0.00000  0.11184
      11     H     0.44773  0.44773  0.00000  0.10453
      12     C     2.86433  2.86433  0.00000  0.27135
      13     H     0.43416  0.43416  0.00000  0.13167
      14     H     0.44292  0.44292  0.00000  0.11417
      15     C     3.09273  3.09273  0.00000 -0.18545
      16     O     4.17837  4.17837  0.00000 -0.35674
      17     C     3.10120  3.10120  0.00000 -0.20239
      18     H     0.43802  0.43802  0.00000  0.12396
      19     H     0.44942  0.44942  0.00000  0.10117
      20     C     3.08729  3.08729  0.00000 -0.17458
      21     H     0.44569  0.44569  0.00000  0.10862
      22     H     0.45037  0.45037  0.00000  0.09925
      23     C     3.14918  3.14918  0.00000 -0.29836
      24     H     0.44978  0.44978  0.00000  0.10044
      25     H     0.45362  0.45362  0.00000  0.09276
      26     H     0.45343  0.45343  0.00000  0.09314
      27     H     0.45520  0.45520  0.00000  0.08960
      28     H     0.44680  0.44680  0.00000  0.10641

   Total alpha = 40.00000, Total beta = 40.00000, Total charge =  0.00000
