                              Psi4 1.0.54 Driver

  ==> Input File <==

--------------------------------------------------------------------------
set {
	reference rhf
	basis cc-pvtz
}

set_num_threads( 4 )
memory 2 gb

molecule MOL {
0 1

H	 3.257613	 1.352433	 -0.254456
O	 2.338668	 1.236450	 -0.065286
C	 2.076458	 -0.067370	 -0.038225
C	 0.626018	 -0.337582	 0.258241
O	 2.913188	 -0.880407	 -0.229785
C	 -0.267326	 0.883135	 0.076490
H	 0.325620	 -1.161483	 -0.378003
H	 0.574537	 -0.713685	 1.275261
C	 -1.726822	 0.642622	 0.463839
H	 -0.210803	 1.217591	 -0.953497
H	 0.129920	 1.693110	 0.675679
C	 -2.480891	 -0.340606	 -0.429852
H	 -2.243098	 1.597649	 0.438609
H	 -1.776542	 0.301208	 1.495542
C	 -3.955933	 -0.460128	 -0.060472
H	 -2.393755	 -0.020485	 -1.464726
H	 -2.024244	 -1.323637	 -0.374360
H	 -4.467673	 -1.160944	 -0.709827
H	 -4.458917	 0.497287	 -0.144505
H	 -4.076458	 -0.806900	 0.960497

	symmetry c1
}
set optking {
	frozen_dihedral = ("
		5 3 4 7
	")
}

ee,wfn = optimize('scf', return_wfn=True)
oeprop( wfn, 'DIPOLE', 'QUADRUPOLE', 'MULLIKEN_CHARGES')
f=open( 'psi4out.xyz', 'w' )
f.write( "20  " )
f.write( str(ee) + "\n" )
f.write( MOL.save_string_xyz() )
f.close()
--------------------------------------------------------------------------

    Molecular point group: c1
  Charge       = 0
  Multiplicity = 1
  Basis Set: CC-PVTZ
  Basis Set:
  @DF-RHF Final Energy:  -384.09097364790114
    Total Energy =                       -384.0909736479008529
    Molecular point group: c1
  Basis Set: CC-PVTZ
  Basis Set:
  Basis Set: CC-PVTZ
  Basis Set:
  @DF-RHF Final Energy:  -384.09147821475477
    Total Energy =                       -384.0914782147548294
  Basis Set: CC-PVTZ
  Basis Set:
  Basis Set: CC-PVTZ
  Basis Set:
  @DF-RHF Final Energy:  -384.09224834870213
    Total Energy =                       -384.0922483487024692
  Basis Set: CC-PVTZ
  Basis Set:
  Basis Set: CC-PVTZ
  Basis Set:
  @DF-RHF Final Energy:  -384.09230143950225
    Total Energy =                       -384.0923014395018527
  Basis Set: CC-PVTZ
  Basis Set:
  Basis Set: CC-PVTZ
  Basis Set:
  @DF-RHF Final Energy:  -384.09230622532482
    Total Energy =                       -384.0923062253250464
  Basis Set: CC-PVTZ
  Basis Set:
  Basis Set: CC-PVTZ
  Basis Set:
  @DF-RHF Final Energy:  -384.09233272108469
    Total Energy =                       -384.0923327210845173
  Basis Set: CC-PVTZ
  Basis Set:
  Basis Set: CC-PVTZ
  Basis Set:
  @DF-RHF Final Energy:  -384.09233118158676
    Total Energy =                       -384.0923311815867578
  Basis Set: CC-PVTZ
  Basis Set:
  Charge       = 0
  Multiplicity = 1
  Basis Set: CC-PVTZ
  Basis Set:

    Orbital Energies (a.u.)
    -----------------------

    Doubly Occupied:

       1A    -20.606523     2A    -20.536191     3A    -11.373810
       4A    -11.238739     5A    -11.225434     6A    -11.220906
       7A    -11.219496     8A    -11.211408     9A     -1.478636
      10A     -1.367436    11A     -1.099436    12A     -1.042599
      13A     -0.960692    14A     -0.863230    15A     -0.829502
      16A     -0.792385    17A     -0.703560    18A     -0.684578
      19A     -0.662337    20A     -0.636626    21A     -0.607083
      22A     -0.592972    23A     -0.579457    24A     -0.552575
      25A     -0.545561    26A     -0.521334    27A     -0.503712
      28A     -0.484250    29A     -0.477282    30A     -0.469180
      31A     -0.458646    32A     -0.436407

  @DF-RHF Final Energy:  -384.09233333508405

   => Energetics <=

    Nuclear Repulsion Energy =            376.9919631161919824
    One-Electron Energy =               -1270.2046305468463743
    Two-Electron Energy =                 509.1203340955701719
    DFT Exchange-Correlation Energy =       0.0000000000000000
    Empirical Dispersion Energy =           0.0000000000000000
    PCM Polarization Energy =               0.0000000000000000
    EFP Energy =                            0.0000000000000000
    Total Energy =                       -384.0923333350842199
    Molecular point group: c1
  Basis Set: CC-PVTZ
  Basis Set:

  -Total Gradient:
     Atom            X                  Y                   Z
    ------   -----------------  -----------------  -----------------
       1       -0.000007359760    -0.000006807960     0.000002722420
       2        0.000022203028     0.000072249691    -0.000006292890
       3       -0.000269909695    -0.000040797257    -0.001163882157
       4        0.000288111984    -0.000530233307     0.000956509997
       5        0.000148718374     0.000048511436     0.000743150424
       6       -0.000008474966     0.000005371820     0.000014274549
       7       -0.000172299090     0.000446435047    -0.000541112537
       8       -0.000002801502     0.000002663710     0.000004981643
       9        0.000001683559    -0.000003881407    -0.000001090550
      10       -0.000004326715    -0.000002636751    -0.000000463948
      11       -0.000003562100     0.000004631999    -0.000000970983
      12        0.000002597970     0.000007716783    -0.000011190817
      13        0.000001179842     0.000001558615    -0.000001284755
      14        0.000006902544     0.000002872687     0.000005390346
      15        0.000001178451    -0.000003601515     0.000004791172
      16       -0.000002710071    -0.000002787727    -0.000001137662
      17       -0.000002346271    -0.000001138947    -0.000000639383
      18       -0.000001130198    -0.000002914728    -0.000000545954
      19        0.000001039043     0.000001475725    -0.000002293674
      20        0.000001305570     0.000001312090    -0.000000915241

  **** Optimization is complete! (in 8 steps) ****
    Final optimized geometry and variables:
    Molecular point group: c1

    Geometry (in Angstrom), charge = 0, multiplicity = 1:

    H            3.447794773281     0.954576613353    -0.355189007677
    O            2.522696599275     0.979527570874    -0.160901838889
    C            2.087514515375    -0.270917776762    -0.064516561869
    C            0.623370891783    -0.395054959701     0.280196677253
    O            2.808941905172    -1.197252970594    -0.212421673127
    C           -0.231583096834     0.854602906174     0.083611307035
    H            0.257087817042    -1.227870933300    -0.302950847911
    H            0.593444946972    -0.712810275706     1.318422927179
    C           -1.693517915681     0.663206459025     0.491347525216
    H           -0.183593983065     1.167308803804    -0.954810252046
    H            0.190343362340     1.665265074811     0.663596381844
    C           -2.492189459463    -0.300261748453    -0.385136523525
    H           -2.179003250196     1.634339370962     0.466907718384
    H           -1.738728040665     0.330413170549     1.525991844634
    C           -3.962969861847    -0.374704229692     0.012316361216
    H           -2.415190196525     0.014447802136    -1.422530852629
    H           -2.064140173767    -1.295969457174    -0.335292135777
    H           -4.506457172188    -1.063934551632    -0.623382017861
    H           -4.439852151811     0.596348337754    -0.067993970710
    H           -4.074402076259    -0.712622398338     1.037248564763

  Mulliken Charges: (a.u.)
   Center  Symbol    Alpha    Beta     Spin     Total
       1     H     0.38391  0.38391  0.00000  0.23218
       2     O     4.15129  4.15129  0.00000 -0.30259
       3     C     2.81127  2.81127  0.00000  0.37746
       4     C     3.10148  3.10148  0.00000 -0.20296
       5     O     4.19693  4.19693  0.00000 -0.39385
       6     C     3.09990  3.09990  0.00000 -0.19979
       7     H     0.43413  0.43413  0.00000  0.13175
       8     H     0.43874  0.43874  0.00000  0.12252
       9     C     3.10015  3.10015  0.00000 -0.20030
      10     H     0.44709  0.44709  0.00000  0.10583
      11     H     0.43819  0.43819  0.00000  0.12362
      12     C     3.08697  3.08697  0.00000 -0.17394
      13     H     0.44573  0.44573  0.00000  0.10853
      14     H     0.45337  0.45337  0.00000  0.09326
      15     C     3.14967  3.14967  0.00000 -0.29935
      16     H     0.45302  0.45302  0.00000  0.09397
      17     H     0.45242  0.45242  0.00000  0.09515
      18     H     0.44725  0.44725  0.00000  0.10550
      19     H     0.45400  0.45400  0.00000  0.09200
      20     H     0.45449  0.45449  0.00000  0.09101

   Total alpha = 32.00000, Total beta = 32.00000, Total charge =  0.00000

*** Psi4 exiting successfully. Buy a developer a beer!
