  ==> Input File <==

--------------------------------------------------------------------------
set {
	reference rhf
	basis 6-31G*
}

set_num_threads( 1 )
memory 2 gb

molecule MOL {
0 1

H	 -2.115722	 -1.192004	 0.254429
O	 -2.347518	 -0.290803	 0.079804
C	 -1.184022	 0.487508	 -0.006784
C	 0.062599	 -0.378592	 0.031606
H	 -1.176523	 1.099369	 -0.904519
H	 -1.187323	 1.153111	 0.844927
O	 1.171513	 0.459272	 -0.058250
H	 0.050699	 -1.089204	 -0.797170
H	 0.078739	 -0.954914	 0.954740
C	 2.397842	 -0.198080	 -0.002151
H	 2.508049	 -0.905315	 -0.822092
H	 3.173794	 0.550865	 -0.078850
H	 2.517602	 -0.735921	 0.936026

	symmetry c1
}
set optking {
	frozen_dihedral = ("
		8 4 3 5,
		10 7 4 8,
		4 7 10 13
	")
}

ee = energy('scf')
oeprop('DIPOLE', 'QUADRUPOLE', 'MULLIKEN_CHARGES')
f=open( 'psi4out.xyz', 'w' )
f.write( "13  " )
f.write( str(ee) + "\n" )
f.write( MOL.save_string_xyz() )
f.close()
--------------------------------------------------------------------------

    Molecular point group: c1

    Geometry (in Angstrom), charge = 0, multiplicity = 1:

       Center              X                  Y                   Z               Mass
    ------------   -----------------  -----------------  -----------------  -----------------
           H         -2.120802238050    -1.185882394809     0.241183801577     1.007825032070
           O         -2.352598238050    -0.284681394809     0.066558801577    15.994914619560
           C         -1.189102238050     0.493629605191    -0.020029198423    12.000000000000
           C          0.057518761950    -0.372470394809     0.018360801577    12.000000000000
           H         -1.181603238050     1.105490605191    -0.917764198423     1.007825032070
           H         -1.192403238050     1.159232605191     0.831681801577     1.007825032070
           O          1.166432761950     0.465393605191    -0.071495198423    15.994914619560
           H          0.045618761950    -1.083082394809    -0.810415198423     1.007825032070
           H          0.073658761950    -0.948792394809     0.941494801577     1.007825032070
           C          2.392761761950    -0.191958394809    -0.015396198423    12.000000000000
           H          2.502968761950    -0.899193394809    -0.835337198423     1.007825032070
           H          3.168713761950     0.556986605191    -0.092095198423     1.007825032070
           H          2.512521761950    -0.729799394809     0.922780801577     1.007825032070

  Charge       = 0
  Multiplicity = 1
  Basis Set: 6-31G*
  Basis Set:

    Orbital Energies (a.u.)
    -----------------------

    Doubly Occupied:

       1A    -20.568941     2A    -20.557206     3A    -11.281519
       4A    -11.274731     5A    -11.268238     6A     -1.394900
       7A     -1.364641     8A     -1.022404     9A     -0.915899
      10A     -0.853562    11A     -0.693228    12A     -0.688282
      13A     -0.671675    14A     -0.624978    15A     -0.610138
      16A     -0.579875    17A     -0.547490    18A     -0.498264
      19A     -0.472995    20A     -0.438854    21A     -0.428516

  @DF-RHF Final Energy:  -267.94554737714810

   => Energetics <=

    Nuclear Repulsion Energy =            190.6129280041213860
    One-Electron Energy =                -743.6041324801835799
    Two-Electron Energy =                 285.0456570989146030
    DFT Exchange-Correlation Energy =       0.0000000000000000
    Empirical Dispersion Energy =           0.0000000000000000
    PCM Polarization Energy =               0.0000000000000000
    EFP Energy =                            0.0000000000000000
    Total Energy =                       -267.9455473771475909

  Mulliken Charges: (a.u.)
   Center  Symbol    Alpha    Beta     Spin     Total
       1     H     0.27982  0.27982  0.00000  0.44037
       2     O     4.37739  4.37739  0.00000 -0.75477
       3     C     2.98143  2.98143  0.00000  0.03713
       4     C     3.01734  3.01734  0.00000 -0.03468
       5     H     0.41471  0.41471  0.00000  0.17057
       6     H     0.41820  0.41820  0.00000  0.16361
       7     O     4.30514  4.30514  0.00000 -0.61028
       8     H     0.42831  0.42831  0.00000  0.14339
       9     H     0.43115  0.43115  0.00000  0.13770
      10     C     3.08170  3.08170  0.00000 -0.16340
      11     H     0.42792  0.42792  0.00000  0.14417
      12     H     0.40892  0.40892  0.00000  0.18216
      13     H     0.42798  0.42798  0.00000  0.14404

   Total alpha = 21.00000, Total beta = 21.00000, Total charge =  0.00000
