                              Psi4 1.0.54 Driver

  ==> Input File <==

--------------------------------------------------------------------------
set {
	reference rhf
	basis cc-pvtz
}

set_num_threads( 4 )
memory 2 gb

molecule MOL {
0 1

H	 2.839201	 0.356187	 0.606872
C	 1.948180	 -0.217873	 0.320185
C	 0.692262	 0.592428	 0.156232
O	 2.022416	 -1.387831	 0.167475
C	 -0.554654	 -0.292621	 0.086567
H	 0.791858	 1.203694	 -0.731051
H	 0.617379	 1.254358	 1.016534
C	 -1.846385	 0.513195	 -0.016346
H	 -0.473986	 -0.956115	 -0.769708
H	 -0.597929	 -0.929215	 0.966651
C	 -3.089953	 -0.365049	 -0.098564
H	 -1.798267	 1.154820	 -0.891143
H	 -1.925398	 1.173265	 0.842889
H	 -3.055079	 -1.012299	 -0.968245
H	 -3.988403	 0.236438	 -0.170014
H	 -3.183055	 -0.995885	 0.779079

	symmetry c1
}
set optking {
	frozen_dihedral = ("
		4 2 3 6
	")
}

ee,wfn = optimize('scf', return_wfn=True)
oeprop( wfn, 'DIPOLE', 'QUADRUPOLE', 'MULLIKEN_CHARGES')
f=open( 'psi4out.xyz', 'w' )
f.write( "16  " )
f.write( str(ee) + "\n" )
f.write( MOL.save_string_xyz() )
f.close()
--------------------------------------------------------------------------

    Molecular point group: c1
  Charge       = 0
  Multiplicity = 1
  Basis Set: CC-PVTZ
  Basis Set:
  @DF-RHF Final Energy:  -270.11931519735504
    Total Energy =                       -270.1193151973550357
    Molecular point group: c1
  Basis Set: CC-PVTZ
  Basis Set:
  Basis Set: CC-PVTZ
  Basis Set:
  @DF-RHF Final Energy:  -270.11954489650122
    Total Energy =                       -270.1195448965011678
  Basis Set: CC-PVTZ
  Basis Set:
  Basis Set: CC-PVTZ
  Basis Set:
  @DF-RHF Final Energy:  -270.11881332563144
    Total Energy =                       -270.1188133256314927
  Basis Set: CC-PVTZ
  Basis Set:
  Basis Set: CC-PVTZ
  Basis Set:
  @DF-RHF Final Energy:  -270.12006679270507
    Total Energy =                       -270.1200667927049608
  Basis Set: CC-PVTZ
  Basis Set:
  Basis Set: CC-PVTZ
  Basis Set:
  @DF-RHF Final Energy:  -270.12007504092793
    Total Energy =                       -270.1200750409279294
  Basis Set: CC-PVTZ
  Basis Set:
  Basis Set: CC-PVTZ
  Basis Set:
  @DF-RHF Final Energy:  -270.12007957334765
    Total Energy =                       -270.1200795733476525
  Basis Set: CC-PVTZ
  Basis Set:
  Basis Set: CC-PVTZ
  Basis Set:
  @DF-RHF Final Energy:  -270.12008083089120
    Total Energy =                       -270.1200808308912542
  Basis Set: CC-PVTZ
  Basis Set:
  Charge       = 0
  Multiplicity = 1
  Basis Set: CC-PVTZ
  Basis Set:

    Orbital Energies (a.u.)
    -----------------------

    Doubly Occupied:

       1A    -20.552636     2A    -11.322710     3A    -11.236251
       4A    -11.221260     5A    -11.220523     6A    -11.210803
       7A     -1.408136     8A     -1.090596     9A     -1.016700
      10A     -0.909624    11A     -0.814828    12A     -0.771807
      13A     -0.678379    14A     -0.657548    15A     -0.632799
      16A     -0.599901    17A     -0.586440    18A     -0.536370
      19A     -0.530654    20A     -0.499001    21A     -0.486278
      22A     -0.478685    23A     -0.473109    24A     -0.413104

  @DF-RHF Final Energy:  -270.12008086879956

   => Energetics <=

    Nuclear Repulsion Energy =            232.1263843829723896
    One-Electron Energy =                -825.7966461194977228
    Two-Electron Energy =                 323.5501808677257713
    DFT Exchange-Correlation Energy =       0.0000000000000000
    Empirical Dispersion Energy =           0.0000000000000000
    PCM Polarization Energy =               0.0000000000000000
    EFP Energy =                            0.0000000000000000
    Total Energy =                       -270.1200808687996187
    Molecular point group: c1
  Basis Set: CC-PVTZ
  Basis Set:

  -Total Gradient:
     Atom            X                  Y                   Z
    ------   -----------------  -----------------  -----------------
       1        0.000001717989    -0.000006865502    -0.000000921277
       2       -0.000459769916    -0.000517686168     0.001833470181
       3        0.000714707322     0.001250819441     0.000226265626
       4        0.000254098451     0.000232504658    -0.001357839352
       5       -0.000010175063    -0.000005944589    -0.000010313240
       6       -0.000510093024    -0.000959504903    -0.000691704492
       7        0.000001723379    -0.000003911511    -0.000014177333
       8       -0.000000623259     0.000005070152     0.000017236867
       9        0.000002014565     0.000002021661     0.000007318427
      10        0.000000983997     0.000005445918    -0.000003793204
      11        0.000003722800    -0.000002305931    -0.000008427948
      12        0.000001267934    -0.000002592061     0.000004909374
      13       -0.000002777369     0.000001738335     0.000000383812
      14       -0.000001930880    -0.000001984504     0.000002440355
      15        0.000004235560    -0.000001113204    -0.000002619995
      16        0.000000897509     0.000004308205    -0.000002227801

  **** Optimization is complete! (in 8 steps) ****
    Final optimized geometry and variables:
    Molecular point group: c1

    Geometry (in Angstrom), charge = 0, multiplicity = 1:

    H            2.991400391938     0.613031580318     0.423242061583
    C            2.110013566180     0.001425138024     0.193839706306
    C            0.819624196077     0.768260178145     0.083972151682
    O            2.225312765077    -1.163202238217     0.026430537026
    C           -0.430096084197    -0.099391962683     0.017554313557
    H            0.907580065671     1.379374041065    -0.813683418934
    H            0.775465753082     1.467868548024     0.914825077417
    C           -1.709198378454     0.721105017360    -0.121057962484
    H           -0.341107036864    -0.787026192238    -0.815223308562
    H           -0.484495586063    -0.714272261374     0.910069972451
    C           -2.963370177590    -0.143692061467    -0.185427313008
    H           -1.649181838533     1.334636545071    -1.016169759290
    H           -1.790332792992     1.410555655011     0.715217294328
    H           -2.927642748106    -0.820949179631    -1.031877823347
    H           -3.854451912252     0.465059860158    -0.285338902853
    H           -3.070703986124    -0.743640234176     0.711860270251

  Mulliken Charges: (a.u.)
   Center  Symbol    Alpha    Beta     Spin     Total
       1     H     0.45238  0.45238  0.00000  0.09524
       2     C     2.92182  2.92182  0.00000  0.15635
       3     C     3.09256  3.09256  0.00000 -0.18512
       4     O     4.16510  4.16510  0.00000 -0.33020
       5     C     3.08288  3.08288  0.00000 -0.16576
       6     H     0.44642  0.44642  0.00000  0.10715
       7     H     0.44706  0.44706  0.00000  0.10588
       8     C     3.08419  3.08419  0.00000 -0.16839
       9     H     0.44392  0.44392  0.00000  0.11216
      10     H     0.44853  0.44853  0.00000  0.10294
      11     C     3.14907  3.14907  0.00000 -0.29815
      12     H     0.45499  0.45499  0.00000  0.09002
      13     H     0.45548  0.45548  0.00000  0.08903
      14     H     0.45343  0.45343  0.00000  0.09313
      15     H     0.44826  0.44826  0.00000  0.10348
      16     H     0.45389  0.45389  0.00000  0.09222

   Total alpha = 24.00000, Total beta = 24.00000, Total charge = -0.00000

*** Psi4 exiting successfully. Buy a developer a beer!
