  ==> Input File <==

--------------------------------------------------------------------------
set {
	reference rhf
	basis 6-31G*
}

set_num_threads( 4 )
memory 2 gb

molecule MOL {
0 1

O	 1.186239	 3.985224	 1.324856
C	 0.259259	 4.216398	 2.039015
C	 -1.008975	 3.382163	 2.015073
C	 0.289576	 5.367416	 3.023594
C	 -0.982526	 2.239411	 1.004305
H	 -1.176621	 3.001805	 3.021856
H	 -1.844780	 4.051973	 1.817120
C	 -2.275539	 1.422187	 1.009343
H	 -0.136862	 1.593840	 1.219294
H	 -0.806009	 2.645141	 0.013158
C	 -2.259874	 0.272531	 0.000494
H	 -2.448239	 1.021186	 2.007051
H	 -3.119672	 2.075965	 0.794681
C	 -3.549786	 -0.549746	 -0.000374
H	 -1.416840	 -0.382059	 0.214563
H	 -2.088168	 0.672303	 -0.997352
C	 -4.809590	 0.315458	 -0.000369
H	 -3.560515	 -1.202009	 -0.871156
H	 -3.561123	 -1.202955	 0.869711
H	 -4.844746	 0.956611	 -0.876632
H	 -5.706986	 -0.295590	 -0.001609
H	 -4.845960	 0.954827	 0.877144
H	 0.151503	 5.002779	 4.037297
H	 1.236497	 5.884143	 2.951701
H	 -0.519213	 6.062667	 2.818363

	symmetry c1
}
set optking {
	frozen_dihedral = ("
		15 11 14 18
	")
}

ee = optimize('scf')
oeprop('DIPOLE', 'QUADRUPOLE', 'MULLIKEN_CHARGES')
f=open( 'psi4out.xyz', 'w' )
f.write( "25  " )
f.write( str(ee) + "\n" )
f.write( MOL.save_string_xyz() )
f.close()
--------------------------------------------------------------------------

    Molecular point group: c1
  Charge       = 0
  Multiplicity = 1
  Basis Set: 6-31G*
  Basis Set:
  @DF-RHF Final Energy:  -387.13190398675602
    Total Energy =                       -387.1319039867569245
    Molecular point group: c1
  Basis Set: 6-31G*
  Basis Set:
  Basis Set: 6-31G*
  Basis Set:
  @DF-RHF Final Energy:  -387.13257655614370
    Total Energy =                       -387.1325765561430217
  Basis Set: 6-31G*
  Basis Set:
  Basis Set: 6-31G*
  Basis Set:
  @DF-RHF Final Energy:  -387.13356289065672
    Total Energy =                       -387.1335628906563215
  Basis Set: 6-31G*
  Basis Set:
  Basis Set: 6-31G*
  Basis Set:
  @DF-RHF Final Energy:  -387.13365642889727
    Total Energy =                       -387.1336564288975524
  Basis Set: 6-31G*
  Basis Set:
  Basis Set: 6-31G*
  Basis Set:
  @DF-RHF Final Energy:  -387.13313240814699
    Total Energy =                       -387.1331324081468210
  Basis Set: 6-31G*
  Basis Set:
  Basis Set: 6-31G*
  Basis Set:
  @DF-RHF Final Energy:  -387.13365678563775
    Total Energy =                       -387.1336567856375268
  Basis Set: 6-31G*
  Basis Set:
  Basis Set: 6-31G*
  Basis Set:
  @DF-RHF Final Energy:  -387.13367967069985
    Total Energy =                       -387.1336796706999621
  Basis Set: 6-31G*
  Basis Set:
  Charge       = 0
  Multiplicity = 1
  Basis Set: 6-31G*
  Basis Set:

    Orbital Energies (a.u.)
    -----------------------

    Doubly Occupied:

       1A    -20.550417     2A    -11.326251     3A    -11.231792
       4A    -11.228311     5A    -11.216795     6A    -11.216035
       7A    -11.215936     8A    -11.213979     9A    -11.208790
      10A     -1.395719    11A     -1.093502    12A     -1.055361
      13A     -1.013266    14A     -0.966614    15A     -0.896438
      16A     -0.824877    17A     -0.775481    18A     -0.729357
      19A     -0.659478    20A     -0.652224    21A     -0.627865
      22A     -0.622883    23A     -0.604718    24A     -0.591925
      25A     -0.564636    26A     -0.556466    27A     -0.544539
      28A     -0.521733    29A     -0.511106    30A     -0.494066
      31A     -0.489503    32A     -0.476901    33A     -0.459464
      34A     -0.456006    35A     -0.450735    36A     -0.399386

  @DF-RHF Final Energy:  -387.13367998840414

   => Energetics <=

    Nuclear Repulsion Energy =            443.2322793446468836
    One-Electron Energy =               -1403.0468102090126195
    Two-Electron Energy =                 572.6808508759614824
    DFT Exchange-Correlation Energy =       0.0000000000000000
    Empirical Dispersion Energy =           0.0000000000000000
    PCM Polarization Energy =               0.0000000000000000
    EFP Energy =                            0.0000000000000000
    Total Energy =                       -387.1336799884041966
    Molecular point group: c1
  Basis Set: 6-31G*
  Basis Set:

  -Total Gradient:
     Atom            X                  Y                   Z
    ------   -----------------  -----------------  -----------------
       1       -0.000000008976    -0.000002915941     0.000005387972
       2       -0.000003603915     0.000005808247    -0.000007775647
       3       -0.000006313293    -0.000007818627     0.000007966154
       4        0.000000014805    -0.000004651983     0.000002092667
       5       -0.000009816112     0.000016174716    -0.000054106988
       6       -0.000003538134     0.000002377078     0.000001611414
       7        0.000004654355     0.000003188160    -0.000000702040
       8        0.000029610537    -0.000050783552     0.000065277345
       9       -0.000004832069    -0.000004877418    -0.000002088518
      10        0.000011685363     0.000005669228    -0.000000916646
      11        0.000043111154    -0.000250366380    -0.005241205808
      12       -0.000020288934     0.000007203478     0.000023793458
      13        0.000041546936    -0.000002914353    -0.000004706829
      14        0.002363546120    -0.003122466875     0.003488758380
      15       -0.000429372280     0.000718949821     0.003888002413
      16       -0.000004694334     0.000003827046    -0.000024952485
      17       -0.000007327226     0.000000983777    -0.000033124812
      18       -0.001992950802     0.002708967797    -0.002114290915
      19        0.000004982925    -0.000012131081     0.000014357072
      20       -0.000023012491    -0.000000324201    -0.000007514071
      21        0.000013209393    -0.000006459240     0.000000559062
      22       -0.000006693455    -0.000003370341    -0.000005908856
      23       -0.000000271779     0.000000781201     0.000002495598
      24        0.000000350035    -0.000001971613    -0.000001654043
      25        0.000000012171    -0.000002878950    -0.000001353876

  **** Optimization is complete! (in 8 steps) ****
    Final optimized geometry and variables:
    Molecular point group: c1

    Geometry (in Angstrom), charge = 0, multiplicity = 1:

    O            2.705296084217     1.626765812120     0.216689951934
    C            1.768178970104     1.902703636613     0.901104603844
    C            0.468550381387     1.119657739407     0.848420738495
    C            1.816524131348     3.062389809745     1.874733359395
    C            0.477967920292    -0.034352862406    -0.149790918857
    H            0.256980424870     0.757324956394     1.853616717363
    H           -0.333462193641     1.820276048627     0.619820396782
    C           -0.845406826588    -0.801981323669    -0.171269123534
    H            1.293073942420    -0.708343706002     0.093676050284
    H            0.695461228720     0.353733979964    -1.140050092265
    C           -0.838630651091    -1.949927793696    -1.186465805046
    H           -1.049788386663    -1.200850388567     0.822026955980
    H           -1.654530527246    -0.111470643301    -0.395182129171
    C           -2.078496280316    -2.854881151449    -1.148338729148
    H            0.035266361586    -2.563150360910    -0.978003478090
    H           -0.713001786116    -1.542128252277    -2.186956534719
    C           -3.417900136195    -2.113466159579    -1.186563623329
    H           -2.044973794472    -3.510522168468    -2.014841023417
    H           -2.042820141117    -3.488139974387    -0.265417027261
    H           -3.471318747650    -1.443331008074    -2.040749512135
    H           -4.240444879944    -2.817208824206    -1.269615465252
    H           -3.584368317594    -1.523298762184    -0.291779538053
    H            1.635138055772     2.714701908987     2.887570481596
    H            2.785066796291     3.540186900043     1.825174854831
    H            1.042429201008     3.786980723883     1.639389397145

  Mulliken Charges: (a.u.)
   Center  Symbol    Alpha    Beta     Spin     Total
       1     O     4.26117  4.26117  0.00000 -0.52234
       2     C     2.73574  2.73574  0.00000  0.52853
       3     C     3.21067  3.21067  0.00000 -0.42134
       4     C     3.28665  3.28665  0.00000 -0.57329
       5     C     3.14777  3.14777  0.00000 -0.29555
       6     H     0.41007  0.41007  0.00000  0.17986
       7     H     0.41009  0.41009  0.00000  0.17982
       8     C     3.15700  3.15700  0.00000 -0.31400
       9     H     0.41225  0.41225  0.00000  0.17549
      10     H     0.41234  0.41234  0.00000  0.17532
      11     C     3.15226  3.15226  0.00000 -0.30452
      12     H     0.42559  0.42559  0.00000  0.14882
      13     H     0.42214  0.42214  0.00000  0.15572
      14     C     3.15177  3.15177  0.00000 -0.30354
      15     H     0.42072  0.42072  0.00000  0.15855
      16     H     0.42196  0.42196  0.00000  0.15608
      17     C     3.24260  3.24260  0.00000 -0.48520
      18     H     0.42051  0.42051  0.00000  0.15897
      19     H     0.42262  0.42262  0.00000  0.15476
      20     H     0.42241  0.42241  0.00000  0.15517
      21     H     0.41921  0.41921  0.00000  0.16158
      22     H     0.42053  0.42053  0.00000  0.15895
      23     H     0.40875  0.40875  0.00000  0.18250
      24     H     0.39646  0.39646  0.00000  0.20707
      25     H     0.40871  0.40871  0.00000  0.18259

   Total alpha = 36.00000, Total beta = 36.00000, Total charge = -0.00000
