  ==> Input File <==

--------------------------------------------------------------------------
set {
	reference rhf
	basis 6-31G*
}

set_num_threads( 4 )
memory 2 gb

molecule MOL {
0 1

H	 0.025085	 -3.568419	 1.010203
O	 0.319084	 -2.757642	 0.606480
C	 -0.696453	 -1.895070	 0.623327
C	 -0.318135	 -0.576402	 0.000164
O	 -1.755274	 -2.173810	 1.083977
C	 -1.454360	 0.441875	 -0.000474
H	 0.548086	 -0.200344	 0.537977
H	 0.027331	 -0.782279	 -1.009426
C	 -2.826123	 -0.230780	 0.000056
H	 -1.357605	 1.085198	 -0.868380
H	 -1.357504	 1.086451	 0.866496
H	 -2.959731	 -0.858053	 -0.876869
H	 -3.619374	 0.509403	 -0.000080
H	 -2.959371	 -0.857318	 0.877556

	symmetry c1
}
set optking {
	frozen_dihedral = ("
		7 4 6 10
	")
}

ee = optimize('scf')
oeprop('DIPOLE', 'QUADRUPOLE', 'MULLIKEN_CHARGES')
f=open( 'psi4out.xyz', 'w' )
f.write( "14  " )
f.write( str(ee) + "\n" )
f.write( MOL.save_string_xyz() )
f.close()
--------------------------------------------------------------------------

    Molecular point group: c1
  Charge       = 0
  Multiplicity = 1
  Basis Set: 6-31G*
  Basis Set:
  @DF-RHF Final Energy:  -305.85319238051727
    Total Energy =                       -305.8531923805171573
    Molecular point group: c1
  Basis Set: 6-31G*
  Basis Set:
  Basis Set: 6-31G*
  Basis Set:
  @DF-RHF Final Energy:  -305.86826872486375
    Total Energy =                       -305.8682687248636967
  Basis Set: 6-31G*
  Basis Set:
  Basis Set: 6-31G*
  Basis Set:
  @DF-RHF Final Energy:  -305.87083185903333
    Total Energy =                       -305.8708318590332738
  Basis Set: 6-31G*
  Basis Set:
  Basis Set: 6-31G*
  Basis Set:
  @DF-RHF Final Energy:  -305.86885263974619
    Total Energy =                       -305.8688526397464216
  Basis Set: 6-31G*
  Basis Set:
  @DF-RHF Final Energy:  -305.87235152814571
    Total Energy =                       -305.8723515281459413
  @DF-RHF Final Energy:  -305.87306998585768
    Total Energy =                       -305.8730699858577395
  @DF-RHF Final Energy:  -305.87373377186384
    Total Energy =                       -305.8737337718638400
  @DF-RHF Final Energy:  -305.87407431384690
    Total Energy =                       -305.8740743138466769
  @DF-RHF Final Energy:  -305.87422771653644
    Total Energy =                       -305.8742277165364385
  @DF-RHF Final Energy:  -305.87429677975774
    Total Energy =                       -305.8742967797577990
  @DF-RHF Final Energy:  -305.87432223432307
    Total Energy =                       -305.8743222343230173
  @DF-RHF Final Energy:  -305.87434974195264
    Total Energy =                       -305.8743497419528694
  @DF-RHF Final Energy:  -305.87442061330853
    Total Energy =                       -305.8744206133087573
  @DF-RHF Final Energy:  -305.87433702982219
    Total Energy =                       -305.8743370298222430
  @DF-RHF Final Energy:  -305.87441389100815
    Total Energy =                       -305.8744138910081460
  @DF-RHF Final Energy:  -305.87446822455479
    Total Energy =                       -305.8744682245551303
  @DF-RHF Final Energy:  -305.87448334052374
    Total Energy =                       -305.8744833405236250
  Basis Set: 6-31G*
  Basis Set:
  @DF-RHF Final Energy:  -305.87449251769806
    Total Energy =                       -305.8744925176982861
  Basis Set: 6-31G*
  Basis Set:
  Basis Set: 6-31G*
  Basis Set:
  @DF-RHF Final Energy:  -305.87449540553564
    Total Energy =                       -305.8744954055351286
  Basis Set: 6-31G*
  Basis Set:
  Basis Set: 6-31G*
  Basis Set:
  @DF-RHF Final Energy:  -305.87449836306155
    Total Energy =                       -305.8744983630616048
  Basis Set: 6-31G*
  Basis Set:
  Charge       = 0
  Multiplicity = 1
  Basis Set: 6-31G*
  Basis Set:

    Orbital Energies (a.u.)
    -----------------------

    Doubly Occupied:

       1A    -20.614713     2A    -20.547960     3A    -11.380143
       4A    -11.239700     5A    -11.235564     6A    -11.216486
       7A     -1.474758     8A     -1.364204     9A     -1.082134
      10A     -0.975853    11A     -0.864128    12A     -0.793564
      13A     -0.702485    14A     -0.682201    15A     -0.651956
      16A     -0.628550    17A     -0.586971    18A     -0.569093
      19A     -0.563071    20A     -0.502549    21A     -0.496649
      22A     -0.487676    23A     -0.470418    24A     -0.438398

  @DF-RHF Final Energy:  -305.87449964137721

   => Energetics <=

    Nuclear Repulsion Energy =            246.9435673309366734
    One-Electron Energy =                -906.4976843422596176
    Two-Electron Energy =                 353.6796173699461292
    DFT Exchange-Correlation Energy =       0.0000000000000000
    Empirical Dispersion Energy =           0.0000000000000000
    PCM Polarization Energy =               0.0000000000000000
    EFP Energy =                            0.0000000000000000
    Total Energy =                       -305.8744996413767581
    Molecular point group: c1
  Basis Set: 6-31G*
  Basis Set:

  -Total Gradient:
     Atom            X                  Y                   Z
    ------   -----------------  -----------------  -----------------
       1       -0.000017735912     0.000000988442    -0.000045843658
       2       -0.000039707728    -0.000083747622     0.000068660339
       3        0.000071488635     0.000016120044     0.000193649507
       4        0.002658297383     0.002502734543    -0.007255297112
       5       -0.000031569844     0.000004397416    -0.000151717084
       6        0.002796999479     0.005097348930     0.005589538936
       7       -0.002365752719    -0.002647585898     0.005069414433
       8       -0.000196932160    -0.000226357441     0.000042909074
       9        0.000023645192    -0.000126295067     0.000126095770
      10       -0.002656581241    -0.004271855259    -0.003607630513
      11       -0.000190861976    -0.000278442348     0.000111034468
      12        0.000034108244    -0.000017054048    -0.000062881719
      13       -0.000009405080    -0.000027130519    -0.000008703865
      14       -0.000075992275     0.000056878829    -0.000069228579

  **** Optimization is complete! (in 21 steps) ****
    Final optimized geometry and variables:
    Molecular point group: c1

    Geometry (in Angstrom), charge = 0, multiplicity = 1:

    H            0.355220640216    -2.404360949817     0.068555031024
    O            0.535280925541    -1.629519458639    -0.455578935791
    C            0.551203906087    -0.576118253838     0.357438162509
    C            0.810249115248     0.725852139683    -0.361938207710
    O            0.366506044568    -0.678669023009     1.527679600194
    C           -0.457681584560     1.609920292390    -0.449618300754
    H            1.554522782968     1.227330665129     0.245252579490
    H            1.212431810504     0.519342361261    -1.343772167832
    C           -1.765056238197     0.833326965706    -0.640366378674
    H           -0.342709876643     2.255504026366    -1.314212112859
    H           -0.530855126216     2.231034022142     0.434358761141
    H           -1.715191902849     0.184299471018    -1.509674404814
    H           -2.590141953998     1.522306609680    -0.788229863356
    H           -2.000119421883     0.222987748138     0.224548741927

  Mulliken Charges: (a.u.)
   Center  Symbol    Alpha    Beta     Spin     Total
       1     H     0.26847  0.26847  0.00000  0.46306
       2     O     4.34705  4.34705  0.00000 -0.69410
       3     C     2.63250  2.63250  0.00000  0.73500
       4     C     3.20307  3.20307  0.00000 -0.40614
       5     O     4.28028  4.28028  0.00000 -0.56055
       6     C     3.15438  3.15438  0.00000 -0.30875
       7     H     0.39679  0.39679  0.00000  0.20641
       8     H     0.39984  0.39984  0.00000  0.20033
       9     C     3.25593  3.25593  0.00000 -0.51186
      10     H     0.41404  0.41404  0.00000  0.17193
      11     H     0.40811  0.40811  0.00000  0.18378
      12     H     0.41523  0.41523  0.00000  0.16954
      13     H     0.41458  0.41458  0.00000  0.17084
      14     H     0.40975  0.40975  0.00000  0.18051

   Total alpha = 24.00000, Total beta = 24.00000, Total charge =  0.00000
