  ==> Input File <==

--------------------------------------------------------------------------
set {
	reference rhf
	basis cc-pvtz
}

set_num_threads( 4 )
memory 2 gb

molecule MOL {
0 1

H	 -2.123894	 -0.667238	 -0.609809
O	 -2.041679	 -0.058866	 0.103463
C	 -0.959304	 0.780994	 -0.094939
C	 0.354905	 0.037902	 -0.006215
H	 -0.985899	 1.279578	 -1.057596
H	 -0.969809	 1.529522	 0.682889
F	 0.192157	 -1.245168	 -0.276465
F	 1.214069	 0.522431	 -0.878377
F	 0.899666	 0.121643	 1.183825

	symmetry c1
}
set optking {
	frozen_dihedral = ("
		7 4 3 5
	")
}

ee = optimize('scf')
oeprop('DIPOLE', 'QUADRUPOLE', 'MULLIKEN_CHARGES')
f=open( 'psi4out.xyz', 'w' )
f.write( "9  " )
f.write( str(ee) + "\n" )
f.write( MOL.save_string_xyz() )
f.close()
--------------------------------------------------------------------------

    Molecular point group: c1
  Charge       = 0
  Multiplicity = 1
  Basis Set: CC-PVTZ
  Basis Set:
  @DF-RHF Final Energy:  -450.84210656618285
    Total Energy =                       -450.8421065661827356
    Molecular point group: c1
  Basis Set: CC-PVTZ
  Basis Set:
  Basis Set: CC-PVTZ
  Basis Set:
  @DF-RHF Final Energy:  -450.84256650479381
    Total Energy =                       -450.8425665047939219
  Basis Set: CC-PVTZ
  Basis Set:
  Basis Set: CC-PVTZ
  Basis Set:
  @DF-RHF Final Energy:  -450.84287256128209
    Total Energy =                       -450.8428725612822063
  Basis Set: CC-PVTZ
  Basis Set:
  Basis Set: CC-PVTZ
  Basis Set:
  @DF-RHF Final Energy:  -450.84289113626613
    Total Energy =                       -450.8428911362660187
  Basis Set: CC-PVTZ
  Basis Set:
  Basis Set: CC-PVTZ
  Basis Set:
  @DF-RHF Final Energy:  -450.84289346521871
    Total Energy =                       -450.8428934652185376
  Basis Set: CC-PVTZ
  Basis Set:
  Charge       = 0
  Multiplicity = 1
  Basis Set: CC-PVTZ
  Basis Set:

    Orbital Energies (a.u.)
    -----------------------

    Doubly Occupied:

       1A    -26.340927     2A    -26.340359     3A    -26.334345
       4A    -20.583580     5A    -11.495776     6A    -11.309787
       7A     -1.748628     8A     -1.646816     9A     -1.641392
      10A     -1.407356    11A     -1.047324    12A     -0.930557
      13A     -0.837237    14A     -0.836425    15A     -0.815425
      16A     -0.728890    17A     -0.719141    18A     -0.705732
      19A     -0.671958    20A     -0.666899    21A     -0.649112
      22A     -0.631608    23A     -0.618991    24A     -0.530229
      25A     -0.484275

  @DF-RHF Final Energy:  -450.84289370751884

   => Energetics <=

    Nuclear Repulsion Energy =            277.0525132766499041
    One-Electron Energy =               -1176.3452736777883274
    Two-Electron Energy =                 448.4498666936195832
    DFT Exchange-Correlation Energy =       0.0000000000000000
    Empirical Dispersion Energy =           0.0000000000000000
    PCM Polarization Energy =               0.0000000000000000
    EFP Energy =                            0.0000000000000000
    Total Energy =                       -450.8428937075187832
    Molecular point group: c1
  Basis Set: CC-PVTZ
  Basis Set:

  -Total Gradient:
     Atom            X                  Y                   Z
    ------   -----------------  -----------------  -----------------
       1       -0.000023749041    -0.000009473533     0.000003464132
       2        0.000033736250    -0.000003948958    -0.000031598367
       3       -0.003118030996    -0.005723929493    -0.001404766054
       4        0.001579662784     0.002118286281    -0.005470918651
       5        0.002342106178     0.004450374930     0.002350653980
       6        0.000007985508     0.000004111483     0.000000698330
       7       -0.000856549732    -0.000868105036     0.004515424964
       8        0.000009925518     0.000016520221    -0.000028081650
       9        0.000024913528     0.000016164108     0.000065123317

  **** Optimization is complete! (in 6 steps) ****
    Final optimized geometry and variables:
    Molecular point group: c1

    Geometry (in Angstrom), charge = 0, multiplicity = 1:

    H           -2.124478563275    -0.700703842987    -0.540476893975
    O           -2.066481119077    -0.024673745981     0.111184950267
    C           -0.968570405083     0.782177331318    -0.113628577517
    C            0.359213074612     0.033000067104    -0.018765208420
    H           -0.990726493788     1.301854920043    -1.064819466119
    H           -0.960213412585     1.536607395878     0.658625631445
    F            0.220501375244    -1.243689911190    -0.311837110193
    F            1.250218212941     0.544692870450    -0.841418138435
    F            0.870150076162     0.091474361796     1.193490740694

  Mulliken Charges: (a.u.)
   Center  Symbol    Alpha    Beta     Spin     Total
       1     H     0.38609  0.38609  0.00000  0.22783
       2     O     4.18774  4.18774  0.00000 -0.37548
       3     C     3.00078  3.00078  0.00000 -0.00157
       4     C     2.67859  2.67859  0.00000  0.64282
       5     H     0.46323  0.46323  0.00000  0.07355
       6     H     0.44914  0.44914  0.00000  0.10172
       7     F     4.61366  4.61366  0.00000 -0.22732
       8     F     4.61050  4.61050  0.00000 -0.22099
       9     F     4.61028  4.61028  0.00000 -0.22055

   Total alpha = 25.00000, Total beta = 25.00000, Total charge = -0.00000
