  ==> Input File <==

--------------------------------------------------------------------------
set {
	reference rhf
	basis cc-pvtz
}

set_num_threads( 4 )
memory 2 gb

molecule MOL {
0 1

H	 -2.498963	 -0.741158	 -0.729149
O	 -2.346257	 -0.289210	 0.080372
C	 -1.183935	 0.486039	 -0.009831
C	 0.062853	 -0.375310	 0.027457
H	 -1.178881	 1.094526	 -0.908634
H	 -1.184406	 1.155156	 0.838676
O	 1.172093	 0.457955	 -0.054438
H	 0.052476	 -1.081302	 -0.804627
H	 0.076323	 -0.955658	 0.947560
C	 1.159502	 1.528110	 0.832033
H	 1.134481	 1.188202	 1.865043
H	 2.063239	 2.098523	 0.675275
H	 0.302162	 2.175008	 0.661704

	symmetry c1
}
set optking {
	frozen_dihedral = ("
		10 7 4 8
	")
}

ee = optimize('scf')
oeprop('DIPOLE', 'QUADRUPOLE', 'MULLIKEN_CHARGES')
f=open( 'psi4out.xyz', 'w' )
f.write( "13  " )
f.write( str(ee) + "\n" )
f.write( MOL.save_string_xyz() )
f.close()
--------------------------------------------------------------------------

    Molecular point group: c1
  Charge       = 0
  Multiplicity = 1
  Basis Set: CC-PVTZ
  Basis Set:
  @DF-RHF Final Energy:  -268.04941296917264
    Total Energy =                       -268.0494129691727494
    Molecular point group: c1
  Basis Set: CC-PVTZ
  Basis Set:
  Basis Set: CC-PVTZ
  Basis Set:
  @DF-RHF Final Energy:  -268.05064520369729
    Total Energy =                       -268.0506452036972860
  Basis Set: CC-PVTZ
  Basis Set:
  Basis Set: CC-PVTZ
  Basis Set:
  @DF-RHF Final Energy:  -268.05563789911469
    Total Energy =                       -268.0556378991146858
  Basis Set: CC-PVTZ
  Basis Set:
  Basis Set: CC-PVTZ
  Basis Set:
  @DF-RHF Final Energy:  -268.05687494380015
    Total Energy =                       -268.0568749438000395
  Basis Set: CC-PVTZ
  Basis Set:
  Basis Set: CC-PVTZ
  Basis Set:
  @DF-RHF Final Energy:  -268.05703556070040
    Total Energy =                       -268.0570355607005126
  Basis Set: CC-PVTZ
  Basis Set:
  Basis Set: CC-PVTZ
  Basis Set:
  @DF-RHF Final Energy:  -268.05706398989298
    Total Energy =                       -268.0570639898930381
  Basis Set: CC-PVTZ
  Basis Set:
  Basis Set: CC-PVTZ
  Basis Set:
  @DF-RHF Final Energy:  -268.05706680573263
    Total Energy =                       -268.0570668057325179
  Basis Set: CC-PVTZ
  Basis Set:
  Charge       = 0
  Multiplicity = 1
  Basis Set: CC-PVTZ
  Basis Set:

    Orbital Energies (a.u.)
    -----------------------

    Doubly Occupied:

       1A    -20.556661     2A    -20.554126     3A    -11.272187
       4A    -11.270241     5A    -11.267736     6A     -1.388292
       7A     -1.372083     8A     -1.013805     9A     -0.935824
      10A     -0.831866    11A     -0.715188    12A     -0.676512
      13A     -0.661392    14A     -0.642194    15A     -0.598967
      16A     -0.565833    17A     -0.542283    18A     -0.520921
      19A     -0.475769    20A     -0.452765    21A     -0.411004

  @DF-RHF Final Energy:  -268.05706713639302

   => Energetics <=

    Nuclear Repulsion Energy =            193.0398197831381992
    One-Electron Energy =                -748.7424753239143911
    Two-Electron Energy =                 287.6455884043831475
    DFT Exchange-Correlation Energy =       0.0000000000000000
    Empirical Dispersion Energy =           0.0000000000000000
    PCM Polarization Energy =               0.0000000000000000
    EFP Energy =                            0.0000000000000000
    Total Energy =                       -268.0570671363930160
    Molecular point group: c1
  Basis Set: CC-PVTZ
  Basis Set:

  -Total Gradient:
     Atom            X                  Y                   Z
    ------   -----------------  -----------------  -----------------
       1       -0.000009903843     0.000000100205    -0.000001440127
       2       -0.000004078119    -0.000017092869    -0.000017693500
       3        0.000003614291     0.000014413104     0.000033187589
       4        0.001875396258    -0.002501506669     0.001561853794
       5       -0.000002650318    -0.000010915521    -0.000002066934
       6        0.000013386348     0.000009439996    -0.000001342308
       7        0.001978384794    -0.002416768264     0.002930741644
       8       -0.002179690582     0.002843517582    -0.002171955628
       9       -0.000003904424     0.000006732134    -0.000002336064
      10       -0.001670474212     0.002079352271    -0.002332449644
      11       -0.000003238216    -0.000003979552     0.000001280546
      12       -0.000003251071     0.000003126067    -0.000004551290
      13        0.000006409091    -0.000006418485     0.000006771922

  **** Optimization is complete! (in 8 steps) ****
    Final optimized geometry and variables:
    Molecular point group: c1

    Geometry (in Angstrom), charge = 0, multiplicity = 1:

    H           -2.135584547536    -1.236373325403    -0.982563880559
    O           -2.109171231958    -0.774457949750    -0.164277069260
    C           -1.025383847070     0.111367084850    -0.143166336727
    C            0.291284926682    -0.656682715445    -0.108253891811
    H           -1.038592394027     0.775847917951    -1.003375236655
    H           -1.154446764812     0.716469008417     0.742499425505
    O            1.432799456377     0.136119743756    -0.219285067651
    H            0.302816685904    -1.310179694184    -0.972517119569
    H            0.327285720251    -1.267665286031     0.790701104396
    C            1.544529925079     1.212005648459     0.657674744966
    H            1.387313593694     0.906991956258     1.690200156956
    H            2.548812109028     1.598622869244     0.563733626781
    H            0.847243374063     2.009013285677     0.421528451025

  Mulliken Charges: (a.u.)
   Center  Symbol    Alpha    Beta     Spin     Total
       1     H     0.39329  0.39329  0.00000  0.21341
       2     O     4.20203  4.20203  0.00000 -0.40405
       3     C     2.98353  2.98353  0.00000  0.03294
       4     C     2.98137  2.98137  0.00000  0.03726
       5     H     0.46476  0.46476  0.00000  0.07048
       6     H     0.45467  0.45467  0.00000  0.09066
       7     O     4.17673  4.17673  0.00000 -0.35346
       8     H     0.46230  0.46230  0.00000  0.07541
       9     H     0.46369  0.46369  0.00000  0.07262
      10     C     3.03628  3.03628  0.00000 -0.07255
      11     H     0.47004  0.47004  0.00000  0.05993
      12     H     0.44275  0.44275  0.00000  0.11450
      13     H     0.46857  0.46857  0.00000  0.06286

   Total alpha = 21.00000, Total beta = 21.00000, Total charge = -0.00000
