                              Psi4 1.0.54 Driver

  ==> Input File <==

--------------------------------------------------------------------------
set {
	reference rhf
	basis cc-pvtz
}

set_num_threads( 4 )
memory 2 gb

molecule MOL {
0 1

O	 0.179153	 1.100243	 0.576056
C	 0.029490	 0.077183	 0.000078
C	 -1.232113	 -0.748027	 0.000015
O	 0.973585	 -0.486405	 -0.734962
C	 -2.501422	 0.088592	 -0.000052
H	 -1.188777	 -1.400384	 -0.865133
H	 -1.188857	 -1.400312	 0.865225
H	 -2.548170	 0.725504	 -0.873205
H	 -3.371613	 -0.556398	 -0.000040
H	 -2.548215	 0.725571	 0.873047
C	 2.214581	 0.184302	 -0.822850
H	 2.088033	 1.164821	 -1.257364
H	 2.838551	 -0.425564	 -1.455740
H	 2.662275	 0.287094	 0.154518

	symmetry c1
}
set optking {
	frozen_dihedral = ("
		4 2 3 6
	")
}

ee,wfn = optimize('scf', return_wfn=True)
oeprop( wfn, 'DIPOLE', 'QUADRUPOLE', 'MULLIKEN_CHARGES')
f=open( 'psi4out.xyz', 'w' )
f.write( "14  " )
f.write( str(ee) + "\n" )
f.write( MOL.save_string_xyz() )
f.close()
--------------------------------------------------------------------------

    Molecular point group: c1
  Charge       = 0
  Multiplicity = 1
  Basis Set: CC-PVTZ
  Basis Set:
  @DF-RHF Final Energy:  -305.98637515589837
    Total Energy =                       -305.9863751558984859
    Molecular point group: c1
  Basis Set: CC-PVTZ
  Basis Set:
  Basis Set: CC-PVTZ
  Basis Set:
  @DF-RHF Final Energy:  -305.98418252941792
    Total Energy =                       -305.9841825294176942
  Basis Set: CC-PVTZ
  Basis Set:
  Basis Set: CC-PVTZ
  Basis Set:
  @DF-RHF Final Energy:  -305.98668297749816
    Total Energy =                       -305.9866829774982762
  Basis Set: CC-PVTZ
  Basis Set:
  Basis Set: CC-PVTZ
  Basis Set:
  @DF-RHF Final Energy:  -305.98642854979244
    Total Energy =                       -305.9864285497922083
  Basis Set: CC-PVTZ
  Basis Set:
  Basis Set: CC-PVTZ
  Basis Set:
  @DF-RHF Final Energy:  -305.98671435551506
    Total Energy =                       -305.9867143555153461
  Basis Set: CC-PVTZ
  Basis Set:
  Basis Set: CC-PVTZ
  Basis Set:
  @DF-RHF Final Energy:  -305.98671894182678
    Total Energy =                       -305.9867189418266662
  Basis Set: CC-PVTZ
  Basis Set:
  Charge       = 0
  Multiplicity = 1
  Basis Set: CC-PVTZ
  Basis Set:

    Orbital Energies (a.u.)
    -----------------------

    Doubly Occupied:

       1A    -20.598980     2A    -20.533153     3A    -11.365248
       4A    -11.279272     5A    -11.236622     6A    -11.217558
       7A     -1.473593     8A     -1.366118     9A     -1.065278
      10A     -0.981375    11A     -0.880032    12A     -0.772802
      13A     -0.702054    14A     -0.685156    15A     -0.675579
      16A     -0.620211    17A     -0.603647    18A     -0.554608
      19A     -0.539463    20A     -0.519742    21A     -0.515661
      22A     -0.497162    23A     -0.460999    24A     -0.441113

  @DF-RHF Final Energy:  -305.98671910749403

   => Energetics <=

    Nuclear Repulsion Energy =            247.5649183563432985
    One-Electron Energy =                -907.9324252345659261
    Two-Electron Energy =                 354.3807877707286025
    DFT Exchange-Correlation Energy =       0.0000000000000000
    Empirical Dispersion Energy =           0.0000000000000000
    PCM Polarization Energy =               0.0000000000000000
    EFP Energy =                            0.0000000000000000
    Total Energy =                       -305.9867191074940820
    Molecular point group: c1
  Basis Set: CC-PVTZ
  Basis Set:

  -Total Gradient:
     Atom            X                  Y                   Z
    ------   -----------------  -----------------  -----------------
       1        0.000003530383    -0.000043944601    -0.000012718688
       2        0.000397322046    -0.000695380617     0.001429557582
       3       -0.000616641631     0.001139128890    -0.001378364822
       4       -0.000229510025     0.000413539527    -0.000889981420
       5        0.000028207363    -0.000009243793     0.000027510737
       6        0.000436159147    -0.000829638841     0.000829215418
       7       -0.000004451291     0.000011132925    -0.000002525250
       8        0.000012165590    -0.000006356408    -0.000002128748
       9        0.000005817357    -0.000005181182     0.000004200129
      10       -0.000010033150     0.000014389536     0.000006690925
      11       -0.000030032570     0.000017925843    -0.000020513860
      12        0.000014923153     0.000004145018     0.000000239099
      13       -0.000003594509    -0.000006940824     0.000002404518
      14       -0.000003861862    -0.000003575473     0.000006414382

  **** Optimization is complete! (in 7 steps) ****
    Final optimized geometry and variables:
    Molecular point group: c1

    Geometry (in Angstrom), charge = 0, multiplicity = 1:

    O            0.228997307999     1.116768937036     0.608500231673
    C            0.047061668713     0.041865764199     0.146073861306
    C           -1.278399725180    -0.678616171121     0.148580553266
    O            1.002981365249    -0.674283392962    -0.419139274965
    C           -2.463529893795     0.262314661082    -0.025632925957
    H           -1.260250170966    -1.454606243711    -0.603434434348
    H           -1.341887824731    -1.181439493518     1.109446609865
    H           -2.432441084690     0.754301070752    -0.990427599072
    H           -3.391716590188    -0.291663017715     0.039011353883
    H           -2.463118597340     1.026533542040     0.738349888011
    C            2.303870338790    -0.120668801596    -0.434106066685
    H            2.314183681034     0.811957482281    -0.978105887874
    H            2.930153279113    -0.846671254430    -0.926520105123
    H            2.655051997653     0.054146252831     0.572018165232

  Mulliken Charges: (a.u.)
   Center  Symbol    Alpha    Beta     Spin     Total
       1     O     4.20073  4.20073  0.00000 -0.40146
       2     C     2.80623  2.80623  0.00000  0.38754
       3     C     3.08883  3.08883  0.00000 -0.17767
       4     O     4.14441  4.14441  0.00000 -0.28882
       5     C     3.14239  3.14239  0.00000 -0.28477
       6     H     0.43815  0.43815  0.00000  0.12371
       7     H     0.44631  0.44631  0.00000  0.10737
       8     H     0.45306  0.45306  0.00000  0.09388
       9     H     0.44987  0.44987  0.00000  0.10026
      10     H     0.44205  0.44205  0.00000  0.11590
      11     C     3.03428  3.03428  0.00000 -0.06855
      12     H     0.45404  0.45404  0.00000  0.09191
      13     H     0.44522  0.44522  0.00000  0.10956
      14     H     0.45443  0.45443  0.00000  0.09114

   Total alpha = 24.00000, Total beta = 24.00000, Total charge = -0.00000

*** Psi4 exiting successfully. Buy a developer a beer!
