  ==> Input File <==

--------------------------------------------------------------------------
set {
	reference rhf
	basis cc-pvtz
}

set_num_threads( 4 )
memory 2 gb

molecule MOL {
0 1

H	 -3.436473	 1.252944	 -1.023892
O	 -3.458596	 0.315260	 -0.960865
C	 -3.176635	 -0.080824	 0.355601
C	 -1.763371	 0.265266	 0.799691
H	 -3.321825	 -1.153438	 0.379502
H	 -3.895468	 0.357385	 1.043382
C	 -0.673390	 -0.426948	 -0.013392
H	 -1.631049	 1.344913	 0.747560
H	 -1.664587	 -0.001624	 1.849167
C	 0.737842	 -0.043159	 0.423759
H	 -0.806103	 -0.190518	 -1.063345
H	 -0.797221	 -1.503753	 0.074146
C	 1.824000	 -0.743224	 -0.390623
H	 0.850588	 1.033777	 0.343840
H	 0.868587	 -0.286314	 1.476203
C	 3.255957	 -0.453067	 0.062319
H	 1.718250	 -0.470599	 -1.438164
H	 1.658105	 -1.815850	 -0.339904
C	 4.330112	 -0.768014	 -0.976018
H	 3.457017	 -1.034514	 0.956897
H	 3.334402	 0.590390	 0.356367
H	 4.272241	 -1.804279	 -1.293638
H	 5.320399	 -0.604101	 -0.566500
H	 4.236661	 -0.146237	 -1.858212

	symmetry c1
}
set optking {
	frozen_dihedral = ("
		20 16 13 17
	")
}

ee = optimize('scf')
oeprop('DIPOLE', 'QUADRUPOLE', 'MULLIKEN_CHARGES')
f=open( 'psi4out.xyz', 'w' )
f.write( "24  " )
f.write( str(ee) + "\n" )
f.write( MOL.save_string_xyz() )
f.close()
--------------------------------------------------------------------------

    Molecular point group: c1
  Charge       = 0
  Multiplicity = 1
  Basis Set: CC-PVTZ
  Basis Set:
  @DF-RHF Final Energy:  -349.38054829856367
    Total Energy =                       -349.3805482985640083
    Molecular point group: c1
  Basis Set: CC-PVTZ
  Basis Set:
  Basis Set: CC-PVTZ
  Basis Set:
  @DF-RHF Final Energy:  -349.38090455644067
    Total Energy =                       -349.3809045564406688
  Basis Set: CC-PVTZ
  Basis Set:
  Basis Set: CC-PVTZ
  Basis Set:
  @DF-RHF Final Energy:  -349.38092749069949
    Total Energy =                       -349.3809274907001736
  Basis Set: CC-PVTZ
  Basis Set:
  Charge       = 0
  Multiplicity = 1
  Basis Set: CC-PVTZ
  Basis Set:

    Orbital Energies (a.u.)
    -----------------------

    Doubly Occupied:

       1A    -20.546327     2A    -11.265564     3A    -11.215248
       4A    -11.211673     5A    -11.210820     6A    -11.209115
       7A    -11.208985     8A    -11.205213     9A     -1.364180
      10A     -1.089714    11A     -1.050096    12A     -0.989133
      13A     -0.914549    14A     -0.842919    15A     -0.798184
      16A     -0.788602    17A     -0.681802    18A     -0.657722
      19A     -0.631538    20A     -0.616019    21A     -0.594409
      22A     -0.585864    23A     -0.548364    24A     -0.542476
      25A     -0.532400    26A     -0.501156    27A     -0.495396
      28A     -0.471601    29A     -0.469365    30A     -0.460449
      31A     -0.457793    32A     -0.456428    33A     -0.420766

  @DF-RHF Final Energy:  -349.38092800642426

   => Energetics <=

    Nuclear Repulsion Energy =            381.0121614019503795
    One-Electron Energy =               -1228.7184320233577637
    Two-Electron Energy =                 498.3253426149835263
    DFT Exchange-Correlation Energy =       0.0000000000000000
    Empirical Dispersion Energy =           0.0000000000000000
    PCM Polarization Energy =               0.0000000000000000
    EFP Energy =                            0.0000000000000000
    Total Energy =                       -349.3809280064238578
    Molecular point group: c1
  Basis Set: CC-PVTZ
  Basis Set:

  -Total Gradient:
     Atom            X                  Y                   Z
    ------   -----------------  -----------------  -----------------
       1        0.000001527313    -0.000003307037     0.000001799773
       2       -0.000002668746    -0.000001964212    -0.000016482775
       3        0.000011698343     0.000019599840    -0.000010810354
       4       -0.000006896914     0.000019626745    -0.000027785769
       5        0.000003534709    -0.000000887423     0.000002380315
       6        0.000007692164    -0.000000180351     0.000006305250
       7       -0.000056748467     0.000024960260     0.000024515625
       8       -0.000004062000     0.000012310277     0.000011803236
       9        0.000009763221    -0.000014130019    -0.000007343553
      10       -0.000058770339    -0.000036475728     0.000030302386
      11       -0.000001952371    -0.000012223643    -0.000007843022
      12        0.000027189862     0.000007695398     0.000024443142
      13       -0.000914913994     0.003351828696     0.000709676379
      14        0.000006165953     0.000005766832     0.000015386006
      15        0.000015590629    -0.000029493891    -0.000028393718
      16       -0.001358197819     0.002432462831     0.002154201994
      17        0.001022485649    -0.003170627663    -0.000879950828
      18        0.000030333473    -0.000016559490    -0.000001495061
      19        0.000074813540     0.000032467433    -0.000005453547
      20        0.001162338906    -0.002571763175    -0.001889817336
      21       -0.000013957744    -0.000033635537    -0.000020122860
      22        0.000005095234     0.000006062139    -0.000002901039
      23        0.000028817106    -0.000017513556    -0.000042095809
      24        0.000011122288    -0.000004018724    -0.000040318434

  **** Optimization is complete! (in 4 steps) ****
    Final optimized geometry and variables:
    Molecular point group: c1

    Geometry (in Angstrom), charge = 0, multiplicity = 1:

    H           -3.501506208717     1.499655384979    -0.908675002828
    O           -3.530554058149     0.561606957252    -0.854838348943
    C           -3.254510774666     0.150920938083     0.458320355100
    C           -1.839721907910     0.482259610370     0.908715483416
    H           -3.407665054872    -0.920781195316     0.471260720691
    H           -3.971678400557     0.587614930982     1.148799042816
    C           -0.753059480319    -0.207946958342     0.089569111969
    H           -1.699866330064     1.561495853578     0.869189111327
    H           -1.744473417636     0.202710269630     1.955209438252
    C            0.659550848246     0.161036594613     0.533122305217
    H           -0.882292161984     0.041058929728    -0.957922850382
    H           -0.883867640333    -1.284839509364     0.165008702861
    C            1.749442335773    -0.520406498586    -0.287213217885
    H            0.786355893607     1.239197423092     0.468249637246
    H            0.788458162756    -0.096042148734     1.582341455852
    C            3.168985827376    -0.199694294976     0.182609548866
    H            1.646104224613    -0.259686731087    -1.337618137884
    H            1.605081337649    -1.597861789519    -0.247314338060
    C            4.230457405357    -0.544056917345    -0.859153792644
    H            3.381946580599    -0.765305602635     1.085120589442
    H            3.245693094948     0.852459822039     0.439811383170
    H            4.181960215565    -1.592845014283    -1.133853440858
    H            5.228692751151    -0.347355535699    -0.484754123282
    H            4.094845893984     0.038905593955    -1.763993822004

  Mulliken Charges: (a.u.)
   Center  Symbol    Alpha    Beta     Spin     Total
       1     H     0.39531  0.39531  0.00000  0.20939
       2     O     4.20370  4.20370  0.00000 -0.40740
       3     C     2.97759  2.97759  0.00000  0.04482
       4     C     3.10249  3.10249  0.00000 -0.20497
       5     H     0.45889  0.45889  0.00000  0.08221
       6     H     0.46030  0.46030  0.00000  0.07940
       7     C     3.08806  3.08806  0.00000 -0.17612
       8     H     0.45909  0.45909  0.00000  0.08182
       9     H     0.45329  0.45329  0.00000  0.09343
      10     C     3.08818  3.08818  0.00000 -0.17636
      11     H     0.44634  0.44634  0.00000  0.10733
      12     H     0.45527  0.45527  0.00000  0.08946
      13     C     3.08754  3.08754  0.00000 -0.17509
      14     H     0.45538  0.45538  0.00000  0.08925
      15     H     0.45571  0.45571  0.00000  0.08858
      16     C     3.08420  3.08420  0.00000 -0.16839
      17     H     0.45485  0.45485  0.00000  0.09030
      18     H     0.45457  0.45457  0.00000  0.09087
      19     C     3.14989  3.14989  0.00000 -0.29977
      20     H     0.45414  0.45414  0.00000  0.09173
      21     H     0.45569  0.45569  0.00000  0.08863
      22     H     0.45491  0.45491  0.00000  0.09019
      23     H     0.44919  0.44919  0.00000  0.10163
      24     H     0.45546  0.45546  0.00000  0.08909

   Total alpha = 33.00000, Total beta = 33.00000, Total charge = -0.00000
