  ==> Input File <==

--------------------------------------------------------------------------
set {
	reference rhf
	basis 6-31G*
}

set_num_threads( 4 )
memory 2 gb

molecule MOL {
0 1

H	 -2.631304	 0.069391	 -0.418779
C	 -1.643640	 -0.376625	 -0.433447
C	 -0.603454	 0.661669	 0.000000
H	 -1.443167	 -0.730993	 -1.437277
H	 -1.643155	 -1.228853	 0.235244
C	 0.763625	 0.112519	 0.000000
H	 -0.617636	 1.518870	 -0.663005
H	 -0.816357	 1.024165	 0.998919
N	 1.813038	 -0.320305	 0.000000

	symmetry c1
}
set optking {
	frozen_dihedral = ("
		7 3 6 9
	")
}

ee = optimize('scf')
oeprop('DIPOLE', 'QUADRUPOLE', 'MULLIKEN_CHARGES')
f=open( 'psi4out.xyz', 'w' )
f.write( "9  " )
f.write( str(ee) + "\n" )
f.write( MOL.save_string_xyz() )
f.close()
--------------------------------------------------------------------------

    Molecular point group: c1
  Charge       = 0
  Multiplicity = 1
  Basis Set: 6-31G*
  Basis Set:
  @DF-RHF Final Energy:  -170.96243192420235
    Total Energy =                       -170.9624319242023205
    Molecular point group: c1
  Basis Set: 6-31G*
  Basis Set:
  Basis Set: 6-31G*
  Basis Set:
  @DF-RHF Final Energy:  -170.84823131173854
    Total Energy =                       -170.8482313117385161
  Basis Set: 6-31G*
  Basis Set:
  Basis Set: 6-31G*
  Basis Set:
  @DF-RHF Final Energy:  -170.92655225635548
    Total Energy =                       -170.9265522563555919
  Basis Set: 6-31G*
  Basis Set:
  Basis Set: 6-31G*
  Basis Set:
  @DF-RHF Final Energy:  -170.95878798916880
    Total Energy =                       -170.9587879891687408
  Basis Set: 6-31G*
  Basis Set:
  @DF-RHF Final Energy:  -170.96194487298430
    Total Energy =                       -170.9619448729842759
  @DF-RHF Final Energy:  -170.96235727879446
    Total Energy =                       -170.9623572787944568
  @DF-RHF Final Energy:  -170.95866943139197
    Total Energy =                       -170.9586694313919679
  @DF-RHF Final Energy:  -170.96111463787520
    Total Energy =                       -170.9611146378751414
  @DF-RHF Final Energy:  -170.96226150097556
    Total Energy =                       -170.9622615009755862
  @DF-RHF Final Energy:  -170.96231286160395
    Total Energy =                       -170.9623128616040049
  @DF-RHF Final Energy:  -170.96161702165642
    Total Energy =                       -170.9616170216564797
  @DF-RHF Final Energy:  -170.96161267241993
    Total Energy =                       -170.9616126724199034
  @DF-RHF Final Energy:  -170.96174860264563
    Total Energy =                       -170.9617486026457414
  @DF-RHF Final Energy:  -170.96207418714576
    Total Energy =                       -170.9620741871456175
  @DF-RHF Final Energy:  -170.96219633495664
    Total Energy =                       -170.9621963349566727
  @DF-RHF Final Energy:  -170.96230313884288
    Total Energy =                       -170.9623031388428558
  @DF-RHF Final Energy:  -170.96228090134895
    Total Energy =                       -170.9622809013489757
  @DF-RHF Final Energy:  -170.96225678001218
    Total Energy =                       -170.9622567800121828
  @DF-RHF Final Energy:  -170.96235164830881
    Total Energy =                       -170.9623516483088395
  @DF-RHF Final Energy:  -170.96095901603988
    Total Energy =                       -170.9609590160399080
  @DF-RHF Final Energy:  -170.96138978172149
    Total Energy =                       -170.9613897817215502
  @DF-RHF Final Energy:  -170.96183302171147
    Total Energy =                       -170.9618330217115272
  @DF-RHF Final Energy:  -170.96209653084958
    Total Energy =                       -170.9620965308494931
  @DF-RHF Final Energy:  -170.96240206260450
    Total Energy =                       -170.9624020626044967
  @DF-RHF Final Energy:  -170.96236522752145
    Total Energy =                       -170.9623652275214454
  @DF-RHF Final Energy:  -170.96060420570603
    Total Energy =                       -170.9606042057060904
  @DF-RHF Final Energy:  -170.96185014694368
    Total Energy =                       -170.9618501469436183
  @DF-RHF Final Energy:  -170.96148130288259
    Total Energy =                       -170.9614813028826177
  @DF-RHF Final Energy:  -170.96143712183192
    Total Energy =                       -170.9614371218319491
  @DF-RHF Final Energy:  -170.96239469595344
    Total Energy =                       -170.9623946959533782
  @DF-RHF Final Energy:  -170.93564096331232
    Total Energy =                       -170.9356409633122666
  @DF-RHF Final Energy:  -170.95767402625916
    Total Energy =                       -170.9576740262592125
  @DF-RHF Final Energy:  -170.96073353816618
    Total Energy =                       -170.9607335381661528
  @DF-RHF Final Energy:  -170.96198379086724
    Total Energy =                       -170.9619837908671514
  @DF-RHF Final Energy:  -170.96234237644467
    Total Energy =                       -170.9623423764445818
  @DF-RHF Final Energy:  -170.64815025732810
    Total Energy =                       -170.6481502573280977
  Basis Set: 6-31G*
  Basis Set:
  @DF-RHF Final Energy:  -170.70070292399348
    Total Energy =                       -170.7007029239934752
  Basis Set: 6-31G*
  Basis Set:
  Basis Set: 6-31G*
  Basis Set:
  @DF-RHF Final Energy:  -170.84819090209834
    Total Energy =                       -170.8481909020983665
  Basis Set: 6-31G*
  Basis Set:
  Basis Set: 6-31G*
  Basis Set:
  @DF-RHF Final Energy:  -170.95289341613540
    Total Energy =                       -170.9528934161354528
  Basis Set: 6-31G*
  Basis Set:
  Charge       = 0
  Multiplicity = 1
  Basis Set: 6-31G*
  Basis Set:

    Orbital Energies (a.u.)
    -----------------------

    Doubly Occupied:

       1A    -15.585585     2A    -11.288499     3A    -11.283557
       4A    -11.245476     5A     -1.196476     6A     -1.086083
       7A     -0.916010     8A     -0.711204     9A     -0.660890
      10A     -0.589704    11A     -0.563391    12A     -0.543155
      13A     -0.537893    14A     -0.440545    15A     -0.439894

  @DF-RHF Final Energy:  -170.95174560699624

   => Energetics <=

    Nuclear Repulsion Energy =            102.6743924900459035
    One-Electron Energy =                -433.0755514320939028
    Two-Electron Energy =                 159.4494133350516449
    DFT Exchange-Correlation Energy =       0.0000000000000000
    Empirical Dispersion Energy =           0.0000000000000000
    PCM Polarization Energy =               0.0000000000000000
    EFP Energy =                            0.0000000000000000
    Total Energy =                       -170.9517456069963828
    Molecular point group: c1
  Basis Set: 6-31G*
  Basis Set:

  -Total Gradient:
     Atom            X                  Y                   Z
    ------   -----------------  -----------------  -----------------
       1        0.002656869818    -0.000021657389     0.000065257712
       2        0.000748647560    -0.002167556599     0.005121639340
       3        0.012954449127    -0.006453370619    -0.002145655079
       4        0.000226986325    -0.000191844528     0.000035149785
       5        0.000536008569     0.003162382162    -0.002946264321
       6       -0.151839359173     0.073655778713     0.008204088021
       7        0.000079868067     0.000717684527     0.001415620083
       8       -0.003369278858     0.000736764119    -0.000726424240
       9        0.138005808566    -0.069438180386    -0.009023411301

    Molecular point group: c1

    Geometry (in Angstrom), charge = 0, multiplicity = 1:

    H           -2.596178869836     0.114669230260    -0.281718857427
    C           -1.630790608447    -0.363740675586    -0.275428271898
    C           -0.575568774769     0.651061692854     0.156651475613
    H           -1.425238181023    -0.742423792356    -1.269594364232
    H           -1.655478446007    -1.195428878891     0.400213850717
    C            0.717061088819     0.034477372761     0.161464869450
    H           -0.538492575879     1.507108559942    -0.505209456809
    H           -0.838426498348     1.031764684901     1.138424358477
    N            1.783936185766    -0.327276052265     0.000691280634

  Mulliken Charges: (a.u.)
   Center  Symbol    Alpha    Beta     Spin     Total
       1     H     0.40885  0.40885  0.00000  0.18230
       2     C     3.24296  3.24296  0.00000 -0.48591
       3     C     3.18570  3.18570  0.00000 -0.37141
       4     H     0.40470  0.40470  0.00000  0.19060
       5     H     0.40396  0.40396  0.00000  0.19209
       6     C     2.84398  2.84398  0.00000  0.31203
       7     H     0.38667  0.38667  0.00000  0.22666
       8     H     0.38736  0.38736  0.00000  0.22528
       9     N     3.73582  3.73582  0.00000 -0.47165

   Total alpha = 15.00000, Total beta = 15.00000, Total charge =  0.00000
