  ==> Input File <==

--------------------------------------------------------------------------
set {
	reference rhf
	basis 6-31G*
}

set_num_threads( 1 )
memory 2 gb

molecule MOL {
0 1

H	 -2.798360	 -0.862255	 -0.071053
N	 -1.863561	 -0.715187	 0.256814
C	 -1.344686	 0.554728	 -0.219830
H	 -1.300452	 -1.461917	 -0.101532
C	 -0.758920	 1.340035	 0.934858
H	 -0.579497	 0.454667	 -0.990852
H	 -2.163618	 1.126152	 -0.645984
O	 0.344221	 0.635944	 1.429250
H	 -0.451285	 2.330183	 0.599289
H	 -1.509257	 1.460561	 1.713127
C	 0.931704	 1.205937	 2.555102
H	 1.766045	 0.580432	 2.842009
H	 1.299876	 2.209038	 2.347210
H	 0.230114	 1.260938	 3.384894

	symmetry c1
}
set optking {
	frozen_dihedral = ("
		8 5 3 6,
		5 8 11 13,
		11 8 5 3
	")
}

ee = energy('scf')
oeprop('DIPOLE', 'QUADRUPOLE', 'MULLIKEN_CHARGES')
f=open( 'psi4out.xyz', 'w' )
f.write( "14  " )
f.write( str(ee) + "\n" )
f.write( MOL.save_string_xyz() )
f.close()
--------------------------------------------------------------------------

    Molecular point group: c1

    Geometry (in Angstrom), charge = 0, multiplicity = 1:

       Center              X                  Y                   Z               Mass
    ------------   -----------------  -----------------  -----------------  -----------------
           H         -2.262819937046    -1.455297941482    -1.068098360722     1.007825032070
           N         -1.328020937046    -1.308229941482    -0.740231360722    14.003074004780
           C         -0.809145937046    -0.038314941482    -1.216875360722    12.000000000000
           H         -0.764911937046    -2.054959941482    -1.098577360722     1.007825032070
           C         -0.223379937046     0.746992058518    -0.062187360722    12.000000000000
           H         -0.043956937046    -0.138375941482    -1.987897360722     1.007825032070
           H         -1.628077937046     0.533109058518    -1.643029360722     1.007825032070
           O          0.879761062954     0.042901058518     0.432204639278    15.994914619560
           H          0.084255062954     1.737140058518    -0.397756360722     1.007825032070
           H         -0.973716937046     0.867518058518     0.716081639278     1.007825032070
           C          1.467244062954     0.612894058518     1.558056639278    12.000000000000
           H          2.301585062954    -0.012610941482     1.844963639278     1.007825032070
           H          1.835416062954     1.615995058518     1.350164639278     1.007825032070
           H          0.765654062954     0.667895058518     2.387848639278     1.007825032070

  Charge       = 0
  Multiplicity = 1
  Basis Set: 6-31G*
  Basis Set:

    Orbital Energies (a.u.)
    -----------------------

    Doubly Occupied:

       1A    -20.546747     2A    -15.530551     3A    -11.258753
       4A    -11.257672     5A    -11.242018     6A     -1.370723
       7A     -1.175464     8A     -0.995306     9A     -0.900968
      10A     -0.811087    11A     -0.681379    12A     -0.669156
      13A     -0.632626    14A     -0.625047    15A     -0.597862
      16A     -0.529634    17A     -0.517472    18A     -0.504293
      19A     -0.465457    20A     -0.408593    21A     -0.380793

  @DF-RHF Final Energy:  -248.11899285509483

   => Energetics <=

    Nuclear Repulsion Energy =            194.0581113539816727
    One-Electron Energy =                -722.1509060069631687
    Two-Electron Energy =                 279.9738017978863809
    DFT Exchange-Correlation Energy =       0.0000000000000000
    Empirical Dispersion Energy =           0.0000000000000000
    PCM Polarization Energy =               0.0000000000000000
    EFP Energy =                            0.0000000000000000
    Total Energy =                       -248.1189928550951436

  Mulliken Charges: (a.u.)
   Center  Symbol    Alpha    Beta     Spin     Total
       1     H     0.33281  0.33281  0.00000  0.33438
       2     N     3.91607  3.91607  0.00000 -0.83214
       3     C     3.08215  3.08215  0.00000 -0.16429
       4     H     0.32865  0.32865  0.00000  0.34270
       5     C     2.97353  2.97353  0.00000  0.05294
       6     H     0.41885  0.41885  0.00000  0.16230
       7     H     0.42470  0.42470  0.00000  0.15060
       8     O     4.30504  4.30504  0.00000 -0.61009
       9     H     0.43693  0.43693  0.00000  0.12613
      10     H     0.42896  0.42896  0.00000  0.14208
      11     C     3.07708  3.07708  0.00000 -0.15415
      12     H     0.41363  0.41363  0.00000  0.17274
      13     H     0.43274  0.43274  0.00000  0.13453
      14     H     0.42886  0.42886  0.00000  0.14228

   Total alpha = 21.00000, Total beta = 21.00000, Total charge =  0.00000
