  ==> Input File <==

--------------------------------------------------------------------------
set {
	reference rhf
	basis cc-pvtz
}

set_num_threads( 4 )
memory 2 gb

molecule MOL {
0 1

H	 -0.929141	 -2.300151	 0.918696
N	 -0.167875	 -1.663851	 0.813014
C	 -0.561396	 -0.500007	 0.035200
H	 0.571270	 -2.161024	 0.361551
C	 0.575129	 0.507849	 -0.048832
H	 -1.409653	 -0.040171	 0.531415
H	 -0.889400	 -0.753894	 -0.973942
C	 1.951750	 -0.141983	 0.035101
H	 0.478254	 1.061643	 -0.975981
H	 0.467676	 1.231891	 0.755499
H	 2.101550	 -0.848142	 -0.774949
H	 2.738260	 0.600794	 -0.026526
H	 2.078939	 -0.679792	 0.968824

	symmetry c1
}
set optking {
	frozen_dihedral = ("
		6 3 5 9
	")
}

ee = optimize('scf')
oeprop('DIPOLE', 'QUADRUPOLE', 'MULLIKEN_CHARGES')
f=open( 'psi4out.xyz', 'w' )
f.write( "13  " )
f.write( str(ee) + "\n" )
f.write( MOL.save_string_xyz() )
f.close()
--------------------------------------------------------------------------

    Molecular point group: c1
  Charge       = 0
  Multiplicity = 1
  Basis Set: CC-PVTZ
  Basis Set:
  @DF-RHF Final Energy:  -173.34481026775671
    Total Energy =                       -173.3448102677565998
    Molecular point group: c1
  Basis Set: CC-PVTZ
  Basis Set:
  Basis Set: CC-PVTZ
  Basis Set:
  @DF-RHF Final Energy:  -173.34554057036988
    Total Energy =                       -173.3455405703699626
  Basis Set: CC-PVTZ
  Basis Set:
  Basis Set: CC-PVTZ
  Basis Set:
  @DF-RHF Final Energy:  -173.34689403612435
    Total Energy =                       -173.3468940361244961
  Basis Set: CC-PVTZ
  Basis Set:
  Basis Set: CC-PVTZ
  Basis Set:
  @DF-RHF Final Energy:  -173.34698878202326
    Total Energy =                       -173.3469887820232032
  Basis Set: CC-PVTZ
  Basis Set:
  Basis Set: CC-PVTZ
  Basis Set:
  @DF-RHF Final Energy:  -173.34699527398675
    Total Energy =                       -173.3469952739867495
  Basis Set: CC-PVTZ
  Basis Set:
  Charge       = 0
  Multiplicity = 1
  Basis Set: CC-PVTZ
  Basis Set:

    Orbital Energies (a.u.)
    -----------------------

    Doubly Occupied:

       1A    -15.526056     2A    -11.239274     3A    -11.210766
       4A    -11.203159     5A     -1.177472     6A     -1.028900
       7A     -0.908349     8A     -0.785619     9A     -0.670358
      10A     -0.641955    11A     -0.579332    12A     -0.561868
      13A     -0.546804    14A     -0.485277    15A     -0.477413
      16A     -0.466456    17A     -0.382281

  @DF-RHF Final Energy:  -173.34699608132243

   => Energetics <=

    Nuclear Repulsion Energy =            134.2516322014336936
    One-Electron Energy =                -499.4145775990191396
    Two-Electron Energy =                 191.8159493162632145
    DFT Exchange-Correlation Energy =       0.0000000000000000
    Empirical Dispersion Energy =           0.0000000000000000
    PCM Polarization Energy =               0.0000000000000000
    EFP Energy =                            0.0000000000000000
    Total Energy =                       -173.3469960813222031
    Molecular point group: c1
  Basis Set: CC-PVTZ
  Basis Set:

  -Total Gradient:
     Atom            X                  Y                   Z
    ------   -----------------  -----------------  -----------------
       1        0.000014629178     0.000022276885    -0.000013145123
       2        0.000047874204    -0.000001637427     0.000009235457
       3       -0.001779371502     0.001677489010    -0.007967508328
       4        0.000002376855    -0.000010020571     0.000026249375
       5       -0.004334532126     0.004935810855     0.005066966993
       6        0.002150701058    -0.002166771209     0.005946021635
       7       -0.000017033560     0.000033658207    -0.000019942418
       8       -0.000012295427    -0.000018114663    -0.000007211467
       9        0.003912792266    -0.004473289553    -0.003034321956
      10       -0.000015096289     0.000029377861     0.000002554774
      11        0.000034348841     0.000005927041    -0.000004014534
      12        0.000000012622    -0.000003595578     0.000004725267
      13       -0.000004406119    -0.000031110856    -0.000009609677

  **** Optimization is complete! (in 6 steps) ****
    Final optimized geometry and variables:
    Molecular point group: c1

    Geometry (in Angstrom), charge = 0, multiplicity = 1:

    H           -1.490960438625    -1.762344459589     0.757183760256
    N           -0.679072843086    -1.198977339651     0.620812091682
    C           -0.997658703698    -0.036100441117    -0.199913793443
    H            0.008636226456    -1.777757026679     0.188125645244
    C            0.141430222932     0.994859976836    -0.226635212489
    H           -1.858925351946     0.417817930560     0.275045896251
    H           -1.272986675493    -0.305281693838    -1.218244290135
    C            1.547098172209     0.393548341428    -0.201395333042
    H            0.061153803216     1.557940731233    -1.151221927203
    H            0.035766330328     1.684746823092     0.601892059009
    H            1.700730328776    -0.290615304293    -1.031451648861
    H            2.291188246230     1.176817806972    -0.288324619985
    H            1.734606411848    -0.144011907344     0.718040139830

  Mulliken Charges: (a.u.)
   Center  Symbol    Alpha    Beta     Spin     Total
       1     H     0.42916  0.42916  0.00000  0.14168
       2     N     3.69274  3.69274  0.00000 -0.38548
       3     C     3.03278  3.03278  0.00000 -0.06556
       4     H     0.42745  0.42745  0.00000  0.14511
       5     C     3.07316  3.07316  0.00000 -0.14632
       6     H     0.45567  0.45567  0.00000  0.08865
       7     H     0.46413  0.46413  0.00000  0.07175
       8     C     3.16180  3.16180  0.00000 -0.32360
       9     H     0.45711  0.45711  0.00000  0.08578
      10     H     0.45412  0.45412  0.00000  0.09177
      11     H     0.45813  0.45813  0.00000  0.08374
      12     H     0.44762  0.44762  0.00000  0.10476
      13     H     0.44614  0.44614  0.00000  0.10771

   Total alpha = 17.00000, Total beta = 17.00000, Total charge = -0.00000
