                              Psi4 1.0.54 Driver

  ==> Input File <==

--------------------------------------------------------------------------
set {
	reference rhf
	basis cc-pvtz
}

set_num_threads( 4 )
memory 2 gb

molecule MOL {
0 1

O	 2.868453	 1.353349	 -0.000734
C	 2.841259	 0.166180	 -0.000295
C	 1.542794	 -0.614730	 -0.000853
C	 4.113372	 -0.651103	 0.000743
C	 0.288398	 0.247429	 0.000314
H	 1.557171	 -1.273139	 -0.866508
H	 1.557484	 -1.274998	 0.863344
C	 0.451035	 1.518635	 0.828984
H	 -0.543274	 -0.335538	 0.379242
H	 0.032350	 0.503844	 -1.021363
C	 -0.800079	 2.392105	 0.838617
H	 0.710123	 1.253852	 1.851744
H	 1.288084	 2.097247	 0.444511
C	 -0.645519	 3.665252	 1.665625
H	 -1.637293	 1.814670	 1.223008
H	 -1.059416	 2.657956	 -0.183242
C	 -1.899777	 4.532780	 1.670507
H	 -0.387452	 3.400439	 2.687493
H	 0.190316	 4.243696	 1.281305
H	 -2.746696	 3.993706	 2.081805
H	 -1.756792	 5.427290	 2.265846
H	 -2.164507	 4.843404	 0.665283
H	 4.145311	 -1.294584	 -0.871587
H	 4.970080	 0.004978	 -0.000091
H	 4.145223	 -1.291980	 0.874988

	symmetry c1
}
set optking {
	frozen_dihedral = ("
		9 5 3 6
	")
}

ee,wfn = optimize('scf', return_wfn=True)
oeprop( wfn, 'DIPOLE', 'QUADRUPOLE', 'MULLIKEN_CHARGES')
f=open( 'psi4out.xyz', 'w' )
f.write( "25  " )
f.write( str(ee) + "\n" )
f.write( MOL.save_string_xyz() )
f.close()
--------------------------------------------------------------------------

    Molecular point group: c1
  Charge       = 0
  Multiplicity = 1
  Basis Set: CC-PVTZ
  Basis Set:
  @DF-RHF Final Energy:  -387.25248081743166
    Total Energy =                       -387.2524808174313193
    Molecular point group: c1
  Basis Set: CC-PVTZ
  Basis Set:
  Basis Set: CC-PVTZ
  Basis Set:
  @DF-RHF Final Energy:  -387.26485140752675
    Total Energy =                       -387.2648514075267485
  Basis Set: CC-PVTZ
  Basis Set:
  Basis Set: CC-PVTZ
  Basis Set:
  @DF-RHF Final Energy:  -387.26723183778290
    Total Energy =                       -387.2672318377830152
  Basis Set: CC-PVTZ
  Basis Set:
  Basis Set: CC-PVTZ
  Basis Set:
  @DF-RHF Final Energy:  -387.26640324606944
    Total Energy =                       -387.2664032460700128
  Basis Set: CC-PVTZ
  Basis Set:
  @DF-RHF Final Energy:  -387.26860716199786
    Total Energy =                       -387.2686071619975792
  @DF-RHF Final Energy:  -387.26823021385979
    Total Energy =                       -387.2682302138598516
  @DF-RHF Final Energy:  -387.26949548159189
    Total Energy =                       -387.2694954815918891
  @DF-RHF Final Energy:  -387.26977516857414
    Total Energy =                       -387.2697751685744834
  Basis Set: CC-PVTZ
  Basis Set:
  @DF-RHF Final Energy:  -387.26983223964112
    Total Energy =                       -387.2698322396411186
  Basis Set: CC-PVTZ
  Basis Set:
  Basis Set: CC-PVTZ
  Basis Set:
  @DF-RHF Final Energy:  -387.26984632444737
    Total Energy =                       -387.2698463244473714
  Basis Set: CC-PVTZ
  Basis Set:
  Basis Set: CC-PVTZ
  Basis Set:
  @DF-RHF Final Energy:  -387.26984758538697
    Total Energy =                       -387.2698475853866285
  Basis Set: CC-PVTZ
  Basis Set:
  Charge       = 0
  Multiplicity = 1
  Basis Set: CC-PVTZ
  Basis Set:

    Orbital Energies (a.u.)
    -----------------------

    Doubly Occupied:

       1A    -20.536874     2A    -11.321065     3A    -11.231006
       4A    -11.227211     5A    -11.219980     6A    -11.210352
       7A    -11.208987     8A    -11.208063     9A    -11.204259
      10A     -1.398265    11A     -1.092214    12A     -1.055628
      13A     -1.014239    14A     -0.968922    15A     -0.890730
      16A     -0.816900    17A     -0.789100    18A     -0.725293
      19A     -0.668389    20A     -0.639887    21A     -0.634550
      22A     -0.623298    23A     -0.599137    24A     -0.585256
      25A     -0.568136    26A     -0.561460    27A     -0.536217
      28A     -0.530882    29A     -0.516094    30A     -0.495442
      31A     -0.485290    32A     -0.475520    33A     -0.461449
      34A     -0.459731    35A     -0.441649    36A     -0.398602

  @DF-RHF Final Energy:  -387.26984827886423

   => Energetics <=

    Nuclear Repulsion Energy =            450.5813278542554485
    One-Electron Energy =               -1418.1022014697930445
    Two-Electron Energy =                 580.2510253366731376
    DFT Exchange-Correlation Energy =       0.0000000000000000
    Empirical Dispersion Energy =           0.0000000000000000
    PCM Polarization Energy =               0.0000000000000000
    EFP Energy =                            0.0000000000000000
    Total Energy =                       -387.2698482788644014
    Molecular point group: c1
  Basis Set: CC-PVTZ
  Basis Set:

  -Total Gradient:
     Atom            X                  Y                   Z
    ------   -----------------  -----------------  -----------------
       1        0.000000062485    -0.000001110912     0.000052564483
       2       -0.000003266784    -0.000026201610    -0.000051716497
       3       -0.004315390383    -0.005179858817     0.005734510753
       4        0.000007343048     0.000003020174    -0.000028435550
       5       -0.001100574001    -0.001186876452    -0.008454995349
       6        0.003782260363     0.004495619415    -0.003572251791
       7       -0.000006088141     0.000008930169     0.000003117841
       8       -0.000016326416    -0.000035929935    -0.000024522099
       9        0.001614671098     0.001871496575     0.006324013565
      10        0.000008636146    -0.000006529411     0.000008281034
      11       -0.000003154082     0.000008574599    -0.000003568670
      12       -0.000002645672    -0.000003242823    -0.000001975363
      13        0.000021524828     0.000015798745    -0.000008012483
      14        0.000000766605    -0.000001378451     0.000009926698
      15        0.000013429633    -0.000006923468     0.000001504955
      16       -0.000001053868    -0.000003882860    -0.000001956716
      17        0.000004774775     0.000006659923    -0.000007596366
      18       -0.000001899139    -0.000002092178     0.000004194725
      19        0.000000124425     0.000002421148     0.000002876797
      20        0.000003174546    -0.000001517201     0.000003077951
      21       -0.000000405533     0.000003154184    -0.000001128106
      22       -0.000003349396     0.000001439723    -0.000003085377
      23       -0.000008142905     0.000023852745    -0.000003114055
      24        0.000013832122    -0.000001711674     0.000011487249
      25       -0.000008303754     0.000016288389     0.000006802367

  **** Optimization is complete! (in 12 steps) ****
    Final optimized geometry and variables:
    Molecular point group: c1

    Geometry (in Angstrom), charge = 0, multiplicity = 1:

    O            2.033018982836    -0.413591636882    -1.432552935963
    C            1.851182071786    -1.382883709107    -0.770391401298
    C            0.469670402859    -1.992545374447    -0.601950635086
    C            2.995124335987    -2.109505240420    -0.104382204000
    C           -0.698281558903    -0.999196141574    -0.593175490120
    H            0.392497507863    -2.630099561382    -1.481123341889
    H            0.450760044089    -2.630774711856     0.272783937954
    C           -0.501457261802     0.214728507734     0.318714011085
    H           -1.565376550342    -1.530461725974    -0.212375196129
    H           -0.916010591943    -0.669269586619    -1.600459790052
    C           -1.755477264859     1.079094020756     0.417948046652
    H           -0.227199146202    -0.128185129848     1.315490130420
    H            0.320732471765     0.818155636001    -0.041501585843
    C           -1.577585089011     2.301508631105     1.314006960495
    H           -2.582980788731     0.479744505931     0.791227419517
    H           -2.042676965205     1.406314189914    -0.578590603657
    C           -2.831391688015     3.164760590977     1.406665383126
    H           -1.289905823227     1.977192749709     2.310632821912
    H           -0.753490212650     2.902288843851     0.940046046785
    H           -3.666234701364     2.601200063414     1.810265768836
    H           -2.671152358801     4.023118287184     2.049052321281
    H           -3.125206212324     3.533639504785     0.429566280570
    H            2.965234078316    -3.166475474974    -0.345495167557
    H            3.936815559328    -1.684978050748    -0.416772885612
    H            2.896464744151    -2.023233870142     0.972961579572

  Mulliken Charges: (a.u.)
   Center  Symbol    Alpha    Beta     Spin     Total
       1     O     4.17858  4.17858  0.00000 -0.35715
       2     C     2.85106  2.85106  0.00000  0.29789
       3     C     3.12556  3.12556  0.00000 -0.25113
       4     C     3.15285  3.15285  0.00000 -0.30570
       5     C     3.08492  3.08492  0.00000 -0.16984
       6     H     0.43717  0.43717  0.00000  0.12566
       7     H     0.44111  0.44111  0.00000  0.11778
       8     C     3.09954  3.09954  0.00000 -0.19909
       9     H     0.44965  0.44965  0.00000  0.10071
      10     H     0.44576  0.44576  0.00000  0.10849
      11     C     3.08821  3.08821  0.00000 -0.17642
      12     H     0.45954  0.45954  0.00000  0.08092
      13     H     0.43688  0.43688  0.00000  0.12624
      14     C     3.08317  3.08317  0.00000 -0.16635
      15     H     0.45672  0.45672  0.00000  0.08657
      16     H     0.45392  0.45392  0.00000  0.09216
      17     C     3.15091  3.15091  0.00000 -0.30181
      18     H     0.45616  0.45616  0.00000  0.08769
      19     H     0.45259  0.45259  0.00000  0.09482
      20     H     0.45608  0.45608  0.00000  0.08784
      21     H     0.44866  0.44866  0.00000  0.10267
      22     H     0.45474  0.45474  0.00000  0.09053
      23     H     0.45007  0.45007  0.00000  0.09986
      24     H     0.43643  0.43643  0.00000  0.12713
      25     H     0.44973  0.44973  0.00000  0.10054

   Total alpha = 36.00000, Total beta = 36.00000, Total charge =  0.00000

*** Psi4 exiting successfully. Buy a developer a beer!
