                              Psi4 1.0.54 Driver

  ==> Input File <==

--------------------------------------------------------------------------
set {
	reference rhf
	basis cc-pvtz
}

set_num_threads( 4 )
memory 2 gb

molecule MOL {
0 1

H	 1.886857	 -0.703911	 -2.402733
C	 1.160351	 -0.899152	 -1.624691
C	 1.322304	 0.099773	 -0.484271
H	 0.173359	 -0.834055	 -2.068515
H	 1.307480	 -1.916850	 -1.281202
C	 0.308557	 -0.162619	 0.622645
H	 1.187881	 1.109724	 -0.851235
H	 2.320388	 0.033145	 -0.069147
N	 -1.069352	 -0.004081	 0.085342
H	 0.371632	 -1.172932	 0.991288
H	 0.400391	 0.548875	 1.426218
O	 -1.584901	 -0.965470	 -0.377818
O	 -1.548033	 1.079343	 0.130056

	symmetry c1
}
set optking {
	frozen_dihedral = ("
		7 3 6 9
	")
}

ee,wfn = optimize('scf', return_wfn=True)
oeprop( wfn, 'DIPOLE', 'QUADRUPOLE', 'MULLIKEN_CHARGES')
f=open( 'psi4out.xyz', 'w' )
f.write( "13  " )
f.write( str(ee) + "\n" )
f.write( MOL.save_string_xyz() )
f.close()
--------------------------------------------------------------------------

    Molecular point group: c1
  Charge       = 0
  Multiplicity = 1
  Basis Set: CC-PVTZ
  Basis Set:
  @DF-RHF Final Energy:  -321.85879567607037
    Total Energy =                       -321.8587956760702582
    Molecular point group: c1
  Basis Set: CC-PVTZ
  Basis Set:
  Basis Set: CC-PVTZ
  Basis Set:
  @DF-RHF Final Energy:  -321.85986199901174
    Total Energy =                       -321.8598619990119687
  Basis Set: CC-PVTZ
  Basis Set:
  Basis Set: CC-PVTZ
  Basis Set:
  @DF-RHF Final Energy:  -321.85542518292294
    Total Energy =                       -321.8554251829228861
  Basis Set: CC-PVTZ
  Basis Set:
  Basis Set: CC-PVTZ
  Basis Set:
  @DF-RHF Final Energy:  -321.86040874939960
    Total Energy =                       -321.8604087493998804
  Basis Set: CC-PVTZ
  Basis Set:
  @DF-RHF Final Energy:  -321.86080789400296
    Total Energy =                       -321.8608078940028463
  @DF-RHF Final Energy:  -321.86093798506784
    Total Energy =                       -321.8609379850679488
  @DF-RHF Final Energy:  -321.86118568412769
    Total Energy =                       -321.8611856841278609
  Basis Set: CC-PVTZ
  Basis Set:
  @DF-RHF Final Energy:  -321.86126825415545
    Total Energy =                       -321.8612682541553909
  Basis Set: CC-PVTZ
  Basis Set:
  Basis Set: CC-PVTZ
  Basis Set:
  @DF-RHF Final Energy:  -321.86129643043910
    Total Energy =                       -321.8612964304392108
  Basis Set: CC-PVTZ
  Basis Set:
  Basis Set: CC-PVTZ
  Basis Set:
  @DF-RHF Final Energy:  -321.86130004160214
    Total Energy =                       -321.8613000416020782
  Basis Set: CC-PVTZ
  Basis Set:
  Charge       = 0
  Multiplicity = 1
  Basis Set: CC-PVTZ
  Basis Set:

    Orbital Energies (a.u.)
    -----------------------

    Doubly Occupied:

       1A    -20.593093     2A    -20.589212     3A    -15.837274
       4A    -11.297679     5A    -11.251863     6A    -11.229509
       7A     -1.636725     8A     -1.420925     9A     -1.132667
      10A     -1.021525    11A     -0.894464    12A     -0.823550
      13A     -0.760842    14A     -0.742059    15A     -0.729443
      16A     -0.651053    17A     -0.619908    18A     -0.595148
      19A     -0.532242    20A     -0.518386    21A     -0.512805
      22A     -0.487642    23A     -0.475128    24A     -0.454410

  @DF-RHF Final Energy:  -321.86130035265688

   => Energetics <=

    Nuclear Repulsion Energy =            253.2748845351465548
    One-Electron Energy =                -940.6572674134646377
    Two-Electron Energy =                 365.5210825256614271
    DFT Exchange-Correlation Energy =       0.0000000000000000
    Empirical Dispersion Energy =           0.0000000000000000
    PCM Polarization Energy =               0.0000000000000000
    EFP Energy =                            0.0000000000000000
    Total Energy =                       -321.8613003526567127
    Molecular point group: c1
  Basis Set: CC-PVTZ
  Basis Set:

  -Total Gradient:
     Atom            X                  Y                   Z
    ------   -----------------  -----------------  -----------------
       1       -0.000002230175     0.000002225494    -0.000000362276
       2       -0.000001965361    -0.000006485542     0.000003714911
       3        0.000239283314     0.000157671361     0.000219192571
       4        0.000000205255     0.000000648019    -0.000000997292
       5        0.000000309568     0.000002254133     0.000000777682
       6       -0.000033881045    -0.000276120014    -0.000099722698
       7       -0.000194544043    -0.000075623672    -0.000161617730
       8        0.000001231819    -0.000002310223     0.000001433764
       9       -0.000004565462     0.000199573819     0.000040640436
      10        0.000006657963    -0.000002750413    -0.000000732734
      11       -0.000006406205    -0.000000443237    -0.000005619698
      12        0.000005662752     0.000014155582    -0.000002413176
      13       -0.000009758379    -0.000012795305     0.000005706241

  **** Optimization is complete! (in 11 steps) ****
    Final optimized geometry and variables:
    Molecular point group: c1

    Geometry (in Angstrom), charge = 0, multiplicity = 1:

    H            2.034396829846    -0.453275259936    -2.369122583074
    C            1.341449776727    -0.697994402009    -1.574259591972
    C            1.563881666715     0.221866832042    -0.378247314118
    H            0.338319017614    -0.598322719493    -1.971177700932
    H            1.492926683164    -1.737420427709    -1.306025222736
    C            0.661025731027    -0.085578543708     0.807508171653
    H            1.425017041635     1.255006290970    -0.665681840633
    H            2.582881105344     0.123698554710    -0.020676038095
    N           -0.774211579479     0.131226794695     0.463928321866
    H            0.733806928938    -1.109463615338     1.131302212676
    H            0.856355749925     0.584119033371     1.631115593926
    O           -1.504483913668    -0.797828802718     0.541796563386
    O           -1.089634415593     1.226321216718     0.136029199905

  Mulliken Charges: (a.u.)
   Center  Symbol    Alpha    Beta     Spin     Total
       1     H     0.44503  0.44503  0.00000  0.10994
       2     C     3.14460  3.14460  0.00000 -0.28920
       3     C     3.09904  3.09904  0.00000 -0.19808
       4     H     0.44539  0.44539  0.00000  0.10921
       5     H     0.45255  0.45255  0.00000  0.09491
       6     C     3.04906  3.04906  0.00000 -0.09811
       7     H     0.43685  0.43685  0.00000  0.12631
       8     H     0.44521  0.44521  0.00000  0.10958
       9     N     3.27967  3.27967  0.00000  0.44067
      10     H     0.43175  0.43175  0.00000  0.13650
      11     H     0.42828  0.42828  0.00000  0.14344
      12     O     4.16829  4.16829  0.00000 -0.33658
      13     O     4.17429  4.17429  0.00000 -0.34858

   Total alpha = 24.00000, Total beta = 24.00000, Total charge =  0.00000

*** Psi4 exiting successfully. Buy a developer a beer!
