  ==> Input File <==

--------------------------------------------------------------------------
set {
	reference rhf
	basis cc-pvtz
}

set_num_threads( 4 )
memory 2 gb

molecule MOL {
0 1

H	 -2.816458	 -0.841657	 -0.064679
N	 -1.878861	 -0.711874	 0.250184
C	 -1.341419	 0.551458	 -0.220231
H	 -1.333674	 -1.468530	 -0.105118
C	 -0.258165	 0.316791	 -1.247917
H	 -2.093853	 1.206464	 -0.657673
H	 -0.902434	 1.076695	 0.620881
O	 -0.827407	 -0.280124	 -2.373690
H	 0.204189	 1.264470	 -1.520509
H	 0.509853	 -0.329038	 -0.828414
C	 0.080582	 -0.612175	 -3.370945
H	 -0.469661	 -1.060057	 -4.185820
H	 0.601605	 0.267357	 -3.743307
H	 0.820518	 -1.324727	 -3.014117

	symmetry c1
}
set optking {
	frozen_dihedral = ("
		6 3 2 4
	")
}

ee = optimize('scf')
oeprop('DIPOLE', 'QUADRUPOLE', 'MULLIKEN_CHARGES')
f=open( 'psi4out.xyz', 'w' )
f.write( "14  " )
f.write( str(ee) + "\n" )
f.write( MOL.save_string_xyz() )
f.close()
--------------------------------------------------------------------------

    Molecular point group: c1
  Charge       = 0
  Multiplicity = 1
  Basis Set: CC-PVTZ
  Basis Set:
  @DF-RHF Final Energy:  -248.22023969797343
    Total Energy =                       -248.2202396979735681
    Molecular point group: c1
  Basis Set: CC-PVTZ
  Basis Set:
  Basis Set: CC-PVTZ
  Basis Set:
  @DF-RHF Final Energy:  -248.22136602717788
    Total Energy =                       -248.2213660271779077
  Basis Set: CC-PVTZ
  Basis Set:
  Basis Set: CC-PVTZ
  Basis Set:
  @DF-RHF Final Energy:  -248.22155020613786
    Total Energy =                       -248.2215502061379766
  Basis Set: CC-PVTZ
  Basis Set:
  Basis Set: CC-PVTZ
  Basis Set:
  @DF-RHF Final Energy:  -248.22155514693927
    Total Energy =                       -248.2215551469391812
  Basis Set: CC-PVTZ
  Basis Set:
  Charge       = 0
  Multiplicity = 1
  Basis Set: CC-PVTZ
  Basis Set:

    Orbital Energies (a.u.)
    -----------------------

    Doubly Occupied:

       1A    -20.554014     2A    -15.522637     3A    -11.269526
       4A    -11.267167     5A    -11.240701     6A     -1.388596
       7A     -1.174518     8A     -1.002749     9A     -0.911042
      10A     -0.823169    11A     -0.689032    12A     -0.667309
      13A     -0.654291    14A     -0.630744    15A     -0.582587
      16A     -0.549901    17A     -0.537623    18A     -0.505443
      19A     -0.473452    20A     -0.423918    21A     -0.382819

  @DF-RHF Final Energy:  -248.22155554994225

   => Energetics <=

    Nuclear Repulsion Energy =            194.2592223790067578
    One-Electron Energy =                -722.4590841398321572
    Two-Electron Energy =                 279.9783062108832610
    DFT Exchange-Correlation Energy =       0.0000000000000000
    Empirical Dispersion Energy =           0.0000000000000000
    PCM Polarization Energy =               0.0000000000000000
    EFP Energy =                            0.0000000000000000
    Total Energy =                       -248.2215555499420816
    Molecular point group: c1
  Basis Set: CC-PVTZ
  Basis Set:

  -Total Gradient:
     Atom            X                  Y                   Z
    ------   -----------------  -----------------  -----------------
       1       -0.000012044219    -0.000008517935     0.000014334378
       2        0.001206743387     0.000019298666     0.001184217513
       3       -0.000507723845     0.000667704338     0.001245016882
       4       -0.000887616443    -0.000055550716    -0.001228001793
       5       -0.000013403420    -0.000040097891     0.000060885384
       6        0.000193400861    -0.000601671787    -0.001237131939
       7        0.000001406515    -0.000005683160     0.000020658867
       8        0.000023472680     0.000021884002    -0.000019018763
       9       -0.000009212107    -0.000002606083    -0.000028175229
      10        0.000013426215     0.000002771201    -0.000001743428
      11       -0.000014861404     0.000011359062    -0.000006738021
      12        0.000004999637    -0.000004123513    -0.000005359255
      13        0.000002951577    -0.000002967146    -0.000003841445
      14       -0.000001539435    -0.000001799038     0.000004896844

  **** Optimization is complete! (in 5 steps) ****
    Final optimized geometry and variables:
    Molecular point group: c1

    Geometry (in Angstrom), charge = 0, multiplicity = 1:

    H           -2.017169241353    -0.620953406052     1.377935833821
    N           -1.084968922667    -0.517120859625     1.713488826030
    C           -0.484120348781     0.705008301622     1.193283182367
    H           -0.588616105670    -1.321687945078     1.395129217734
    C            0.590598831604     0.469626719016     0.152130592190
    H           -1.249766123015     1.330062163386     0.748863330400
    H           -0.036848926222     1.270365374546     2.005264161565
    O            0.033981405924    -0.141070729160    -0.969120071757
    H            1.045659400557     1.420928233036    -0.120452696906
    H            1.379155534035    -0.159561171685     0.568125643744
    C            0.940789984826    -0.418707154017    -1.984103488585
    H            0.400069613139    -0.888445918919    -2.792877442594
    H            1.410864652129     0.488195846811    -2.358095594209
    H            1.722633636366    -1.095653582165    -1.646298564432

  Mulliken Charges: (a.u.)
   Center  Symbol    Alpha    Beta     Spin     Total
       1     H     0.42740  0.42740  0.00000  0.14520
       2     N     3.68910  3.68910  0.00000 -0.37821
       3     C     3.01739  3.01739  0.00000 -0.03477
       4     H     0.42991  0.42991  0.00000  0.14018
       5     C     2.97678  2.97678  0.00000  0.04643
       6     H     0.45843  0.45843  0.00000  0.08314
       7     H     0.46380  0.46380  0.00000  0.07240
       8     O     4.17677  4.17677  0.00000 -0.35354
       9     H     0.46762  0.46762  0.00000  0.06476
      10     H     0.47225  0.47225  0.00000  0.05550
      11     C     3.03168  3.03168  0.00000 -0.06337
      12     H     0.44655  0.44655  0.00000  0.10689
      13     H     0.47073  0.47073  0.00000  0.05854
      14     H     0.47158  0.47158  0.00000  0.05684

   Total alpha = 21.00000, Total beta = 21.00000, Total charge =  0.00000
