  ==> Input File <==

--------------------------------------------------------------------------
set {
	reference rhf
	basis 6-31G*
}

set_num_threads( 4 )
memory 2 gb

molecule MOL {
0 1

H	 -3.778205	 0.086417	 -0.453884
O	 -2.938238	 0.428725	 -0.724172
C	 -2.026376	 0.340750	 0.341611
C	 -0.673256	 0.843270	 -0.132153
H	 -2.367123	 0.941808	 1.182775
H	 -1.940532	 -0.688763	 0.687135
C	 0.486613	 -0.083066	 0.235839
H	 -0.715586	 0.970948	 -1.210718
H	 -0.508072	 1.829858	 0.297090
C	 1.840406	 0.433480	 -0.254303
H	 0.300215	 -1.068318	 -0.178947
H	 0.519509	 -0.203625	 1.318070
C	 3.000220	 -0.489290	 0.118523
H	 1.809207	 0.553576	 -1.335192
H	 2.021860	 1.424500	 0.157276
H	 2.864959	 -1.479103	 -0.307933
H	 3.946603	 -0.099227	 -0.243630
H	 3.080049	 -0.602997	 1.196117

	symmetry c1
}
set optking {
	frozen_dihedral = ("
		2 3 4 8
	")
}

ee = optimize('scf')
oeprop('DIPOLE', 'QUADRUPOLE', 'MULLIKEN_CHARGES')
f=open( 'psi4out.xyz', 'w' )
f.write( "18  " )
f.write( str(ee) + "\n" )
f.write( MOL.save_string_xyz() )
f.close()
--------------------------------------------------------------------------

    Molecular point group: c1
  Charge       = 0
  Multiplicity = 1
  Basis Set: 6-31G*
  Basis Set:
  @DF-RHF Final Energy:  -271.17408738538643
    Total Energy =                       -271.1740873853862013
    Molecular point group: c1
  Basis Set: 6-31G*
  Basis Set:
  Basis Set: 6-31G*
  Basis Set:
  @DF-RHF Final Energy:  -271.17444788157547
    Total Energy =                       -271.1744478815753610
  Basis Set: 6-31G*
  Basis Set:
  Basis Set: 6-31G*
  Basis Set:
  @DF-RHF Final Energy:  -271.17452385229160
    Total Energy =                       -271.1745238522918271
  Basis Set: 6-31G*
  Basis Set:
  Charge       = 0
  Multiplicity = 1
  Basis Set: 6-31G*
  Basis Set:

    Orbital Energies (a.u.)
    -----------------------

    Doubly Occupied:

       1A    -20.551476     2A    -11.267487     3A    -11.215120
       4A    -11.214433     5A    -11.210604     6A    -11.208137
       7A     -1.357607     8A     -1.078578     9A     -1.008650
      10A     -0.912666    11A     -0.820648    12A     -0.791848
      13A     -0.698846    14A     -0.647294    15A     -0.625216
      16A     -0.582258    17A     -0.570757    18A     -0.559545
      19A     -0.528125    20A     -0.496532    21A     -0.489516
      22A     -0.469268    23A     -0.462941    24A     -0.451162
      25A     -0.428179

  @DF-RHF Final Energy:  -271.17452450718343

   => Energetics <=

    Nuclear Repulsion Energy =            245.3670152542139817
    One-Electron Energy =                -853.7892919319456269
    Two-Electron Energy =                 337.2477521705481536
    DFT Exchange-Correlation Energy =       0.0000000000000000
    Empirical Dispersion Energy =           0.0000000000000000
    PCM Polarization Energy =               0.0000000000000000
    EFP Energy =                            0.0000000000000000
    Total Energy =                       -271.1745245071834347
    Molecular point group: c1
  Basis Set: 6-31G*
  Basis Set:

  -Total Gradient:
     Atom            X                  Y                   Z
    ------   -----------------  -----------------  -----------------
       1       -0.000044739910    -0.000000799993    -0.000005858094
       2        0.000558152632    -0.002042852431    -0.000609794373
       3       -0.000852889644     0.003274768698     0.000927576852
       4        0.001249307318    -0.003872470792    -0.000577497754
       5       -0.000046021698     0.000012949934    -0.000017440566
       6        0.000051091572     0.000017999103     0.000006991379
       7        0.000000871861    -0.000047646330    -0.000020105901
       8       -0.000889573189     0.002673357812     0.000354512158
       9       -0.000020415143    -0.000008272211     0.000002345864
      10       -0.000004184585     0.000019557458    -0.000017809313
      11       -0.000020486041    -0.000029280033    -0.000049898957
      12       -0.000020483368    -0.000034439114    -0.000034064355
      13        0.000017375167     0.000038452118     0.000049982525
      14        0.000014648658    -0.000035781163     0.000004867933
      15        0.000004604644     0.000021799019    -0.000026890024
      16       -0.000010424730     0.000021399572    -0.000007514254
      17        0.000007536438     0.000004281129     0.000014098988
      18        0.000005630017    -0.000013022778     0.000006497893

  **** Optimization is complete! (in 4 steps) ****
    Final optimized geometry and variables:
    Molecular point group: c1

    Geometry (in Angstrom), charge = 0, multiplicity = 1:

    H           -3.696221368054    -0.083998317527    -0.327493711376
    O           -2.841157278793     0.182861465622    -0.634266147654
    C           -1.916167686639     0.100085148868     0.422255382061
    C           -0.554147721569     0.595454313303    -0.076848058930
    H           -2.253281108684     0.690707608050     1.271088502682
    H           -1.836590570493    -0.931834998745     0.760515772378
    C            0.608312913924    -0.324627701787     0.296952113536
    H           -0.622826068288     0.708422874109    -1.153518550932
    H           -0.363233988179     1.592001060378     0.313765096177
    C            1.965399670141     0.200649865225    -0.172747356505
    H            0.435266135945    -1.310913634839    -0.130024933695
    H            0.632261566280    -0.460307066185     1.377704298039
    C            3.125547833708    -0.719163529733     0.206075203598
    H            1.944934672065     0.330829179392    -1.252491211606
    H            2.135324234824     1.188518299613     0.250177192336
    H            3.003178448614    -1.705412051456    -0.232638706843
    H            4.073798532120    -0.319202143216    -0.139474749053
    H            3.192122247358    -0.843484382491     1.283362309297

  Mulliken Charges: (a.u.)
   Center  Symbol    Alpha    Beta     Spin     Total
       1     H     0.28201  0.28201  0.00000  0.43598
       2     O     4.37140  4.37140  0.00000 -0.74279
       3     C     2.99434  2.99434  0.00000  0.01133
       4     C     3.16570  3.16570  0.00000 -0.33140
       5     H     0.43041  0.43041  0.00000  0.13917
       6     H     0.42976  0.42976  0.00000  0.14048
       7     C     3.15816  3.15816  0.00000 -0.31631
       8     H     0.40376  0.40376  0.00000  0.19247
       9     H     0.42031  0.42031  0.00000  0.15938
      10     C     3.15206  3.15206  0.00000 -0.30412
      11     H     0.42067  0.42067  0.00000  0.15866
      12     H     0.42533  0.42533  0.00000  0.14935
      13     C     3.23935  3.23935  0.00000 -0.47871
      14     H     0.42100  0.42100  0.00000  0.15800
      15     H     0.42291  0.42291  0.00000  0.15418
      16     H     0.42144  0.42144  0.00000  0.15712
      17     H     0.41908  0.41908  0.00000  0.16183
      18     H     0.42231  0.42231  0.00000  0.15538

   Total alpha = 25.00000, Total beta = 25.00000, Total charge = -0.00000
