                              Psi4 1.0.54 Driver

  ==> Input File <==

--------------------------------------------------------------------------
set {
	reference rhf
	basis cc-pvtz
}

set_num_threads( 4 )
memory 2 gb

molecule MOL {
0 1

H	 -1.754479	 1.152525	 -0.009653
N	 -1.851927	 0.161443	 -0.071573
C	 -0.561396	 -0.500007	 0.035200
H	 -2.283110	 -0.037970	 -0.950009
C	 0.575129	 0.507849	 -0.048832
H	 -0.478089	 -1.200753	 -0.788956
H	 -0.456191	 -1.081816	 0.952176
C	 1.951750	 -0.141983	 0.035101
H	 0.478254	 1.061643	 -0.975981
H	 0.467676	 1.231891	 0.755499
H	 2.101550	 -0.848142	 -0.774949
H	 2.738260	 0.600794	 -0.026526
H	 2.078939	 -0.679792	 0.968824

	symmetry c1
}
set optking {
	frozen_dihedral = ("
		1 2 3 6
	")
}

ee,wfn = optimize('scf', return_wfn=True)
oeprop( wfn, 'DIPOLE', 'QUADRUPOLE', 'MULLIKEN_CHARGES')
f=open( 'psi4out.xyz', 'w' )
f.write( "13  " )
f.write( str(ee) + "\n" )
f.write( MOL.save_string_xyz() )
f.close()
--------------------------------------------------------------------------

    Molecular point group: c1
  Charge       = 0
  Multiplicity = 1
  Basis Set: CC-PVTZ
  Basis Set:
  @DF-RHF Final Energy:  -173.34795247304669
    Total Energy =                       -173.3479524730466323
    Molecular point group: c1
  Basis Set: CC-PVTZ
  Basis Set:
  Basis Set: CC-PVTZ
  Basis Set:
  @DF-RHF Final Energy:  -173.34882477801725
    Total Energy =                       -173.3488247780172742
  Basis Set: CC-PVTZ
  Basis Set:
  Basis Set: CC-PVTZ
  Basis Set:
  @DF-RHF Final Energy:  -173.34900333350973
    Total Energy =                       -173.3490033335096996
  Basis Set: CC-PVTZ
  Basis Set:
  Basis Set: CC-PVTZ
  Basis Set:
  @DF-RHF Final Energy:  -173.34900638629506
    Total Energy =                       -173.3490063862950024
  Basis Set: CC-PVTZ
  Basis Set:
  Charge       = 0
  Multiplicity = 1
  Basis Set: CC-PVTZ
  Basis Set:

    Orbital Energies (a.u.)
    -----------------------

    Doubly Occupied:

       1A    -15.524201     2A    -11.238397     3A    -11.216235
       4A    -11.210235     5A     -1.176044     6A     -1.038946
       7A     -0.900631     8A     -0.807681     9A     -0.666927
      10A     -0.621925    11A     -0.606458    12A     -0.556254
      13A     -0.543099    14A     -0.501348    15A     -0.484285
      16A     -0.471082    17A     -0.379002

  @DF-RHF Final Energy:  -173.34900681230914

   => Energetics <=

    Nuclear Repulsion Energy =            131.8891260631701812
    One-Electron Energy =                -494.5907691955634391
    Two-Electron Energy =                 189.3526363200840592
    DFT Exchange-Correlation Energy =       0.0000000000000000
    Empirical Dispersion Energy =           0.0000000000000000
    PCM Polarization Energy =               0.0000000000000000
    EFP Energy =                            0.0000000000000000
    Total Energy =                       -173.3490068123091987
    Molecular point group: c1
  Basis Set: CC-PVTZ
  Basis Set:

  -Total Gradient:
     Atom            X                  Y                   Z
    ------   -----------------  -----------------  -----------------
       1        0.000128673555     0.000111869728    -0.001487927745
       2       -0.000049726297     0.000133276554     0.001682028392
       3       -0.000617906751    -0.001211215029     0.000586094549
       4        0.000003738819     0.000000564560    -0.000014649034
       5       -0.000037262502    -0.000015951911    -0.000015568176
       6        0.000530765636     0.000980877566    -0.000778721039
       7        0.000022845033    -0.000003104628     0.000006850781
       8        0.000004148615     0.000007107351     0.000024620035
       9       -0.000010737843    -0.000005104912     0.000003390674
      10        0.000007749215     0.000003984088    -0.000008560788
      11       -0.000006580574     0.000009602394     0.000004533617
      12        0.000015046220    -0.000004166825     0.000003479851
      13        0.000009246878    -0.000007738936    -0.000005571117

  **** Optimization is complete! (in 5 steps) ****
    Final optimized geometry and variables:
    Molecular point group: c1

    Geometry (in Angstrom), charge = 0, multiplicity = 1:

    H           -1.794386626035     1.168260888982     0.014811642001
    N           -1.881591922487     0.177381374641    -0.054153893527
    C           -0.580160606854    -0.481380394282     0.017008301930
    H           -2.342526297653    -0.014803567109    -0.915830018176
    C            0.596927667869     0.486333359769    -0.024113906400
    H           -0.484069795671    -1.181798858682    -0.806582628899
    H           -0.523132949785    -1.065544418265     0.930628198618
    C            1.945525735940    -0.211181756433     0.113144102205
    H            0.564916700623     1.045279754121    -0.955526691453
    H            0.482848225883     1.212143675459     0.777463123692
    H            2.103080725432    -0.921408365183    -0.691761014461
    H            2.760098291961     0.502900736120     0.086891551880
    H            2.011984797764    -0.754097912328     1.049756775451

  Mulliken Charges: (a.u.)
   Center  Symbol    Alpha    Beta     Spin     Total
       1     H     0.42881  0.42881  0.00000  0.14239
       2     N     3.69524  3.69524  0.00000 -0.39048
       3     C     3.01476  3.01476  0.00000 -0.02952
       4     H     0.42798  0.42798  0.00000  0.14404
       5     C     3.08576  3.08576  0.00000 -0.17152
       6     H     0.46265  0.46265  0.00000  0.07469
       7     H     0.46227  0.46227  0.00000  0.07545
       8     C     3.15268  3.15268  0.00000 -0.30537
       9     H     0.45704  0.45704  0.00000  0.08592
      10     H     0.45551  0.45551  0.00000  0.08899
      11     H     0.45546  0.45546  0.00000  0.08909
      12     H     0.44793  0.44793  0.00000  0.10413
      13     H     0.45391  0.45391  0.00000  0.09219

   Total alpha = 17.00000, Total beta = 17.00000, Total charge =  0.00000

*** Psi4 exiting successfully. Buy a developer a beer!
