  ==> Input File <==

--------------------------------------------------------------------------
set {
	reference rhf
	basis 6-31G*
}

set_num_threads( 4 )
memory 2 gb

molecule MOL {
0 1

H	 2.339307	 -0.094662	 -0.137094
O	 1.581851	 -0.671673	 -0.144097
C	 0.489431	 0.077273	 0.000046
C	 -0.764129	 -0.759190	 0.000191
O	 0.541383	 1.258527	 0.111877
C	 -2.038368	 0.075731	 -0.000248
H	 -0.717284	 -1.412404	 -0.866059
H	 -0.717458	 -1.411724	 0.866967
H	 -2.086483	 0.712501	 -0.875098
H	 -2.908485	 -0.571682	 -0.000042
H	 -2.086576	 0.713280	 0.874068

	symmetry c1
}
set optking {
	frozen_dihedral = ("
		2 3 4 7
	")
}

ee = optimize('scf')
oeprop('DIPOLE', 'QUADRUPOLE', 'MULLIKEN_CHARGES')
f=open( 'psi4out.xyz', 'w' )
f.write( "11  " )
f.write( str(ee) + "\n" )
f.write( MOL.save_string_xyz() )
f.close()
--------------------------------------------------------------------------

    Molecular point group: c1
  Charge       = 0
  Multiplicity = 1
  Basis Set: 6-31G*
  Basis Set:
  @DF-RHF Final Energy:  -266.84611924747918
    Total Energy =                       -266.8461192474792369
    Molecular point group: c1
  Basis Set: 6-31G*
  Basis Set:
  Basis Set: 6-31G*
  Basis Set:
  @DF-RHF Final Energy:  -266.84612175250254
    Total Energy =                       -266.8461217525025404
  Basis Set: 6-31G*
  Basis Set:
  Basis Set: 6-31G*
  Basis Set:
  @DF-RHF Final Energy:  -266.84609823491161
    Total Energy =                       -266.8460982349112101
  Basis Set: 6-31G*
  Basis Set:
  Basis Set: 6-31G*
  Basis Set:
  @DF-RHF Final Energy:  -266.84613502980136
    Total Energy =                       -266.8461350298012462
  Basis Set: 6-31G*
  Basis Set:
  Charge       = 0
  Multiplicity = 1
  Basis Set: 6-31G*
  Basis Set:

    Orbital Energies (a.u.)
    -----------------------

    Doubly Occupied:

       1A    -20.613842     2A    -20.552740     3A    -11.382151
       4A    -11.244176     5A    -11.220594     6A     -1.475831
       7A     -1.366986     8A     -1.065344     9A     -0.917123
      10A     -0.801386    11A     -0.701851    12A     -0.690737
      13A     -0.662306    14A     -0.595116    15A     -0.593903
      16A     -0.532466    17A     -0.526053    18A     -0.505352
      19A     -0.479924    20A     -0.445918

  @DF-RHF Final Energy:  -266.84613518025037

   => Energetics <=

    Nuclear Repulsion Energy =            179.7766372245403375
    One-Electron Energy =                -720.4979403624549832
    Two-Electron Energy =                 273.8751679576641891
    DFT Exchange-Correlation Energy =       0.0000000000000000
    Empirical Dispersion Energy =           0.0000000000000000
    PCM Polarization Energy =               0.0000000000000000
    EFP Energy =                            0.0000000000000000
    Total Energy =                       -266.8461351802504851
    Molecular point group: c1
  Basis Set: 6-31G*
  Basis Set:

  -Total Gradient:
     Atom            X                  Y                   Z
    ------   -----------------  -----------------  -----------------
       1        0.000000160054     0.000000085539     0.000003505860
       2       -0.000017941831     0.000027131106    -0.000324410687
       3        0.000059166945    -0.000088791486     0.000469562402
       4       -0.000222514104     0.000336606775    -0.000358397195
       5       -0.000000297658    -0.000007035476    -0.000002449298
       6        0.000001251717     0.000000010954    -0.000003240991
       7        0.000177938823    -0.000263018395     0.000212902416
       8        0.000000159052    -0.000003604624     0.000003301477
       9       -0.000000262237     0.000000292196     0.000000025678
      10        0.000000689934    -0.000000283041    -0.000001291141
      11        0.000001649301    -0.000001393550     0.000000491479

  **** Optimization is complete! (in 5 steps) ****
    Final optimized geometry and variables:
    Molecular point group: c1

    Geometry (in Angstrom), charge = 0, multiplicity = 1:

    H            2.340813083207    -0.095772155669    -0.111608857265
    O            1.582929407899    -0.671933466561    -0.132314954336
    C            0.489690198079     0.076856236947     0.005972982379
    C           -0.764059720034    -0.759395038019     0.002479696985
    O            0.541216229024     1.257822934478     0.121348816403
    C           -2.038367228744     0.075347517018     0.011261920959
    H           -0.719781015160    -1.416364149338    -0.860155317527
    H           -0.713928132972    -1.409360328137     0.871909786423
    H           -2.095276650977     0.709440321032    -0.865423580933
    H           -2.908397797940    -0.572108440920     0.020802147355
    H           -2.077801917584     0.715396325151     0.883778020262

  Mulliken Charges: (a.u.)
   Center  Symbol    Alpha    Beta     Spin     Total
       1     H     0.26763  0.26763  0.00000  0.46474
       2     O     4.35028  4.35028  0.00000 -0.70055
       3     C     2.62485  2.62485  0.00000  0.75030
       4     C     3.20839  3.20839  0.00000 -0.41678
       5     O     4.27874  4.27874  0.00000 -0.55749
       6     C     3.23965  3.23965  0.00000 -0.47929
       7     H     0.39821  0.39821  0.00000  0.20358
       8     H     0.39784  0.39784  0.00000  0.20431
       9     H     0.41027  0.41027  0.00000  0.17946
      10     H     0.41658  0.41658  0.00000  0.16684
      11     H     0.40756  0.40756  0.00000  0.18488

   Total alpha = 20.00000, Total beta = 20.00000, Total charge = -0.00000
