  ==> Input File <==

--------------------------------------------------------------------------
set {
	reference rhf
	basis cc-pvtz
}

set_num_threads( 4 )
memory 2 gb

molecule MOL {
0 1

H	 3.297027	 -0.410652	 0.013670
C	 2.238345	 -0.234170	 0.010427
C	 1.374029	 -1.236727	 -0.403299
C	 1.745157	 0.989021	 0.417963
H	 1.764897	 -2.184676	 -0.718588
C	 0.015220	 -1.014443	 -0.408979
H	 2.416064	 1.762524	 0.737420
C	 0.380253	 1.210764	 0.411707
H	 -0.668682	 -1.776637	 -0.725198
C	 -0.486398	 0.214248	 0.000000
H	 -0.010429	 2.160370	 0.727602
C	 -1.946525	 0.470130	 0.000000
O	 -2.779618	 -0.371226	 0.000000
H	 -2.227127	 1.528393	 0.000000

	symmetry c1
}
set optking {
	frozen_dihedral = ("
		8 10 12 14
	")
}

ee = optimize('scf')
oeprop('DIPOLE', 'QUADRUPOLE', 'MULLIKEN_CHARGES')
f=open( 'psi4out.xyz', 'w' )
f.write( "14  " )
f.write( str(ee) + "\n" )
f.write( MOL.save_string_xyz() )
f.close()
--------------------------------------------------------------------------

    Molecular point group: c1
  Charge       = 0
  Multiplicity = 1
  Basis Set: CC-PVTZ
  Basis Set:
  @DF-RHF Final Energy:  -343.54868567184974
    Total Energy =                       -343.5486856718500803
    Molecular point group: c1
  Basis Set: CC-PVTZ
  Basis Set:
  Basis Set: CC-PVTZ
  Basis Set:
  @DF-RHF Final Energy:  -343.54681104528186
    Total Energy =                       -343.5468110452818564
  Basis Set: CC-PVTZ
  Basis Set:
  Basis Set: CC-PVTZ
  Basis Set:
  @DF-RHF Final Energy:  -343.54887818695516
    Total Energy =                       -343.5488781869548802
  Basis Set: CC-PVTZ
  Basis Set:
  Basis Set: CC-PVTZ
  Basis Set:
  @DF-RHF Final Energy:  -343.54891203175305
    Total Energy =                       -343.5489120317532752
  Basis Set: CC-PVTZ
  Basis Set:
  Charge       = 0
  Multiplicity = 1
  Basis Set: CC-PVTZ
  Basis Set:

    Orbital Energies (a.u.)
    -----------------------

    Doubly Occupied:

       1A    -20.553577     2A    -11.327379     3A    -11.252275
       4A    -11.249538     5A    -11.246712     6A    -11.245480
       7A    -11.243762     8A    -11.242173     9A     -1.409327
      10A     -1.176899    11A     -1.051547    12A     -1.035961
      13A     -0.892528    14A     -0.848145    15A     -0.794812
      16A     -0.725556    17A     -0.682137    18A     -0.656675
      19A     -0.624590    20A     -0.622268    21A     -0.606097
      22A     -0.559697    23A     -0.530244    24A     -0.510206
      25A     -0.508502    26A     -0.425758    27A     -0.355445
      28A     -0.352439

  @DF-RHF Final Energy:  -343.54891244044637

   => Energetics <=

    Nuclear Repulsion Energy =            323.9685975931634516
    One-Electron Energy =               -1107.5755681921766609
    Two-Electron Energy =                 440.0580581585667233
    DFT Exchange-Correlation Energy =       0.0000000000000000
    Empirical Dispersion Energy =           0.0000000000000000
    PCM Polarization Energy =               0.0000000000000000
    EFP Energy =                            0.0000000000000000
    Total Energy =                       -343.5489124404465429
    Molecular point group: c1
  Basis Set: CC-PVTZ
  Basis Set:

  -Total Gradient:
     Atom            X                  Y                   Z
    ------   -----------------  -----------------  -----------------
       1       -0.000000942625    -0.000003642134     0.000020673212
       2        0.000002153154     0.000006384366    -0.000063727096
       3        0.000016345332     0.000021207532    -0.000043842998
       4       -0.000017323423    -0.000009136881     0.000060154787
       5       -0.000002061199    -0.000000316513     0.000004666624
       6       -0.000015230214    -0.000027237728     0.000113566819
       7        0.000003950692     0.000002335655    -0.000010794840
       8       -0.000089672099    -0.001056842589     0.002756781800
       9        0.000001462811     0.000017946040    -0.000035011056
      10        0.000107855958     0.001561554068    -0.005183431939
      11       -0.000000794919    -0.000004077998    -0.000000559109
      12        0.000063989443    -0.000566551004     0.005996140584
      13       -0.000003965335    -0.000021310214     0.000002046803
      14       -0.000065767571     0.000079687400    -0.003616663590

  **** Optimization is complete! (in 5 steps) ****
    Final optimized geometry and variables:
    Molecular point group: c1

    Geometry (in Angstrom), charge = 0, multiplicity = 1:

    H            3.295135287657    -0.415822158552     0.025395846951
    C            2.237060891913    -0.235785675566     0.015803043785
    C            1.371844239594    -1.235665319140    -0.401926090784
    C            1.744881120713     0.988597293501     0.421049604163
    H            1.761306574650    -2.185312143218    -0.714035525540
    C            0.013064181209    -1.011374790101    -0.408658918547
    H            2.415641269160     1.758482855224     0.749656937679
    C            0.381273679480     1.217922197242     0.398826163122
    H           -0.671600061533    -1.777531182163    -0.713874707340
    C           -0.485770797032     0.224332282154    -0.018789889448
    H           -0.007500741640     2.171028962188     0.706938991519
    C           -1.948777116779     0.468520782099     0.016336546571
    O           -2.772877851496    -0.380222887275    -0.023342324590
    H           -2.239582730201     1.523815777141     0.046802022088

  Mulliken Charges: (a.u.)
   Center  Symbol    Alpha    Beta     Spin     Total
       1     H     0.41960  0.41960  0.00000  0.16080
       2     C     3.07074  3.07074  0.00000 -0.14148
       3     C     3.07134  3.07134  0.00000 -0.14267
       4     C     3.07371  3.07371  0.00000 -0.14742
       5     H     0.41966  0.41966  0.00000  0.16068
       6     C     3.08161  3.08161  0.00000 -0.16321
       7     H     0.42057  0.42057  0.00000  0.15886
       8     C     3.08789  3.08789  0.00000 -0.17579
       9     H     0.40949  0.40949  0.00000  0.18103
      10     C     2.98034  2.98034  0.00000  0.03931
      11     H     0.42307  0.42307  0.00000  0.15386
      12     C     2.91306  2.91306  0.00000  0.17389
      13     O     4.17095  4.17095  0.00000 -0.34190
      14     H     0.45798  0.45798  0.00000  0.08404

   Total alpha = 28.00000, Total beta = 28.00000, Total charge =  0.00000
