                              Psi4 1.0.54 Driver

  ==> Input File <==

--------------------------------------------------------------------------
set {
	reference rhf
	basis cc-pvtz
}

set_num_threads( 4 )
memory 2 gb

molecule MOL {
0 1

O	 -2.374409	 1.338660	 -0.336961
C	 -2.104891	 0.204655	 -0.107126
C	 -0.881910	 -0.448129	 -0.720509
C	 -2.949910	 -0.638219	 0.818225
C	 -1.103497	 -1.952506	 -0.921982
H	 -0.052047	 -0.290694	 -0.043270
H	 -0.641681	 0.019665	 -1.669363
C	 0.117966	 -2.642735	 -1.525405
H	 -1.351863	 -2.390519	 0.036500
H	 -1.960771	 -2.112991	 -1.571309
C	 -0.067359	 -4.135634	 -1.802559
H	 0.969284	 -2.503736	 -0.863654
H	 0.373642	 -2.147231	 -2.457987
C	 -0.243290	 -4.998428	 -0.555356
H	 0.799152	 -4.490153	 -2.351905
H	 -0.920327	 -4.274908	 -2.461636
H	 0.593206	 -4.874394	 0.124703
H	 -0.299570	 -6.047873	 -0.820439
H	 -1.148342	 -4.751261	 -0.013997
H	 -3.440322	 -1.417144	 0.243099
H	 -3.694377	 -0.025850	 1.303346
H	 -2.331085	 -1.129829	 1.560495

	symmetry c1
}
set optking {
	frozen_dihedral = ("
		6 3 2 1
	")
}

ee,wfn = optimize('scf', return_wfn=True)
oeprop( wfn, 'DIPOLE', 'QUADRUPOLE', 'MULLIKEN_CHARGES')
f=open( 'psi4out.xyz', 'w' )
f.write( "22  " )
f.write( str(ee) + "\n" )
f.write( MOL.save_string_xyz() )
f.close()
--------------------------------------------------------------------------

    Molecular point group: c1
  Charge       = 0
  Multiplicity = 1
  Basis Set: CC-PVTZ
  Basis Set:
  @DF-RHF Final Energy:  -348.21891706831957
    Total Energy =                       -348.2189170683197403
    Molecular point group: c1
  Basis Set: CC-PVTZ
  Basis Set:
  Basis Set: CC-PVTZ
  Basis Set:
  @DF-RHF Final Energy:  -347.01569595651387
    Total Energy =                       -347.0156959565136958
  Basis Set: CC-PVTZ
  Basis Set:
  Basis Set: CC-PVTZ
  Basis Set:
  @DF-RHF Final Energy:  -347.26274293027524
    Total Energy =                       -347.2627429302751807
  Basis Set: CC-PVTZ
  Basis Set:
  Basis Set: CC-PVTZ
  Basis Set:
  @DF-RHF Final Energy:  -347.69863141516890
    Total Energy =                       -347.6986314151689044
  Basis Set: CC-PVTZ
  Basis Set:
  @DF-RHF Final Energy:  -347.99926553558430
    Total Energy =                       -347.9992655355846409
  @DF-RHF Final Energy:  -348.17378448470566
    Total Energy =                       -348.1737844847057204
  @DF-RHF Final Energy:  -348.21709001135349
    Total Energy =                       -348.2170900113538892
  @DF-RHF Final Energy:  -348.22172453747271
    Total Energy =                       -348.2217245374724257
  @DF-RHF Final Energy:  -348.22130658559132
    Total Energy =                       -348.2213065855911509
  @DF-RHF Final Energy:  -348.22193505964083
    Total Energy =                       -348.2219350596406002
  @DF-RHF Final Energy:  -348.22211669098050
    Total Energy =                       -348.2221166909802719
  Basis Set: CC-PVTZ
  Basis Set:
  @DF-RHF Final Energy:  -348.22208056625874
    Total Energy =                       -348.2220805662586827
  Basis Set: CC-PVTZ
  Basis Set:
  Basis Set: CC-PVTZ
  Basis Set:
  @DF-RHF Final Energy:  -348.22212138939858
    Total Energy =                       -348.2221213893982963
  Basis Set: CC-PVTZ
  Basis Set:
  Basis Set: CC-PVTZ
  Basis Set:
  @DF-RHF Final Energy:  -348.22212332000606
    Total Energy =                       -348.2221233200059487
  Basis Set: CC-PVTZ
  Basis Set:
  Charge       = 0
  Multiplicity = 1
  Basis Set: CC-PVTZ
  Basis Set:

    Orbital Energies (a.u.)
    -----------------------

    Doubly Occupied:

       1A    -20.535908     2A    -11.319880     3A    -11.229125
       4A    -11.228481     5A    -11.226327     6A    -11.222620
       7A    -11.221321     8A    -11.213604     9A     -1.396456
      10A     -1.100203    11A     -1.047050    12A     -0.997765
      13A     -0.942260    14A     -0.864577    15A     -0.789990
      16A     -0.733021    17A     -0.661875    18A     -0.651006
      19A     -0.632211    20A     -0.621600    21A     -0.601596
      22A     -0.587644    23A     -0.556641    24A     -0.546602
      25A     -0.539532    26A     -0.514837    27A     -0.509165
      28A     -0.485954    29A     -0.475367    30A     -0.467370
      31A     -0.466809    32A     -0.398704

  @DF-RHF Final Energy:  -348.22212357645122

   => Energetics <=

    Nuclear Repulsion Energy =            373.3301786959161177
    One-Electron Energy =               -1211.5336026426789431
    Two-Electron Energy =                 489.9813003703115442
    DFT Exchange-Correlation Energy =       0.0000000000000000
    Empirical Dispersion Energy =           0.0000000000000000
    PCM Polarization Energy =               0.0000000000000000
    EFP Energy =                            0.0000000000000000
    Total Energy =                       -348.2221235764512244
    Molecular point group: c1
  Basis Set: CC-PVTZ
  Basis Set:

  -Total Gradient:
     Atom            X                  Y                   Z
    ------   -----------------  -----------------  -----------------
       1        0.001178132699     0.000961323300     0.000015724367
       2       -0.001730252965    -0.001242229353    -0.000233017109
       3        0.000975091963    -0.000223614792     0.001588732946
       4        0.000021292062     0.000011291193    -0.000027193993
       5       -0.000024330815     0.000007781866     0.000003868333
       6       -0.000430020364     0.000500567891    -0.001336409927
       7        0.000006737980    -0.000006703973     0.000003797312
       8        0.000017311094     0.000009152667     0.000002946028
       9       -0.000009055856     0.000008538932    -0.000028897802
      10        0.000011890181     0.000006318964     0.000000672000
      11        0.000010890447    -0.000007017393     0.000018690490
      12       -0.000009923939    -0.000009717235     0.000007198122
      13        0.000010950769    -0.000003902180     0.000011349182
      14        0.000001342418     0.000013150972    -0.000022885325
      15       -0.000016677427     0.000006673946     0.000005302987
      16        0.000019010471     0.000014074475     0.000006936947
      17       -0.000024171276    -0.000003297286    -0.000000482869
      18       -0.000001782671    -0.000000662004     0.000001393658
      19        0.000011900423    -0.000026932407    -0.000011545334
      20       -0.000005968249    -0.000003864475    -0.000000464582
      21        0.000003413117    -0.000009549381     0.000002254438
      22       -0.000015780066    -0.000001383717    -0.000007969867

  **** Optimization is complete! (in 15 steps) ****
    Final optimized geometry and variables:
    Molecular point group: c1

    Geometry (in Angstrom), charge = 0, multiplicity = 1:

    O           -1.657490843110     2.683684768245    -0.731945547525
    C           -1.013349307501     1.928767915132    -0.078590249070
    C           -0.128954782302     0.894138834524    -0.752113134383
    C           -1.008782157220     2.016805968458     1.430155554934
    C            0.038090949277    -0.444648907409    -0.035323629178
    H            0.841400650902     1.369314150753    -0.884371234438
    H           -0.530715355651     0.748560070833    -1.746439259156
    C            0.900860575180    -1.417066863450    -0.838202517965
    H            0.475988133351    -0.287735228923     0.942937438398
    H           -0.939282805997    -0.891288596493     0.129945778203
    C            1.041808195516    -2.808051201649    -0.218087428185
    H            1.889203204072    -0.985719133748    -0.979506985255
    H            0.472178660288    -1.523176382901    -1.830292079694
    C            1.807245242283    -2.844863727280     1.102347430970
    H            1.549386517615    -3.448928780470    -0.931927513020
    H            0.054229974415    -3.238382105001    -0.075186122880
    H            2.796417406196    -2.412346629076     0.991418832303
    H            1.931083112035    -3.865460770322     1.445319680928
    H            1.293936949352    -2.300521274010     1.885977001654
    H           -1.456487974561     1.127817792688     1.859318457744
    H           -1.568979760222     2.885747946521     1.738644373488
    H            0.006713068428     2.079884316785     1.805288140599

  Mulliken Charges: (a.u.)
   Center  Symbol    Alpha    Beta     Spin     Total
       1     O     4.17317  4.17317  0.00000 -0.34634
       2     C     2.85932  2.85932  0.00000  0.28137
       3     C     3.09810  3.09810  0.00000 -0.19620
       4     C     3.16674  3.16674  0.00000 -0.33349
       5     C     3.10642  3.10642  0.00000 -0.21283
       6     H     0.44424  0.44424  0.00000  0.11152
       7     H     0.43715  0.43715  0.00000  0.12570
       8     C     3.09763  3.09763  0.00000 -0.19526
       9     H     0.44811  0.44811  0.00000  0.10377
      10     H     0.44801  0.44801  0.00000  0.10398
      11     C     3.09010  3.09010  0.00000 -0.18019
      12     H     0.45241  0.45241  0.00000  0.09517
      13     H     0.44529  0.44529  0.00000  0.10943
      14     C     3.15304  3.15304  0.00000 -0.30608
      15     H     0.44667  0.44667  0.00000  0.10666
      16     H     0.45342  0.45342  0.00000  0.09315
      17     H     0.45408  0.45408  0.00000  0.09184
      18     H     0.44465  0.44465  0.00000  0.11070
      19     H     0.45494  0.45494  0.00000  0.09012
      20     H     0.44692  0.44692  0.00000  0.10615
      21     H     0.43134  0.43134  0.00000  0.13732
      22     H     0.44825  0.44825  0.00000  0.10350

   Total alpha = 32.00000, Total beta = 32.00000, Total charge = -0.00000

*** Psi4 exiting successfully. Buy a developer a beer!
