                              Psi4 1.0.54 Driver

  ==> Input File <==

--------------------------------------------------------------------------
set {
	reference rhf
	basis cc-pvtz
}

set_num_threads( 4 )
memory 2 gb

molecule MOL {
0 1

H	 -2.155056	 0.123199	 1.991968
O	 -1.752755	 0.972253	 1.979273
C	 -0.900077	 1.087428	 0.874820
C	 0.373173	 0.288352	 1.070022
H	 -1.389588	 0.773516	 -0.041677
H	 -0.655307	 2.135013	 0.773158
O	 1.172093	 0.457955	 -0.054438
H	 0.132403	 -0.766437	 1.212663
H	 0.883225	 0.630870	 1.967855
C	 2.395478	 -0.199028	 -0.000366
H	 2.505946	 -0.901710	 -0.823354
H	 3.174616	 0.545641	 -0.071768
H	 2.513730	 -0.742241	 0.934223

	symmetry c1
}
set optking {
	frozen_dihedral = ("
		4 7 10 13
	")
}

ee,wfn = optimize('scf', return_wfn=True)
oeprop( wfn, 'DIPOLE', 'QUADRUPOLE', 'MULLIKEN_CHARGES')
f=open( 'psi4out.xyz', 'w' )
f.write( "13  " )
f.write( str(ee) + "\n" )
f.write( MOL.save_string_xyz() )
f.close()
--------------------------------------------------------------------------

    Molecular point group: c1
  Charge       = 0
  Multiplicity = 1
  Basis Set: CC-PVTZ
  Basis Set:
  @DF-RHF Final Energy:  -268.05822318824255
    Total Energy =                       -268.0582231882424367
    Molecular point group: c1
  Basis Set: CC-PVTZ
  Basis Set:
  Basis Set: CC-PVTZ
  Basis Set:
  @DF-RHF Final Energy:  -268.05858947571789
    Total Energy =                       -268.0585894757180085
  Basis Set: CC-PVTZ
  Basis Set:
  Basis Set: CC-PVTZ
  Basis Set:
  @DF-RHF Final Energy:  -268.05869772663743
    Total Energy =                       -268.0586977266373196
  Basis Set: CC-PVTZ
  Basis Set:
  Charge       = 0
  Multiplicity = 1
  Basis Set: CC-PVTZ
  Basis Set:

    Orbital Energies (a.u.)
    -----------------------

    Doubly Occupied:

       1A    -20.552504     2A    -20.552401     3A    -11.269733
       4A    -11.267331     5A    -11.266881     6A     -1.387506
       7A     -1.368318     8A     -1.019368     9A     -0.914248
      10A     -0.842423    11A     -0.711079    12A     -0.673365
      13A     -0.660735    14A     -0.638163    15A     -0.598032
      16A     -0.570220    17A     -0.550422    18A     -0.491256
      19A     -0.483107    20A     -0.441069    21A     -0.418985

  @DF-RHF Final Energy:  -268.05869842546605

   => Energetics <=

    Nuclear Repulsion Energy =            190.1603239420495015
    One-Electron Energy =                -743.0837545682616110
    Two-Electron Energy =                 284.8647322007462890
    DFT Exchange-Correlation Energy =       0.0000000000000000
    Empirical Dispersion Energy =           0.0000000000000000
    PCM Polarization Energy =               0.0000000000000000
    EFP Energy =                            0.0000000000000000
    Total Energy =                       -268.0586984254658773
    Molecular point group: c1
  Basis Set: CC-PVTZ
  Basis Set:

  -Total Gradient:
     Atom            X                  Y                   Z
    ------   -----------------  -----------------  -----------------
       1        0.000001492729     0.000006568589    -0.000000917328
       2       -0.000061118747     0.000029519321     0.000053556559
       3       -0.000000293301    -0.000043962650     0.000023588864
       4       -0.000063914664    -0.000010332776    -0.000000486232
       5        0.000025466358     0.000009487903    -0.000003965672
       6       -0.000010479517    -0.000002127523     0.000000701823
       7        0.000153766035    -0.000097813368    -0.000021396004
       8       -0.000000543214     0.000014898750     0.000008771568
       9        0.000007959346     0.000003048114    -0.000042094092
      10       -0.000007278730     0.000119239972    -0.000008846373
      11       -0.000016417598    -0.000001387063     0.000006707810
      12        0.000018532482    -0.000010925957    -0.000005263858
      13       -0.000047171178    -0.000016213311    -0.000010357065

  **** Optimization is complete! (in 4 steps) ****
    Final optimized geometry and variables:
    Molecular point group: c1

    Geometry (in Angstrom), charge = 0, multiplicity = 1:

    H           -2.409901114018    -0.379436277413     1.188675759820
    O           -2.004776286549     0.468276689761     1.176590717286
    C           -1.140607906591     0.575846979409     0.080020132864
    C            0.128177032095    -0.225799703954     0.291966233608
    H           -1.621605265513     0.259086885170    -0.839975688949
    H           -0.891686189718     1.622197089070    -0.024264575756
    O            0.936362340984    -0.059411524094    -0.827677872062
    H           -0.119475900995    -1.278222707164     0.436508638128
    H            0.627562294778     0.120465763786     1.193617781841
    C            2.174387740548    -0.703346499811    -0.799822281591
    H            2.244129267864    -1.399008605730    -1.627966348227
    H            2.969461390050     0.027100557890    -0.892519896829
    H            2.322798820633    -1.254496252399     0.122593222505

  Mulliken Charges: (a.u.)
   Center  Symbol    Alpha    Beta     Spin     Total
       1     H     0.39418  0.39418  0.00000  0.21163
       2     O     4.20212  4.20212  0.00000 -0.40423
       3     C     2.97536  2.97536  0.00000  0.04928
       4     C     2.96486  2.96486  0.00000  0.07028
       5     H     0.46704  0.46704  0.00000  0.06591
       6     H     0.45289  0.45289  0.00000  0.09421
       7     O     4.18056  4.18056  0.00000 -0.36113
       8     H     0.48165  0.48165  0.00000  0.03669
       9     H     0.46948  0.46948  0.00000  0.06105
      10     C     3.02704  3.02704  0.00000 -0.05408
      11     H     0.45723  0.45723  0.00000  0.08554
      12     H     0.45623  0.45623  0.00000  0.08755
      13     H     0.47135  0.47135  0.00000  0.05730

   Total alpha = 21.00000, Total beta = 21.00000, Total charge =  0.00000

*** Psi4 exiting successfully. Buy a developer a beer!
