  ==> Input File <==

--------------------------------------------------------------------------
set {
	reference rhf
	basis cc-pvtz
}

set_num_threads( 4 )
memory 2 gb

molecule MOL {
0 1

H	 1.071884	 0.400346	 -0.649415
C	 0.788096	 -0.429819	 0.000000
N	 -0.537714	 -0.645117	 0.000000
O	 1.596558	 -1.046069	 0.619147
C	 -1.522613	 0.412524	 0.000000
H	 -0.845894	 -1.585866	 0.000000
H	 -2.150256	 0.356137	 -0.880771
H	 -1.005621	 1.357208	 0.000000
H	 -2.150256	 0.356137	 0.880771

	symmetry c1
}
set optking {
	frozen_dihedral = ("
		1 2 3 6
	")
}

ee = optimize('scf')
oeprop('DIPOLE', 'QUADRUPOLE', 'MULLIKEN_CHARGES')
f=open( 'psi4out.xyz', 'w' )
f.write( "9  " )
f.write( str(ee) + "\n" )
f.write( MOL.save_string_xyz() )
f.close()
--------------------------------------------------------------------------

    Molecular point group: c1
  Charge       = 0
  Multiplicity = 1
  Basis Set: CC-PVTZ
  Basis Set:
  @DF-RHF Final Energy:  -208.02626581691902
    Total Energy =                       -208.0262658169189649
    Molecular point group: c1
  Basis Set: CC-PVTZ
  Basis Set:
  Basis Set: CC-PVTZ
  Basis Set:
  @DF-RHF Final Energy:  -208.02913131147562
    Total Energy =                       -208.0291313114755951
  Basis Set: CC-PVTZ
  Basis Set:
  Basis Set: CC-PVTZ
  Basis Set:
  @DF-RHF Final Energy:  -208.03296414416820
    Total Energy =                       -208.0329641441682611
  Basis Set: CC-PVTZ
  Basis Set:
  Basis Set: CC-PVTZ
  Basis Set:
  @DF-RHF Final Energy:  -208.03496159097699
    Total Energy =                       -208.0349615909769341
  Basis Set: CC-PVTZ
  Basis Set:
  @DF-RHF Final Energy:  -208.03514756603658
    Total Energy =                       -208.0351475660366134
  @DF-RHF Final Energy:  -208.03526394291930
    Total Energy =                       -208.0352639429192720
  @DF-RHF Final Energy:  -208.03540604755653
    Total Energy =                       -208.0354060475565063
  @DF-RHF Final Energy:  -208.03551701440773
    Total Energy =                       -208.0355170144077306
  @DF-RHF Final Energy:  -208.03545467068395
    Total Energy =                       -208.0354546706839756
  @DF-RHF Final Energy:  -208.03547035351431
    Total Energy =                       -208.0354703535142562
  @DF-RHF Final Energy:  -208.03516912878695
    Total Energy =                       -208.0351691287870040
  @DF-RHF Final Energy:  -208.03550858075772
    Total Energy =                       -208.0355085807576927
  @DF-RHF Final Energy:  -208.03552222264233
    Total Energy =                       -208.0355222226424132
  @DF-RHF Final Energy:  -208.03554415382717
    Total Energy =                       -208.0355441538271748
  @DF-RHF Final Energy:  -208.03555180264203
    Total Energy =                       -208.0355518026418906
  @DF-RHF Final Energy:  -208.03539274936139
    Total Energy =                       -208.0353927493613924
  @DF-RHF Final Energy:  -208.03555533968449
    Total Energy =                       -208.0355553396845494
  @DF-RHF Final Energy:  -208.03550206779650
    Total Energy =                       -208.0355020677965285
  @DF-RHF Final Energy:  -208.03554365425543
    Total Energy =                       -208.0355436542554344
  @DF-RHF Final Energy:  -208.03554416881991
    Total Energy =                       -208.0355441688198823
  @DF-RHF Final Energy:  -208.03555647583494
    Total Energy =                       -208.0355564758348237
  @DF-RHF Final Energy:  -208.03546914099158
    Total Energy =                       -208.0354691409916654
  @DF-RHF Final Energy:  -208.03555728867178
    Total Energy =                       -208.0355572886717539
  @DF-RHF Final Energy:  -208.03555467310656
    Total Energy =                       -208.0355546731066454
  @DF-RHF Final Energy:  -208.03547833788588
    Total Energy =                       -208.0354783378858770
  @DF-RHF Final Energy:  -208.03540966109148
    Total Energy =                       -208.0354096610914496
  @DF-RHF Final Energy:  -208.03555867918885
    Total Energy =                       -208.0355586791888527
  @DF-RHF Final Energy:  -208.03556020802080
    Total Energy =                       -208.0355602080207973
  @DF-RHF Final Energy:  -208.03555998651350
    Total Energy =                       -208.0355599865135332
  @DF-RHF Final Energy:  -208.03555383557250
    Total Energy =                       -208.0355538355726139
  @DF-RHF Final Energy:  -208.03555972469900
    Total Energy =                       -208.0355597246990556
  @DF-RHF Final Energy:  -208.03555974595031
    Total Energy =                       -208.0355597459503088
  @DF-RHF Final Energy:  -208.03555919937634
    Total Energy =                       -208.0355591993763653
  @DF-RHF Final Energy:  -208.03555845871432
    Total Energy =                       -208.0355584587142914
  @DF-RHF Final Energy:  -208.03555884143515
    Total Energy =                       -208.0355588414351189
  @DF-RHF Final Energy:  -208.03555844373261
    Total Energy =                       -208.0355584437327252
  Basis Set: CC-PVTZ
  Basis Set:
  @DF-RHF Final Energy:  -208.03555784128747
    Total Energy =                       -208.0355578412875275
  Basis Set: CC-PVTZ
  Basis Set:
  Basis Set: CC-PVTZ
  Basis Set:
  @DF-RHF Final Energy:  -208.03555752527433
    Total Energy =                       -208.0355575252743563
  Basis Set: CC-PVTZ
  Basis Set:
  Basis Set: CC-PVTZ
  Basis Set:
  @DF-RHF Final Energy:  -208.03555719363288
    Total Energy =                       -208.0355571936329397
  Basis Set: CC-PVTZ
  Basis Set:
  Charge       = 0
  Multiplicity = 1
  Basis Set: CC-PVTZ
  Basis Set:

    Orbital Energies (a.u.)
    -----------------------

    Doubly Occupied:

       1A    -20.528674     2A    -15.580793     3A    -11.342154
       4A    -11.270323     5A     -1.403453     6A     -1.240264
       7A     -0.958682     8A     -0.842439     9A     -0.695316
      10A     -0.680066    11A     -0.639496    12A     -0.589558
      13A     -0.568094    14A     -0.547049    15A     -0.436999
      16A     -0.402065

  @DF-RHF Final Energy:  -208.03555661171561

   => Energetics <=

    Nuclear Repulsion Energy =            120.5870493506337198
    One-Electron Energy =                -521.7943611978655554
    Two-Electron Energy =                 193.1717552355160876
    DFT Exchange-Correlation Energy =       0.0000000000000000
    Empirical Dispersion Energy =           0.0000000000000000
    PCM Polarization Energy =               0.0000000000000000
    EFP Energy =                            0.0000000000000000
    Total Energy =                       -208.0355566117157480
    Molecular point group: c1
  Basis Set: CC-PVTZ
  Basis Set:

  -Total Gradient:
     Atom            X                  Y                   Z
    ------   -----------------  -----------------  -----------------
       1       -0.001980532422    -0.004696524527    -0.008274742205
       2        0.001811186257     0.006874123284     0.008269113891
       3        0.005047894787    -0.005656230556     0.011098588618
       4       -0.000121458194     0.000162007807    -0.000136288028
       5       -0.002410228619     0.001553055067    -0.000752138802
       6       -0.003412729946     0.002501760778    -0.010074283187
       7        0.000062492805    -0.000140717663    -0.000450781766
       8        0.000577911702    -0.000489113269     0.000134125878
       9        0.000425463632    -0.000108360923     0.000186405601

    Molecular point group: c1

    Geometry (in Angstrom), charge = 0, multiplicity = 1:

    H            0.883967266414     0.952302865686    -0.680112192471
    C            0.695356652579     0.028236492571    -0.128454305951
    N           -0.603234394199    -0.123062556984     0.263275860386
    O            1.545479870057    -0.781239770267     0.031164436622
    C           -1.584410949145     0.876841595841    -0.124694155918
    H           -0.928002682615    -1.058902210908     0.166397020600
    H           -1.920924916050     0.768153229730    -1.151725773422
    H           -1.155842195362     1.861504989156    -0.004388032531
    H           -2.439717370664     0.809047739772     0.531375098764

  Mulliken Charges: (a.u.)
   Center  Symbol    Alpha    Beta     Spin     Total
       1     H     0.47238  0.47238  0.00000  0.05524
       2     C     2.87501  2.87501  0.00000  0.24998
       3     N     3.60077  3.60077  0.00000 -0.20155
       4     O     4.19435  4.19435  0.00000 -0.38870
       5     C     3.08269  3.08269  0.00000 -0.16538
       6     H     0.41938  0.41938  0.00000  0.16124
       7     H     0.45784  0.45784  0.00000  0.08432
       8     H     0.45247  0.45247  0.00000  0.09506
       9     H     0.44510  0.44510  0.00000  0.10979

   Total alpha = 16.00000, Total beta = 16.00000, Total charge = -0.00000
