  ==> Input File <==

--------------------------------------------------------------------------
set {
	reference rhf
	basis cc-pvtz
}

set_num_threads( 4 )
memory 2 gb

molecule MOL {
0 1

H	 -2.816458	 -0.841657	 -0.064679
N	 -1.878861	 -0.711874	 0.250184
C	 -1.341419	 0.551458	 -0.220231
H	 -1.333674	 -1.468530	 -0.105118
C	 0.082190	 0.731516	 0.254705
H	 -1.357065	 0.652078	 -1.304747
H	 -1.939897	 1.357530	 0.189797
O	 0.881195	 -0.248324	 -0.336237
H	 0.440901	 1.722476	 -0.020063
H	 0.119896	 0.643586	 1.338114
C	 0.449074	 -0.666062	 -1.588430
H	 1.136553	 -1.420540	 -1.942723
H	 -0.548654	 -1.097361	 -1.541364
H	 0.434764	 0.156751	 -2.299299

	symmetry c1
}
set optking {
	frozen_dihedral = ("
		11 8 5 3
	")
}

ee = optimize('scf')
oeprop('DIPOLE', 'QUADRUPOLE', 'MULLIKEN_CHARGES')
f=open( 'psi4out.xyz', 'w' )
f.write( "14  " )
f.write( str(ee) + "\n" )
f.write( MOL.save_string_xyz() )
f.close()
--------------------------------------------------------------------------

    Molecular point group: c1
  Charge       = 0
  Multiplicity = 1
  Basis Set: CC-PVTZ
  Basis Set:
  @DF-RHF Final Energy:  -248.20130854342236
    Total Energy =                       -248.2013085434224422
    Molecular point group: c1
  Basis Set: CC-PVTZ
  Basis Set:
  Basis Set: CC-PVTZ
  Basis Set:
  @DF-RHF Final Energy:  -248.21098215733159
    Total Energy =                       -248.2109821573317276
  Basis Set: CC-PVTZ
  Basis Set:
  Basis Set: CC-PVTZ
  Basis Set:
  @DF-RHF Final Energy:  -248.21526837645848
    Total Energy =                       -248.2152683764585959
  Basis Set: CC-PVTZ
  Basis Set:
  Basis Set: CC-PVTZ
  Basis Set:
  @DF-RHF Final Energy:  -248.21582185163081
    Total Energy =                       -248.2158218516307215
  Basis Set: CC-PVTZ
  Basis Set:
  Basis Set: CC-PVTZ
  Basis Set:
  @DF-RHF Final Energy:  -248.21587184947097
    Total Energy =                       -248.2158718494710001
  Basis Set: CC-PVTZ
  Basis Set:
  Basis Set: CC-PVTZ
  Basis Set:
  @DF-RHF Final Energy:  -248.21588047424711
    Total Energy =                       -248.2158804742471716
  Basis Set: CC-PVTZ
  Basis Set:
  Charge       = 0
  Multiplicity = 1
  Basis Set: CC-PVTZ
  Basis Set:

    Orbital Energies (a.u.)
    -----------------------

    Doubly Occupied:

       1A    -20.546633     2A    -15.532730     3A    -11.265310
       4A    -11.265206     5A    -11.247008     6A     -1.376494
       7A     -1.182879     8A     -1.002002     9A     -0.925659
      10A     -0.805861    11A     -0.689260    12A     -0.677500
      13A     -0.649018    14A     -0.617457    15A     -0.604544
      16A     -0.546316    17A     -0.539075    18A     -0.523834
      19A     -0.455575    20A     -0.413395    21A     -0.391177

  @DF-RHF Final Energy:  -248.21588119572129

   => Energetics <=

    Nuclear Repulsion Energy =            197.3339537616145662
    One-Electron Energy =                -728.5858008995351156
    Two-Electron Energy =                 283.0359659421995957
    DFT Exchange-Correlation Energy =       0.0000000000000000
    Empirical Dispersion Energy =           0.0000000000000000
    PCM Polarization Energy =               0.0000000000000000
    EFP Energy =                            0.0000000000000000
    Total Energy =                       -248.2158811957209537
    Molecular point group: c1
  Basis Set: CC-PVTZ
  Basis Set:

  -Total Gradient:
     Atom            X                  Y                   Z
    ------   -----------------  -----------------  -----------------
       1       -0.000046797534    -0.000019118188    -0.000025863923
       2        0.000047153432     0.000036232284     0.000077585135
       3        0.000783277503     0.003417407110    -0.003872219687
       4       -0.000012385387    -0.000028122276    -0.000030295763
       5       -0.002628680431    -0.007295953829     0.006834878237
       6        0.000001064101     0.000006734866    -0.000003297198
       7       -0.000024387023     0.000006792773    -0.000001109027
       8        0.004871183434     0.008339010264    -0.005264408426
       9        0.000006754228    -0.000000752665     0.000005705446
      10        0.000002692729    -0.000017232450    -0.000017155459
      11       -0.002992356795    -0.004429329001     0.002248537559
      12        0.000004628877    -0.000010952025     0.000011242056
      13       -0.000005584513     0.000000619559     0.000026992270
      14       -0.000006562618    -0.000005336423     0.000009408778

  **** Optimization is complete! (in 7 steps) ****
    Final optimized geometry and variables:
    Molecular point group: c1

    Geometry (in Angstrom), charge = 0, multiplicity = 1:

    H           -2.614790266184    -0.622797882216     0.436321529317
    N           -1.665761992303    -0.537589143822     0.731356241445
    C           -1.043851554416     0.659809186863     0.191239384536
    H           -1.184519976373    -1.363960879706     0.448950129216
    C            0.423841371567     0.749533092705     0.569424091492
    H           -1.159839839549     0.765110783111    -0.885225442195
    H           -1.529366831392     1.519606566341     0.639117172942
    O            1.301089922599    -0.152786492752    -0.054628295119
    H            0.758498511413     1.761567775537     0.347590799284
    H            0.528993867863     0.587336264528     1.632695135336
    C            1.022408804441    -0.612112832045    -1.335670252403
    H            1.848389469412    -1.245424743473    -1.625858476582
    H            0.110929587683    -1.198516662996    -1.385095138746
    H            0.945853362663     0.198888704737    -2.056717633563

  Mulliken Charges: (a.u.)
   Center  Symbol    Alpha    Beta     Spin     Total
       1     H     0.42936  0.42936  0.00000  0.14127
       2     N     3.69039  3.69039  0.00000 -0.38078
       3     C     3.05878  3.05878  0.00000 -0.11755
       4     H     0.42370  0.42370  0.00000  0.15260
       5     C     2.97091  2.97091  0.00000  0.05818
       6     H     0.45748  0.45748  0.00000  0.08504
       7     H     0.44565  0.44565  0.00000  0.10869
       8     O     4.18096  4.18096  0.00000 -0.36192
       9     H     0.46655  0.46655  0.00000  0.06690
      10     H     0.45322  0.45322  0.00000  0.09356
      11     C     3.03562  3.03562  0.00000 -0.07124
      12     H     0.44135  0.44135  0.00000  0.11730
      13     H     0.47598  0.47598  0.00000  0.04805
      14     H     0.47004  0.47004  0.00000  0.05992

   Total alpha = 21.00000, Total beta = 21.00000, Total charge = -0.00000
