  ==> Input File <==

--------------------------------------------------------------------------
set {
	reference rhf
	basis 6-31G*
}

set_num_threads( 1 )
memory 2 gb

molecule MOL {
0 1

H	 -2.172150	 0.880146	 0.502514
C	 -2.018062	 -0.000025	 -0.114509
O	 -0.774054	 0.001095	 -0.743181
H	 -2.760490	 0.003458	 -0.901350
H	 -2.173624	 -0.884374	 0.496163
C	 -0.691806	 0.252433	 -2.134797
C	 0.804738	 0.173182	 -2.428203
C	 -1.438525	 -0.819609	 -2.935002
C	 -1.217906	 1.650212	 -2.476187
H	 1.185800	 -0.806461	 -2.162644
H	 1.339582	 0.912394	 -1.842642
H	 1.006967	 0.350840	 -3.479489
H	 -1.109987	 -1.809038	 -2.634796
H	 -1.242078	 -0.701999	 -3.995746
H	 -2.512625	 -0.760016	 -2.796030
H	 -0.734148	 2.395836	 -1.854033
H	 -1.011096	 1.886334	 -3.514940
H	 -2.290195	 1.730084	 -2.333185

	symmetry c1
}
set optking {
	frozen_dihedral = ("
		2 3 6 7
	")
}

ee = energy('scf')
oeprop('DIPOLE', 'QUADRUPOLE', 'MULLIKEN_CHARGES')
f=open( 'psi4out.xyz', 'w' )
f.write( "18  " )
f.write( str(ee) + "\n" )
f.write( MOL.save_string_xyz() )
f.close()
--------------------------------------------------------------------------

    Molecular point group: c1

    Geometry (in Angstrom), charge = 0, multiplicity = 1:

       Center              X                  Y                   Z               Mass
    ------------   -----------------  -----------------  -----------------  -----------------
           H         -1.267479941363     0.672241595174     2.292292991954     1.007825032070
           C         -1.113391941363    -0.207929404826     1.675269991954    12.000000000000
           O          0.130616058637    -0.206809404826     1.046597991954    15.994914619560
           H         -1.855819941363    -0.204446404826     0.888428991954     1.007825032070
           H         -1.268953941363    -1.092278404826     2.285941991954     1.007825032070
           C          0.212864058637     0.044528595174    -0.345018008046    12.000000000000
           C          1.709408058637    -0.034722404826    -0.638424008046    12.000000000000
           C         -0.533854941363    -1.027513404826    -1.145223008046    12.000000000000
           C         -0.313235941363     1.442307595174    -0.686408008046    12.000000000000
           H          2.090470058637    -1.014365404826    -0.372865008046     1.007825032070
           H          2.244252058637     0.704489595174    -0.052863008046     1.007825032070
           H          1.911637058637     0.142935595174    -1.689710008046     1.007825032070
           H         -0.205316941363    -2.016942404826    -0.845017008046     1.007825032070
           H         -0.337407941363    -0.909903404826    -2.205967008046     1.007825032070
           H         -1.607954941363    -0.967920404826    -1.006251008046     1.007825032070
           H          0.170522058637     2.187931595174    -0.064254008046     1.007825032070
           H         -0.106425941363     1.678429595174    -1.725161008046     1.007825032070
           H         -1.385524941363     1.522179595174    -0.543406008046     1.007825032070

  Charge       = 0
  Multiplicity = 1
  Basis Set: 6-31G*
  Basis Set:

    Orbital Energies (a.u.)
    -----------------------

    Doubly Occupied:

       1A    -20.543750     2A    -11.282684     3A    -11.260659
       4A    -11.209280     5A    -11.209014     6A    -11.203532
       7A     -1.369132     8A     -1.072985     9A     -0.947039
      10A     -0.940199    11A     -0.911474    12A     -0.753077
      13A     -0.655319    14A     -0.643896    15A     -0.642041
      16A     -0.590100    17A     -0.573876    18A     -0.548377
      19A     -0.538736    20A     -0.525050    21A     -0.515558
      22A     -0.490227    23A     -0.487150    24A     -0.435202
      25A     -0.402122

  @DF-RHF Final Energy:  -271.17074557240056

   => Energetics <=

    Nuclear Repulsion Energy =            272.5074304940845309
    One-Electron Energy =                -907.8550880074078577
    Two-Electron Energy =                 364.1769119409229916
    DFT Exchange-Correlation Energy =       0.0000000000000000
    Empirical Dispersion Energy =           0.0000000000000000
    PCM Polarization Energy =               0.0000000000000000
    EFP Energy =                            0.0000000000000000
    Total Energy =                       -271.1707455724003921

  Mulliken Charges: (a.u.)
   Center  Symbol    Alpha    Beta     Spin     Total
       1     H     0.42389  0.42389  0.00000  0.15222
       2     C     3.07275  3.07275  0.00000 -0.14550
       3     O     4.32182  4.32182  0.00000 -0.64363
       4     H     0.43317  0.43317  0.00000  0.13366
       5     H     0.41907  0.41907  0.00000  0.16186
       6     C     2.84589  2.84589  0.00000  0.30821
       7     C     3.23246  3.23246  0.00000 -0.46492
       8     C     3.24643  3.24643  0.00000 -0.49285
       9     C     3.24561  3.24561  0.00000 -0.49123
      10     H     0.41389  0.41389  0.00000  0.17222
      11     H     0.41382  0.41382  0.00000  0.17236
      12     H     0.42524  0.42524  0.00000  0.14952
      13     H     0.41288  0.41288  0.00000  0.17424
      14     H     0.41954  0.41954  0.00000  0.16091
      15     H     0.41986  0.41986  0.00000  0.16028
      16     H     0.41304  0.41304  0.00000  0.17392
      17     H     0.41989  0.41989  0.00000  0.16023
      18     H     0.42075  0.42075  0.00000  0.15849

   Total alpha = 25.00000, Total beta = 25.00000, Total charge = -0.00000
