  ==> Input File <==

--------------------------------------------------------------------------
set {
	reference rhf
	basis 6-31G*
}

set_num_threads( 1 )
memory 2 gb

molecule MOL {
0 1

H	 2.010677	 -1.118210	 -0.314351
C	 1.951159	 -0.223429	 0.317018
C	 0.692068	 0.589600	 0.160137
O	 2.841314	 0.045014	 1.057080
C	 -0.558097	 -0.297372	 0.091132
H	 0.791645	 1.202255	 -0.728243
H	 0.616171	 1.253469	 1.020572
C	 -1.850991	 0.512573	 -0.019058
H	 -0.476753	 -0.965681	 -0.762987
H	 -0.604799	 -0.930658	 0.975228
C	 -3.096943	 -0.368295	 -0.099594
H	 -1.800724	 1.150330	 -0.898172
H	 -1.931651	 1.177355	 0.838044
H	 -3.060452	 -1.020287	 -0.967456
H	 -3.996858	 0.233488	 -0.175704
H	 -3.191959	 -0.995686	 0.782074

	symmetry c1
}
set optking {
	frozen_dihedral = ("
		9 5 8 12,
		6 3 5 9
	")
}

ee = energy('scf')
oeprop('DIPOLE', 'QUADRUPOLE', 'MULLIKEN_CHARGES')
f=open( 'psi4out.xyz', 'w' )
f.write( "16  " )
f.write( str(ee) + "\n" )
f.write( MOL.save_string_xyz() )
f.close()
--------------------------------------------------------------------------

    Molecular point group: c1

    Geometry (in Angstrom), charge = 0, multiplicity = 1:

       Center              X                  Y                   Z               Mass
    ------------   -----------------  -----------------  -----------------  -----------------
           H          2.018146184356    -1.156121786709    -0.570769150977     1.007825032070
           C          1.958628184356    -0.261340786709     0.060599849023    12.000000000000
           C          0.699537184356     0.551688213291    -0.096281150977    12.000000000000
           O          2.848783184356     0.007102213291     0.800661849023    15.994914619560
           C         -0.550627815644    -0.335283786709    -0.165286150977    12.000000000000
           H          0.799114184356     1.164343213291    -0.984661150977     1.007825032070
           H          0.623640184356     1.215557213291     0.764153849023     1.007825032070
           C         -1.843521815644     0.474661213291    -0.275476150977    12.000000000000
           H         -0.469283815644    -1.003592786709    -1.019405150977     1.007825032070
           H         -0.597329815644    -0.968569786709     0.718809849023     1.007825032070
           C         -3.089473815644    -0.406206786709    -0.356012150977    12.000000000000
           H         -1.793254815644     1.112418213291    -1.154590150977     1.007825032070
           H         -1.924181815644     1.139443213291     0.581625849023     1.007825032070
           H         -3.052982815644    -1.058198786709    -1.223874150977     1.007825032070
           H         -3.989388815644     0.195576213291    -0.432122150977     1.007825032070
           H         -3.184489815644    -1.033597786709     0.525655849023     1.007825032070

  Charge       = 0
  Multiplicity = 1
  Basis Set: 6-31G*
  Basis Set:

    Orbital Energies (a.u.)
    -----------------------

    Doubly Occupied:

       1A    -20.562414     2A    -11.326760     3A    -11.236063
       4A    -11.235268     5A    -11.229396     6A    -11.218567
       7A     -1.402287     8A     -1.096740     9A     -1.019053
      10A     -0.905375    11A     -0.811822    12A     -0.795006
      13A     -0.675231    14A     -0.649276    15A     -0.631141
      16A     -0.604221    17A     -0.584620    18A     -0.547352
      19A     -0.529740    20A     -0.504368    21A     -0.487608
      22A     -0.483007    23A     -0.479771    24A     -0.409300

  @DF-RHF Final Energy:  -270.01936013828492

   => Energetics <=

    Nuclear Repulsion Energy =            228.6051866596876323
    One-Electron Energy =                -818.4003058090222567
    Two-Electron Energy =                 319.7757590110498995
    DFT Exchange-Correlation Energy =       0.0000000000000000
    Empirical Dispersion Energy =           0.0000000000000000
    PCM Polarization Energy =               0.0000000000000000
    EFP Energy =                            0.0000000000000000
    Total Energy =                       -270.0193601382846964

  Mulliken Charges: (a.u.)
   Center  Symbol    Alpha    Beta     Spin     Total
       1     H     0.43197  0.43197  0.00000  0.13606
       2     C     2.82950  2.82950  0.00000  0.34100
       3     C     3.20913  3.20913  0.00000 -0.41827
       4     O     4.23800  4.23800  0.00000 -0.47601
       5     C     3.16493  3.16493  0.00000 -0.32987
       6     H     0.40428  0.40428  0.00000  0.19143
       7     H     0.40028  0.40028  0.00000  0.19943
       8     C     3.15152  3.15152  0.00000 -0.30304
       9     H     0.41968  0.41968  0.00000  0.16065
      10     H     0.41462  0.41462  0.00000  0.17076
      11     C     3.24034  3.24034  0.00000 -0.48068
      12     H     0.42059  0.42059  0.00000  0.15882
      13     H     0.41865  0.41865  0.00000  0.16271
      14     H     0.42047  0.42047  0.00000  0.15907
      15     H     0.41639  0.41639  0.00000  0.16721
      16     H     0.41964  0.41964  0.00000  0.16072

   Total alpha = 24.00000, Total beta = 24.00000, Total charge = -0.00000
