  ==> Input File <==

--------------------------------------------------------------------------
set {
	reference rhf
	basis cc-pvtz
}

set_num_threads( 4 )
memory 2 gb

molecule MOL {
0 1

H	 0.093939	 2.980876	 0.262613
C	 0.700857	 2.065583	 0.289596
C	 0.062554	 0.862911	 -0.350953
O	 1.771821	 2.080331	 0.789567
C	 -1.339253	 0.577611	 0.196911
H	 0.720420	 0.013315	 -0.220983
H	 -0.005781	 1.075124	 -1.415551
C	 -1.813142	 -0.849710	 -0.061612
H	 -2.032833	 1.276441	 -0.256032
H	 -1.357249	 0.782269	 1.263793
H	 -1.839268	 -1.063526	 -1.124230
H	 -2.810118	 -1.001930	 0.334000
H	 -1.159274	 -1.579980	 0.402282

	symmetry c1
}
set optking {
	frozen_dihedral = ("
		6 3 5 9
	")
}

ee = optimize('scf')
oeprop('DIPOLE', 'QUADRUPOLE', 'MULLIKEN_CHARGES')
f=open( 'psi4out.xyz', 'w' )
f.write( "13  " )
f.write( str(ee) + "\n" )
f.write( MOL.save_string_xyz() )
f.close()
--------------------------------------------------------------------------

    Molecular point group: c1
  Charge       = 0
  Multiplicity = 1
  Basis Set: CC-PVTZ
  Basis Set:
  @DF-RHF Final Energy:  -231.06953207933654
    Total Energy =                       -231.0695320793365681
    Molecular point group: c1
  Basis Set: CC-PVTZ
  Basis Set:
  Basis Set: CC-PVTZ
  Basis Set:
  @DF-RHF Final Energy:  -231.06950853553224
    Total Energy =                       -231.0695085355321794
  Basis Set: CC-PVTZ
  Basis Set:
  Basis Set: CC-PVTZ
  Basis Set:
  @DF-RHF Final Energy:  -231.06720903702939
    Total Energy =                       -231.0672090370296701
  Basis Set: CC-PVTZ
  Basis Set:
  Basis Set: CC-PVTZ
  Basis Set:
  @DF-RHF Final Energy:  -231.06980060360610
    Total Energy =                       -231.0698006036060974
  Basis Set: CC-PVTZ
  Basis Set:
  Basis Set: CC-PVTZ
  Basis Set:
  @DF-RHF Final Energy:  -231.06984116467643
    Total Energy =                       -231.0698411646765180
  Basis Set: CC-PVTZ
  Basis Set:
  Basis Set: CC-PVTZ
  Basis Set:
  @DF-RHF Final Energy:  -231.06984771668010
    Total Energy =                       -231.0698477166801865
  Basis Set: CC-PVTZ
  Basis Set:
  Charge       = 0
  Multiplicity = 1
  Basis Set: CC-PVTZ
  Basis Set:

    Orbital Energies (a.u.)
    -----------------------

    Doubly Occupied:

       1A    -20.552153     2A    -11.321914     3A    -11.237527
       4A    -11.234630     5A    -11.221973     6A     -1.407001
       7A     -1.087918     8A     -0.977457     9A     -0.839881
      10A     -0.795608    11A     -0.678638    12A     -0.641464
      13A     -0.640733    14A     -0.587950    15A     -0.556658
      16A     -0.537722    17A     -0.512126    18A     -0.494093
      19A     -0.484456    20A     -0.413157

  @DF-RHF Final Energy:  -231.06984867506219

   => Energetics <=

    Nuclear Repulsion Energy =            170.8051918704699119
    One-Electron Energy =                -651.3039630807829781
    Two-Electron Energy =                 249.4289225352507344
    DFT Exchange-Correlation Energy =       0.0000000000000000
    Empirical Dispersion Energy =           0.0000000000000000
    PCM Polarization Energy =               0.0000000000000000
    EFP Energy =                            0.0000000000000000
    Total Energy =                       -231.0698486750623317
    Molecular point group: c1
  Basis Set: CC-PVTZ
  Basis Set:

  -Total Gradient:
     Atom            X                  Y                   Z
    ------   -----------------  -----------------  -----------------
       1        0.000007167842     0.000018387474     0.000016111164
       2        0.000016830731     0.000003192746    -0.000025237758
       3        0.001134494691     0.001040467742     0.003341963861
       4       -0.000010981006     0.000016230334     0.000017930859
       5        0.000471389753     0.002446624708     0.002353719816
       6       -0.001006410907    -0.001270534096    -0.003147167412
       7       -0.000008001563    -0.000005782036     0.000009449299
       8       -0.000012960354    -0.000001126559     0.000002569585
       9       -0.000588333496    -0.002256424326    -0.002573902131
      10       -0.000002620379     0.000000399415     0.000003900714
      11       -0.000002002000     0.000003244073     0.000003259966
      12       -0.000003799978    -0.000005865923     0.000001306788
      13        0.000005226673     0.000011186447    -0.000003904751

  **** Optimization is complete! (in 7 steps) ****
    Final optimized geometry and variables:
    Molecular point group: c1

    Geometry (in Angstrom), charge = 0, multiplicity = 1:

    H            0.205713033442     2.035315714031     0.076529198750
    C            0.820951165959     1.126121648690     0.101109141673
    C            0.183262653301    -0.091956493193    -0.504039866095
    O            1.900740654873     1.155723348663     0.581661626414
    C           -1.222043563779    -0.361268626351     0.050337504445
    H            0.835602210412    -0.944587828403    -0.368548205366
    H            0.112745807481     0.081629702347    -1.576179539344
    C           -1.690643286769    -1.782922103516    -0.245582117396
    H           -1.926509161436     0.331793287419    -0.397558033831
    H           -1.238931263884    -0.192970620198     1.122276183172
    H           -1.692558506644    -1.978683612578    -1.312578412278
    H           -2.696480878390    -1.944346068567     0.123088092054
    H           -1.041853336333    -2.513434456553     0.223949869138

  Mulliken Charges: (a.u.)
   Center  Symbol    Alpha    Beta     Spin     Total
       1     H     0.46498  0.46498  0.00000  0.07003
       2     C     2.90892  2.90892  0.00000  0.18216
       3     C     3.07824  3.07824  0.00000 -0.15647
       4     O     4.16364  4.16364  0.00000 -0.32728
       5     C     3.09468  3.09468  0.00000 -0.18935
       6     H     0.44341  0.44341  0.00000  0.11318
       7     H     0.44946  0.44946  0.00000  0.10107
       8     C     3.14690  3.14690  0.00000 -0.29381
       9     H     0.45071  0.45071  0.00000  0.09857
      10     H     0.44841  0.44841  0.00000  0.10318
      11     H     0.45359  0.45359  0.00000  0.09283
      12     H     0.44612  0.44612  0.00000  0.10775
      13     H     0.45093  0.45093  0.00000  0.09814

   Total alpha = 20.00000, Total beta = 20.00000, Total charge =  0.00000
