  ==> Input File <==

--------------------------------------------------------------------------
set {
	reference rhf
	basis cc-pvtz
}

set_num_threads( 4 )
memory 2 gb

molecule MOL {
0 1

O	 1.387049	 0.859445	 -2.078300
C	 0.555677	 0.913411	 -1.217704
C	 -0.604607	 1.878965	 -1.345292
N	 0.622280	 0.144970	 -0.099307
H	 -0.627643	 2.579337	 -0.519886
H	 -0.473900	 2.419629	 -2.267837
H	 -1.552544	 1.355697	 -1.369402
C	 1.664396	 -0.854993	 0.000772
C	 -0.454405	 0.011588	 0.852907
H	 2.462727	 -0.615153	 -0.690869
H	 1.261798	 -1.821849	 -0.240651
H	 2.081615	 -0.891605	 1.003877
H	 -0.038890	 -0.140158	 1.840812
H	 -1.065802	 0.896878	 0.889676
H	 -1.093629	 -0.838807	 0.626490

	symmetry c1
}
set optking {
	frozen_dihedral = ("
		2 4 8 10
	")
}

ee = optimize('scf')
oeprop('DIPOLE', 'QUADRUPOLE', 'MULLIKEN_CHARGES')
f=open( 'psi4out.xyz', 'w' )
f.write( "15  " )
f.write( str(ee) + "\n" )
f.write( MOL.save_string_xyz() )
f.close()
--------------------------------------------------------------------------

    Molecular point group: c1
  Charge       = 0
  Multiplicity = 1
  Basis Set: CC-PVTZ
  Basis Set:
  @DF-RHF Final Energy:  -286.13526416367790
    Total Energy =                       -286.1352641636778458
    Molecular point group: c1
  Basis Set: CC-PVTZ
  Basis Set:
  Basis Set: CC-PVTZ
  Basis Set:
  @DF-RHF Final Energy:  -286.13559589989541
    Total Energy =                       -286.1355958998952360
  Basis Set: CC-PVTZ
  Basis Set:
  Basis Set: CC-PVTZ
  Basis Set:
  @DF-RHF Final Energy:  -286.13559494723950
    Total Energy =                       -286.1355949472397242
  Basis Set: CC-PVTZ
  Basis Set:
  Basis Set: CC-PVTZ
  Basis Set:
  @DF-RHF Final Energy:  -286.13562752677041
    Total Energy =                       -286.1356275267705200
  Basis Set: CC-PVTZ
  Basis Set:
  Basis Set: CC-PVTZ
  Basis Set:
  @DF-RHF Final Energy:  -286.13563924348580
    Total Energy =                       -286.1356392434862528
  Basis Set: CC-PVTZ
  Basis Set:
  Charge       = 0
  Multiplicity = 1
  Basis Set: CC-PVTZ
  Basis Set:

    Orbital Energies (a.u.)
    -----------------------

    Doubly Occupied:

       1A    -20.503634     2A    -15.578463     3A    -11.335157
       4A    -11.263973     5A    -11.246420     6A    -11.226482
       7A     -1.387374     8A     -1.246319     9A     -1.015097
      10A     -0.973193    11A     -0.920843    12A     -0.739038
      13A     -0.683308    14A     -0.661953    15A     -0.653819
      16A     -0.590280    17A     -0.578176    18A     -0.567522
      19A     -0.561746    20A     -0.548391    21A     -0.530367
      22A     -0.507328    23A     -0.413719    24A     -0.370499

  @DF-RHF Final Energy:  -286.13563968863554

   => Energetics <=

    Nuclear Repulsion Energy =            252.8957216270280810
    One-Electron Energy =                -889.8565203085073563
    Two-Electron Energy =                 350.8251589928435692
    DFT Exchange-Correlation Energy =       0.0000000000000000
    Empirical Dispersion Energy =           0.0000000000000000
    PCM Polarization Energy =               0.0000000000000000
    EFP Energy =                            0.0000000000000000
    Total Energy =                       -286.1356396886356492
    Molecular point group: c1
  Basis Set: CC-PVTZ
  Basis Set:

  -Total Gradient:
     Atom            X                  Y                   Z
    ------   -----------------  -----------------  -----------------
       1       -0.000024317112    -0.000021701947     0.000022574057
       2        0.000008001397     0.000013520488    -0.000043443454
       3        0.000018510572     0.000032608103     0.000004450793
       4        0.000064812647     0.000011656828     0.000068822039
       5       -0.000006732580     0.000005717589    -0.000019163700
       6       -0.000008943362     0.000000747970    -0.000004337778
       7        0.000005946613    -0.000012016069     0.000002429322
       8       -0.000055044116    -0.000044672398     0.000008251891
       9       -0.000050168185    -0.000018905444    -0.000018183005
      10        0.000022039049     0.000013829659    -0.000031427367
      11        0.000023853931     0.000013990923     0.000011509812
      12        0.000002221560     0.000017562067    -0.000008037790
      13        0.000004626269    -0.000009699926    -0.000021445297
      14        0.000008740439    -0.000006219717     0.000025778658
      15       -0.000013547122     0.000003581874     0.000002221815

  **** Optimization is complete! (in 6 steps) ****
    Final optimized geometry and variables:
    Molecular point group: c1

    Geometry (in Angstrom), charge = 0, multiplicity = 1:

    O            0.861828284555     0.380775092867    -1.435656653015
    C            0.029640859284     0.431035860632    -0.575622533626
    C           -1.130563127608     1.397021168934    -0.701198590883
    N            0.094240693843    -0.343229317864     0.538587686563
    H           -1.151320835455     2.097899077459     0.123824988990
    H           -1.001318642179     1.937311254132    -1.624169802447
    H           -2.078815446897     0.874334481039    -0.723155979387
    C            1.136968413534    -1.342300755927     0.638759268960
    C           -0.977303146345    -0.473270362806     1.496791423567
    H            1.933138772363    -1.102587802896    -0.042259832550
    H            0.758000341707    -2.332337947219     0.398745851179
    H            1.523411125162    -1.362654214027     1.650615272070
    H           -0.556829937465    -0.617756042551     2.483820493902
    H           -1.591513046894     0.410013420957     1.530968662472
    H           -1.614619969557    -1.327118508840     1.278451440136

  Mulliken Charges: (a.u.)
   Center  Symbol    Alpha    Beta     Spin     Total
       1     O     4.22073  4.22073  0.00000 -0.44145
       2     C     2.84544  2.84544  0.00000  0.30913
       3     C     3.16077  3.16077  0.00000 -0.32154
       4     N     3.56173  3.56173  0.00000 -0.12346
       5     H     0.44887  0.44887  0.00000  0.10226
       6     H     0.42863  0.42863  0.00000  0.14274
       7     H     0.44925  0.44925  0.00000  0.10150
       8     C     3.09897  3.09897  0.00000 -0.19794
       9     C     3.09564  3.09564  0.00000 -0.19129
      10     H     0.42627  0.42627  0.00000  0.14745
      11     H     0.45791  0.45791  0.00000  0.08418
      12     H     0.45666  0.45666  0.00000  0.08668
      13     H     0.44948  0.44948  0.00000  0.10104
      14     H     0.44506  0.44506  0.00000  0.10987
      15     H     0.45459  0.45459  0.00000  0.09082

   Total alpha = 24.00000, Total beta = 24.00000, Total charge = -0.00000
