                              Psi4 1.0.54 Driver

  ==> Input File <==

--------------------------------------------------------------------------
set {
	reference rhf
	basis cc-pvtz
}

set_num_threads( 4 )
memory 2 gb

molecule MOL {
0 1

O	 1.150003	 -2.287004	 1.434295
C	 0.320627	 -1.774530	 0.763933
C	 -1.108633	 -2.225641	 0.667125
O	 0.550743	 -0.719877	 0.000412
H	 -1.764939	 -1.418993	 0.967101
H	 -1.260323	 -3.083878	 1.301122
H	 -1.341774	 -2.474370	 -0.360111
C	 1.863204	 -0.194033	 0.000410
H	 2.031502	 0.409177	 -0.879273
H	 2.524488	 -1.045142	 0.000793
H	 2.031291	 0.409823	 0.879686

	symmetry c1
}
set optking {
	frozen_dihedral = ("
		2 4 8 9
	")
}

ee,wfn = optimize('scf', return_wfn=True)
oeprop( wfn, 'DIPOLE', 'QUADRUPOLE', 'MULLIKEN_CHARGES')
f=open( 'psi4out.xyz', 'w' )
f.write( "11  " )
f.write( str(ee) + "\n" )
f.write( MOL.save_string_xyz() )
f.close()
--------------------------------------------------------------------------

    Molecular point group: c1
  Charge       = 0
  Multiplicity = 1
  Basis Set: CC-PVTZ
  Basis Set:
  @DF-RHF Final Energy:  -266.93704624293900
    Total Energy =                       -266.9370462429390045
    Molecular point group: c1
  Basis Set: CC-PVTZ
  Basis Set:
  Basis Set: CC-PVTZ
  Basis Set:
  @DF-RHF Final Energy:  -266.93830836371183
    Total Energy =                       -266.9383083637119398
  Basis Set: CC-PVTZ
  Basis Set:
  Basis Set: CC-PVTZ
  Basis Set:
  @DF-RHF Final Energy:  -266.93863637299114
    Total Energy =                       -266.9386363729912546
  Basis Set: CC-PVTZ
  Basis Set:
  Basis Set: CC-PVTZ
  Basis Set:
  @DF-RHF Final Energy:  -266.93832845967449
    Total Energy =                       -266.9383284596744375
  Basis Set: CC-PVTZ
  Basis Set:
  Basis Set: CC-PVTZ
  Basis Set:
  @DF-RHF Final Energy:  -266.93865634668890
    Total Energy =                       -266.9386563466889584
  Basis Set: CC-PVTZ
  Basis Set:
  Charge       = 0
  Multiplicity = 1
  Basis Set: CC-PVTZ
  Basis Set:

    Orbital Energies (a.u.)
    -----------------------

    Doubly Occupied:

       1A    -20.598527     2A    -20.535074     3A    -11.369155
       4A    -11.279623     5A    -11.233037     6A     -1.473608
       7A     -1.367841     8A     -1.037047     9A     -0.953876
      10A     -0.779999    11A     -0.698402    12A     -0.684149
      13A     -0.681121    14A     -0.597040    15A     -0.592793
      16A     -0.561721    17A     -0.528514    18A     -0.523309
      19A     -0.461722    20A     -0.445815

  @DF-RHF Final Energy:  -266.93865721868883

   => Energetics <=

    Nuclear Repulsion Energy =            183.5823025847352596
    One-Electron Energy =                -728.2371715820582949
    Two-Electron Energy =                 277.7162117786342606
    DFT Exchange-Correlation Energy =       0.0000000000000000
    Empirical Dispersion Energy =           0.0000000000000000
    PCM Polarization Energy =               0.0000000000000000
    EFP Energy =                            0.0000000000000000
    Total Energy =                       -266.9386572186888316
    Molecular point group: c1
  Basis Set: CC-PVTZ
  Basis Set:

  -Total Gradient:
     Atom            X                  Y                   Z
    ------   -----------------  -----------------  -----------------
       1        0.000027355666    -0.000038991630     0.000042890123
       2        0.000315193209    -0.000703516830    -0.001080363955
       3        0.000026924051     0.000027646323    -0.000023792678
       4       -0.000393694592     0.000818587572     0.001311747182
       5        0.000009259646     0.000001838699     0.000007892561
       6        0.000028826684     0.000017045145    -0.000001365049
       7        0.000007496430     0.000003969445     0.000005107290
       8       -0.000534123913     0.001034926243     0.000507628424
       9        0.000518811212    -0.001168303438    -0.000762006800
      10       -0.000010725060     0.000001465895     0.000000509483
      11        0.000004676667     0.000005332577    -0.000008246578

  **** Optimization is complete! (in 6 steps) ****
    Final optimized geometry and variables:
    Molecular point group: c1

    Geometry (in Angstrom), charge = 0, multiplicity = 1:

    O            0.592877094043    -0.856436661104     0.870221516482
    C           -0.239397295319    -0.361880165193     0.190200299506
    C           -1.646176197158    -0.868432557514     0.048624816623
    O           -0.039123458285     0.719600634665    -0.544149167488
    H           -2.341542326700    -0.095904121371     0.350402436841
    H           -1.777108365357    -1.746118896607     0.660193889529
    H           -1.845005944380    -1.102751185701    -0.989112541977
    C            1.252418762424     1.295531339041    -0.537539808678
    H            1.315114725180     1.904994549901    -1.424636020608
    H            2.012204855991     0.530920245116    -0.560702113214
    H            1.386729907684     1.903999556040     0.345594215507

  Mulliken Charges: (a.u.)
   Center  Symbol    Alpha    Beta     Spin     Total
       1     O     4.19692  4.19692  0.00000 -0.39384
       2     C     2.80067  2.80067  0.00000  0.39866
       3     C     3.13863  3.13863  0.00000 -0.27725
       4     O     4.14831  4.14831  0.00000 -0.29663
       5     H     0.44520  0.44520  0.00000  0.10960
       6     H     0.43789  0.43789  0.00000  0.12422
       7     H     0.44572  0.44572  0.00000  0.10855
       8     C     3.03357  3.03357  0.00000 -0.06714
       9     H     0.44676  0.44676  0.00000  0.10648
      10     H     0.45011  0.45011  0.00000  0.09979
      11     H     0.45622  0.45622  0.00000  0.08756

   Total alpha = 20.00000, Total beta = 20.00000, Total charge =  0.00000

*** Psi4 exiting successfully. Buy a developer a beer!
