  ==> Input File <==

--------------------------------------------------------------------------
set {
	reference rhf
	basis 6-31G*
}

set_num_threads( 4 )
memory 2 gb

molecule MOL {
0 1

H	 -0.010466	 3.454857	 -0.802182
C	 0.411865	 3.077212	 0.137308
C	 -0.542063	 2.279722	 0.989741
O	 1.543190	 3.306961	 0.418500
C	 -1.220012	 1.144545	 0.209990
H	 -0.000057	 1.904151	 1.849907
H	 -1.303058	 2.970776	 1.350277
C	 -0.252658	 0.041456	 -0.226725
H	 -1.998250	 0.715562	 0.834172
H	 -1.724786	 1.556743	 -0.662394
C	 1.180775	 0.282413	 0.250794
H	 -0.266029	 -0.034465	 -1.312038
H	 -0.597733	 -0.921000	 0.146291
C	 2.148627	 -0.814315	 -0.201312
H	 1.516199	 1.249228	 -0.115937
H	 1.192670	 0.346017	 1.338083
C	 3.580890	 -0.659131	 0.322722
H	 2.166869	 -0.852443	 -1.289387
H	 1.762857	 -1.776509	 0.128956
C	 4.324889	 0.564933	 -0.213704
H	 4.142010	 -1.551473	 0.056605
H	 3.564836	 -0.624694	 1.410140
H	 4.342616	 0.565491	 -1.300421
H	 3.866655	 1.493402	 0.110242
H	 5.353900	 0.572371	 0.132816

	symmetry c1
}
set optking {
	frozen_dihedral = ("
		3 5 8 12
	")
}

ee = optimize('scf')
oeprop('DIPOLE', 'QUADRUPOLE', 'MULLIKEN_CHARGES')
f=open( 'psi4out.xyz', 'w' )
f.write( "25  " )
f.write( str(ee) + "\n" )
f.write( MOL.save_string_xyz() )
f.close()
--------------------------------------------------------------------------

    Molecular point group: c1
  Charge       = 0
  Multiplicity = 1
  Basis Set: 6-31G*
  Basis Set:
  @DF-RHF Final Energy:  -387.09985365008714
    Total Energy =                       -387.0998536500865157
    Molecular point group: c1
  Basis Set: 6-31G*
  Basis Set:
  Basis Set: 6-31G*
  Basis Set:
  @DF-RHF Final Energy:  -387.10771318741314
    Total Energy =                       -387.1077131874126280
  Basis Set: 6-31G*
  Basis Set:
  Basis Set: 6-31G*
  Basis Set:
  @DF-RHF Final Energy:  -387.11028616517797
    Total Energy =                       -387.1102861651789908
  Basis Set: 6-31G*
  Basis Set:
  Basis Set: 6-31G*
  Basis Set:
  @DF-RHF Final Energy:  -387.11127878564270
    Total Energy =                       -387.1112787856422983
  Basis Set: 6-31G*
  Basis Set:
  @DF-RHF Final Energy:  -387.11069258013850
    Total Energy =                       -387.1106925801381067
  @DF-RHF Final Energy:  -387.11152159052159
    Total Energy =                       -387.1115215905218747
  @DF-RHF Final Energy:  -387.11185573823758
    Total Energy =                       -387.1118557382376366
  @DF-RHF Final Energy:  -387.11186925104874
    Total Energy =                       -387.1118692510493702
  @DF-RHF Final Energy:  -387.11186482489222
    Total Energy =                       -387.1118648248925638
  Basis Set: 6-31G*
  Basis Set:
  @DF-RHF Final Energy:  -387.11188220725870
    Total Energy =                       -387.1118822072583043
  Basis Set: 6-31G*
  Basis Set:
  Basis Set: 6-31G*
  Basis Set:
  @DF-RHF Final Energy:  -387.11188501086730
    Total Energy =                       -387.1118850108666720
  Basis Set: 6-31G*
  Basis Set:
  Basis Set: 6-31G*
  Basis Set:
  @DF-RHF Final Energy:  -387.11188740642689
    Total Energy =                       -387.1118874064272859
  Basis Set: 6-31G*
  Basis Set:
  Charge       = 0
  Multiplicity = 1
  Basis Set: 6-31G*
  Basis Set:

    Orbital Energies (a.u.)
    -----------------------

    Doubly Occupied:

       1A    -20.562361     2A    -11.327081     3A    -11.235954
       4A    -11.235320     5A    -11.223620     6A    -11.215561
       7A    -11.214339     8A    -11.213460     9A    -11.203736
      10A     -1.402513    11A     -1.099047    12A     -1.064951
      13A     -1.007942    14A     -0.942366    15A     -0.879577
      16A     -0.816139    17A     -0.787282    18A     -0.772390
      19A     -0.664433    20A     -0.658233    21A     -0.630663
      22A     -0.622793    23A     -0.603271    24A     -0.595309
      25A     -0.563958    26A     -0.547348    27A     -0.537212
      28A     -0.526501    29A     -0.509491    30A     -0.499727
      31A     -0.475026    32A     -0.471489    33A     -0.458656
      34A     -0.452327    35A     -0.441701    36A     -0.408966

  @DF-RHF Final Energy:  -387.11188789182239

   => Energetics <=

    Nuclear Repulsion Energy =            455.6982534326154450
    One-Electron Energy =               -1427.8787954718779929
    Two-Electron Energy =                 585.0686541474398155
    DFT Exchange-Correlation Energy =       0.0000000000000000
    Empirical Dispersion Energy =           0.0000000000000000
    PCM Polarization Energy =               0.0000000000000000
    EFP Energy =                            0.0000000000000000
    Total Energy =                       -387.1118878918226756
    Molecular point group: c1
  Basis Set: 6-31G*
  Basis Set:

  -Total Gradient:
     Atom            X                  Y                   Z
    ------   -----------------  -----------------  -----------------
       1       -0.000009585319     0.000005242015    -0.000012114228
       2        0.000027544292     0.000045175942     0.000015675042
       3       -0.000315486477    -0.001033139043     0.001893212812
       4       -0.000036684591    -0.000011695430    -0.000010533968
       5        0.000012685001     0.001067345812    -0.002711667993
       6       -0.000004561089    -0.000006792839     0.000016109741
       7        0.000004821478    -0.000000124158    -0.000012596913
       8        0.002305802899     0.001964370119     0.000652122437
       9        0.000006784666    -0.000001614637    -0.000005597495
      10       -0.000008645202    -0.000000635631    -0.000002367562
      11        0.000030069943     0.000033167975    -0.000010058639
      12       -0.002009914285    -0.002009047835     0.000186937693
      13       -0.000000796463     0.000005709102     0.000000868312
      14        0.000000643357    -0.000033696987     0.000017819778
      15        0.000013018073    -0.000014134111    -0.000002901506
      16       -0.000005655358    -0.000011769880    -0.000002623079
      17       -0.000003025180    -0.000000189524    -0.000009535121
      18       -0.000007861869     0.000018378987     0.000008549636
      19        0.000019988295    -0.000019710650    -0.000003668236
      20        0.000003139053     0.000005424153    -0.000002672831
      21       -0.000016850970    -0.000011922777     0.000001459533
      22       -0.000001927783     0.000004641381     0.000001282091
      23        0.000007196963     0.000004793566    -0.000001729357
      24       -0.000010537273     0.000000928294    -0.000008326832
      25       -0.000000162159    -0.000000703846     0.000002356685

  **** Optimization is complete! (in 13 steps) ****
    Final optimized geometry and variables:
    Molecular point group: c1

    Geometry (in Angstrom), charge = 0, multiplicity = 1:

    H           -1.668760583634     2.536412232664    -0.987648787492
    C           -1.160011912767     2.278198019308    -0.050262669980
    C           -1.887216505857     1.276691921052     0.811491559892
    O           -0.126609161708     2.794770826364     0.228875588668
    C           -2.399029191509     0.049695806331     0.036917985377
    H           -1.255685914409     1.012992701573     1.649265603991
    H           -2.754202538460     1.802129707357     1.211628312026
    C           -1.361288698858    -1.028069844800    -0.389358213689
    H           -3.149916117434    -0.423167881240     0.660468123214
    H           -2.935437269160     0.400838292469    -0.840959648011
    C            0.084942395467    -0.857147945773     0.088077286113
    H           -1.370261048504    -1.117157031146    -1.472529841117
    H           -1.716249782817    -1.990550514477    -0.030848729815
    C            0.984668431538    -1.989582942391    -0.415726816469
    H            0.481060164656     0.096679596271    -0.240238668307
    H            0.114194539349    -0.843789450981     1.175433813828
    C            2.427254524733    -1.931293318237     0.099697204862
    H            0.993579066732    -1.985159128720    -1.504651779695
    H            0.549474099894    -2.942160854100    -0.119845520806
    C            3.229944119016    -0.726328638961    -0.394548964686
    H            2.937785243919    -2.841200633798    -0.206467628438
    H            2.420323965210    -1.939512248621     1.187784756997
    H            3.245500828768    -0.687578560151    -1.480603730380
    H            2.820426210165     0.211650978200    -0.035647354209
    H            4.258868111380    -0.784215435215    -0.052920948821

  Mulliken Charges: (a.u.)
   Center  Symbol    Alpha    Beta     Spin     Total
       1     H     0.43202  0.43202  0.00000  0.13596
       2     C     2.82835  2.82835  0.00000  0.34331
       3     C     3.21144  3.21144  0.00000 -0.42288
       4     O     4.24080  4.24080  0.00000 -0.48159
       5     C     3.16941  3.16941  0.00000 -0.33882
       6     H     0.39701  0.39701  0.00000  0.20598
       7     H     0.40532  0.40532  0.00000  0.18936
       8     C     3.15722  3.15722  0.00000 -0.31444
       9     H     0.41138  0.41138  0.00000  0.17724
      10     H     0.41726  0.41726  0.00000  0.16549
      11     C     3.16422  3.16422  0.00000 -0.32845
      12     H     0.41893  0.41893  0.00000  0.16215
      13     H     0.41824  0.41824  0.00000  0.16352
      14     C     3.15258  3.15258  0.00000 -0.30517
      15     H     0.41007  0.41007  0.00000  0.17987
      16     H     0.42224  0.42224  0.00000  0.15552
      17     C     3.15223  3.15223  0.00000 -0.30445
      18     H     0.42412  0.42412  0.00000  0.15175
      19     H     0.42312  0.42312  0.00000  0.15376
      20     C     3.24345  3.24345  0.00000 -0.48689
      21     H     0.42147  0.42147  0.00000  0.15707
      22     H     0.42326  0.42326  0.00000  0.15347
      23     H     0.42304  0.42304  0.00000  0.15392
      24     H     0.41335  0.41335  0.00000  0.17330
      25     H     0.41949  0.41949  0.00000  0.16103

   Total alpha = 36.00000, Total beta = 36.00000, Total charge =  0.00000
