                              Psi4 1.0.54 Driver

  ==> Input File <==

--------------------------------------------------------------------------
set {
	reference rhf
	basis cc-pvtz
}

set_num_threads( 4 )
memory 2 gb

molecule MOL {
0 1

H	 -0.520378	 -1.601596	 0.297151
N	 -0.625934	 -0.663929	 -0.000707
C	 -1.937247	 -0.216535	 -0.407395
C	 0.468494	 0.129045	 -0.002160
H	 -2.301131	 -0.794989	 -1.248209
H	 -1.867320	 0.817148	 -0.700146
H	 -2.647052	 -0.302747	 0.406719
C	 1.785715	 -0.615093	 0.000603
O	 0.413285	 1.323206	 0.000532
H	 1.866994	 -1.243310	 -0.878792
H	 2.591506	 0.100263	 0.006422
H	 1.860358	 -1.250360	 0.875522

	symmetry c1
}
set optking {
	frozen_dihedral = ("
		3 2 4 9
	")
}

ee,wfn = optimize('scf', return_wfn=True)
oeprop( wfn, 'DIPOLE', 'QUADRUPOLE', 'MULLIKEN_CHARGES')
f=open( 'psi4out.xyz', 'w' )
f.write( "12  " )
f.write( str(ee) + "\n" )
f.write( MOL.save_string_xyz() )
f.close()
--------------------------------------------------------------------------

    Molecular point group: c1
  Charge       = 0
  Multiplicity = 1
  Basis Set: CC-PVTZ
  Basis Set:
  @DF-RHF Final Energy:  -247.09672192004854
    Total Energy =                       -247.0967219200487648
    Molecular point group: c1
  Basis Set: CC-PVTZ
  Basis Set:
  Basis Set: CC-PVTZ
  Basis Set:
  @DF-RHF Final Energy:  -247.09798888020541
    Total Energy =                       -247.0979888802054347
  Basis Set: CC-PVTZ
  Basis Set:
  Basis Set: CC-PVTZ
  Basis Set:
  @DF-RHF Final Energy:  -247.09892503381531
    Total Energy =                       -247.0989250338152488
  Basis Set: CC-PVTZ
  Basis Set:
  Basis Set: CC-PVTZ
  Basis Set:
  @DF-RHF Final Energy:  -247.09970810799510
    Total Energy =                       -247.0997081079950703
  Basis Set: CC-PVTZ
  Basis Set:
  @DF-RHF Final Energy:  -247.09978773373922
    Total Energy =                       -247.0997877337391628
  @DF-RHF Final Energy:  -247.09991013071334
    Total Energy =                       -247.0999101307136243
  @DF-RHF Final Energy:  -247.09968372364997
    Total Energy =                       -247.0996837236498322
  @DF-RHF Final Energy:  -247.10022123846790
    Total Energy =                       -247.1002212384678955
  Basis Set: CC-PVTZ
  Basis Set:
  @DF-RHF Final Energy:  -247.10036518281888
    Total Energy =                       -247.1003651828187913
  Basis Set: CC-PVTZ
  Basis Set:
  Basis Set: CC-PVTZ
  Basis Set:
  @DF-RHF Final Energy:  -247.10041446751254
    Total Energy =                       -247.1004144675126213
  Basis Set: CC-PVTZ
  Basis Set:
  Basis Set: CC-PVTZ
  Basis Set:
  @DF-RHF Final Energy:  -247.10041859416285
    Total Energy =                       -247.1004185941629885
  Basis Set: CC-PVTZ
  Basis Set:
  Charge       = 0
  Multiplicity = 1
  Basis Set: CC-PVTZ
  Basis Set:

    Orbital Energies (a.u.)
    -----------------------

    Doubly Occupied:

       1A    -20.510120     2A    -15.575278     3A    -11.337048
       4A    -11.253456     5A    -11.229436     6A     -1.391562
       7A     -1.231160     8A     -1.016673     9A     -0.932476
      10A     -0.784837    11A     -0.691195    12A     -0.652324
      13A     -0.635865    14A     -0.588087    15A     -0.583588
      16A     -0.555050    17A     -0.547237    18A     -0.508402
      19A     -0.420712    20A     -0.393729

  @DF-RHF Final Energy:  -247.10041941336084

   => Energetics <=

    Nuclear Repulsion Energy =            181.7970223724548759
    One-Electron Energy =                -696.1184124512628841
    Two-Electron Energy =                 267.2209706654472257
    DFT Exchange-Correlation Energy =       0.0000000000000000
    Empirical Dispersion Energy =           0.0000000000000000
    PCM Polarization Energy =               0.0000000000000000
    EFP Energy =                            0.0000000000000000
    Total Energy =                       -247.1004194133607825
    Molecular point group: c1
  Basis Set: CC-PVTZ
  Basis Set:

  -Total Gradient:
     Atom            X                  Y                   Z
    ------   -----------------  -----------------  -----------------
       1        0.000006718876    -0.000003373760    -0.000001792306
       2       -0.000469634973     0.004272815833     0.005631572996
       3        0.000440745344    -0.002246680378    -0.002529214944
       4       -0.000397900872    -0.003929095905    -0.006923336442
       5        0.000045974782     0.000004355362     0.000077645598
       6       -0.000019290833    -0.000033850928     0.000003807081
       7        0.000002040111     0.000036208965     0.000002755437
       8       -0.000040783454    -0.000020148250    -0.000052621708
       9        0.000483128716     0.001884943629     0.003726257152
      10       -0.000017294436     0.000025485323     0.000010709197
      11       -0.000045442871     0.000017592711     0.000024681970
      12        0.000011739611    -0.000008252601     0.000029535966

  **** Optimization is complete! (in 12 steps) ****
    Final optimized geometry and variables:
    Molecular point group: c1

    Geometry (in Angstrom), charge = 0, multiplicity = 1:

    H           -0.435904614905    -1.495388381336     0.703786866802
    N           -0.608993379601    -0.556506374644     0.437553807051
    C           -1.945975184989    -0.259632213658    -0.032106628197
    C            0.459268995444     0.142411552019    -0.026466288531
    H           -2.083174638207    -0.531128248423    -1.073156683566
    H           -2.139257471504     0.795877023379     0.071323463045
    H           -2.658022218693    -0.805416169861     0.570917390844
    C            1.804424002108    -0.512636612060     0.187990765306
    O            0.351940397962     1.215115176606    -0.539438695467
    H            2.017368687238    -1.158892797169    -0.656500184106
    H            2.563288515918     0.252239794595     0.234100555218
    H            1.828707990966    -1.110153712297     1.090330141791

  Mulliken Charges: (a.u.)
   Center  Symbol    Alpha    Beta     Spin     Total
       1     H     0.41833  0.41833  0.00000  0.16333
       2     N     3.61319  3.61319  0.00000 -0.22639
       3     C     3.08132  3.08132  0.00000 -0.16265
       4     C     2.83914  2.83914  0.00000  0.32173
       5     H     0.45910  0.45910  0.00000  0.08181
       6     H     0.43720  0.43720  0.00000  0.12559
       7     H     0.45385  0.45385  0.00000  0.09230
       8     C     3.15079  3.15079  0.00000 -0.30157
       9     O     4.21220  4.21220  0.00000 -0.42440
      10     H     0.44631  0.44631  0.00000  0.10737
      11     H     0.43459  0.43459  0.00000  0.13082
      12     H     0.45397  0.45397  0.00000  0.09206

   Total alpha = 20.00000, Total beta = 20.00000, Total charge = -0.00000

*** Psi4 exiting successfully. Buy a developer a beer!
