                              Psi4 1.0.54 Driver

  ==> Input File <==

--------------------------------------------------------------------------
set {
	reference rhf
	basis cc-pvtz
}

set_num_threads( 4 )
memory 2 gb

molecule MOL {
0 1

H	 0.710892	 -2.823046	 -1.978231
O	 0.729046	 -2.305492	 -1.187317
C	 -0.277070	 -1.436825	 -1.229403
C	 -0.318151	 -0.570512	 0.000144
O	 -1.026241	 -1.385266	 -2.142667
C	 -1.454884	 0.441630	 -0.000560
H	 -0.381579	 -1.233641	 0.856956
H	 0.646572	 -0.079442	 0.077987
C	 -2.822577	 -0.232186	 0.000063
H	 -1.359760	 1.084704	 -0.867077
H	 -1.359641	 1.085996	 0.864983
H	 -2.954352	 -0.858985	 -0.875745
H	 -3.615886	 0.505352	 0.000019
H	 -2.953878	 -0.858359	 0.876394

	symmetry c1
}
set optking {
	frozen_dihedral = ("
		7 4 6 10
	")
}

ee,wfn = optimize('scf', return_wfn=True)
oeprop( wfn, 'DIPOLE', 'QUADRUPOLE', 'MULLIKEN_CHARGES')
f=open( 'psi4out.xyz', 'w' )
f.write( "14  " )
f.write( str(ee) + "\n" )
f.write( MOL.save_string_xyz() )
f.close()
--------------------------------------------------------------------------

    Molecular point group: c1
  Charge       = 0
  Multiplicity = 1
  Basis Set: CC-PVTZ
  Basis Set:
  @DF-RHF Final Energy:  -305.99870522562264
    Total Energy =                       -305.9987052256227003
    Molecular point group: c1
  Basis Set: CC-PVTZ
  Basis Set:
  Basis Set: CC-PVTZ
  Basis Set:
  @DF-RHF Final Energy:  -305.99985027132124
    Total Energy =                       -305.9998502713212929
  Basis Set: CC-PVTZ
  Basis Set:
  Basis Set: CC-PVTZ
  Basis Set:
  @DF-RHF Final Energy:  -305.99810471476144
    Total Energy =                       -305.9981047147613253
  Basis Set: CC-PVTZ
  Basis Set:
  Basis Set: CC-PVTZ
  Basis Set:
  @DF-RHF Final Energy:  -306.00008825309624
    Total Energy =                       -306.0000882530962372
  Basis Set: CC-PVTZ
  Basis Set:
  Basis Set: CC-PVTZ
  Basis Set:
  @DF-RHF Final Energy:  -306.00022341977427
    Total Energy =                       -306.0002234197744428
  Basis Set: CC-PVTZ
  Basis Set:
  Basis Set: CC-PVTZ
  Basis Set:
  @DF-RHF Final Energy:  -306.00026514826260
    Total Energy =                       -306.0002651482623151
  Basis Set: CC-PVTZ
  Basis Set:
  Basis Set: CC-PVTZ
  Basis Set:
  @DF-RHF Final Energy:  -306.00027510303215
    Total Energy =                       -306.0002751030320951
  Basis Set: CC-PVTZ
  Basis Set:
  Charge       = 0
  Multiplicity = 1
  Basis Set: CC-PVTZ
  Basis Set:

    Orbital Energies (a.u.)
    -----------------------

    Doubly Occupied:

       1A    -20.605335     2A    -20.541115     3A    -11.374785
       4A    -11.240081     5A    -11.224975     6A    -11.208846
       7A     -1.478870     8A     -1.370049     9A     -1.082814
      10A     -0.977452    11A     -0.863581    12A     -0.788985
      13A     -0.706303    14A     -0.694397    15A     -0.662562
      16A     -0.614812    17A     -0.596662    18A     -0.568508
      19A     -0.558080    20A     -0.498406    21A     -0.491188
      22A     -0.486251    23A     -0.481529    24A     -0.445681

  @DF-RHF Final Energy:  -306.00027568060381

   => Energetics <=

    Nuclear Repulsion Energy =            245.0220466826274901
    One-Electron Energy =                -902.9221146741429038
    Two-Electron Energy =                 351.8997923109114367
    DFT Exchange-Correlation Energy =       0.0000000000000000
    Empirical Dispersion Energy =           0.0000000000000000
    PCM Polarization Energy =               0.0000000000000000
    EFP Energy =                            0.0000000000000000
    Total Energy =                       -306.0002756806040338
    Molecular point group: c1
  Basis Set: CC-PVTZ
  Basis Set:

  -Total Gradient:
     Atom            X                  Y                   Z
    ------   -----------------  -----------------  -----------------
       1        0.000007960844    -0.000008988710    -0.000000555353
       2       -0.000035735806     0.000033181689    -0.000038864379
       3        0.000019661087     0.000001556203     0.000029170595
       4       -0.000758990078    -0.000754494976    -0.000699951240
       5        0.000024146813    -0.000029220149     0.000018273643
       6       -0.000593376994    -0.000733179621    -0.000617105352
       7        0.000673774842     0.000749184991     0.000662936209
       8        0.000033510081    -0.000009545177     0.000005279648
       9       -0.000004737867     0.000011109547     0.000010591164
      10        0.000640023255     0.000747323728     0.000648551358
      11        0.000000107045     0.000002299082    -0.000003919799
      12       -0.000001140957    -0.000005671750    -0.000008234326
      13       -0.000007665287    -0.000006092587    -0.000003087002
      14        0.000002463023     0.000002537730    -0.000003085170

  **** Optimization is complete! (in 8 steps) ****
    Final optimized geometry and variables:
    Molecular point group: c1

    Geometry (in Angstrom), charge = 0, multiplicity = 1:

    H            1.491374046243    -1.970087745957    -1.111942482124
    O            1.418136679027    -1.512447324460    -0.287819582977
    C            0.611312394762    -0.469596327517    -0.456524591378
    C            0.484694382367     0.350229688123     0.800099904378
    O            0.099976171629    -0.232503411653    -1.496350412341
    C           -0.657653030307     1.359637413508     0.786968232351
    H            0.412766187771    -0.323140733355     1.645881716517
    H            1.437595668108     0.860081516175     0.911331285644
    C           -2.045516368049     0.726596189782     0.791674006953
    H           -0.548005960774     2.010860844712    -0.071208381233
    H           -0.549067241624     1.986489017217     1.666012395374
    H           -2.208716924340     0.127857760410    -0.094533277307
    H           -2.812742336835     1.491114629444     0.821482733466
    H           -2.180546048015     0.091311190288     1.661533487554

  Mulliken Charges: (a.u.)
   Center  Symbol    Alpha    Beta     Spin     Total
       1     H     0.38189  0.38189  0.00000  0.23622
       2     O     4.15949  4.15949  0.00000 -0.31898
       3     C     2.80468  2.80468  0.00000  0.39065
       4     C     3.11169  3.11169  0.00000 -0.22337
       5     O     4.19346  4.19346  0.00000 -0.38692
       6     C     3.08347  3.08347  0.00000 -0.16693
       7     H     0.43631  0.43631  0.00000  0.12739
       8     H     0.43397  0.43397  0.00000  0.13206
       9     C     3.15323  3.15323  0.00000 -0.30646
      10     H     0.44609  0.44609  0.00000  0.10782
      11     H     0.44756  0.44756  0.00000  0.10489
      12     H     0.44329  0.44329  0.00000  0.11341
      13     H     0.44756  0.44756  0.00000  0.10488
      14     H     0.45733  0.45733  0.00000  0.08534

   Total alpha = 24.00000, Total beta = 24.00000, Total charge = -0.00000

*** Psi4 exiting successfully. Buy a developer a beer!
