                              Psi4 1.0.54 Driver

  ==> Input File <==

--------------------------------------------------------------------------
set {
	reference rhf
	basis cc-pvtz
}

set_num_threads( 4 )
memory 2 gb

molecule MOL {
0 1

O	 2.459897	 1.985301	 -0.379335
C	 1.585673	 2.108322	 -1.173506
C	 0.329841	 1.261467	 -1.134075
C	 1.670006	 3.128302	 -2.286499
C	 0.288398	 0.247429	 0.000314
H	 -0.519719	 1.938290	 -1.077288
H	 0.238975	 0.765582	 -2.097842
C	 -0.993089	 -0.581367	 -0.000217
H	 0.390444	 0.767524	 0.945936
H	 1.149927	 -0.406144	 -0.075479
C	 -2.258482	 0.271340	 0.000669
H	 -1.002280	 -1.233920	 -0.870484
H	 -1.002061	 -1.235367	 0.868958
C	 -3.544441	 -0.550271	 -0.000253
H	 -2.250545	 0.925250	 -0.867923
H	 -2.250598	 0.923423	 0.870642
C	 -4.804551	 0.308747	 0.000556
H	 -3.553737	 -1.201524	 -0.870151
H	 -3.553831	 -1.203282	 0.868313
H	 -4.842050	 0.949078	 -0.874436
H	 -5.698404	 -0.304480	 -0.000254
H	 -4.842277	 0.947103	 0.876982
H	 0.837658	 3.820585	 -2.223345
H	 2.600086	 3.670890	 -2.216201
H	 1.606718	 2.635707	 -3.250546

	symmetry c1
}
set optking {
	frozen_dihedral = ("
		9 5 8 12
	")
}

ee,wfn = optimize('scf', return_wfn=True)
oeprop( wfn, 'DIPOLE', 'QUADRUPOLE', 'MULLIKEN_CHARGES')
f=open( 'psi4out.xyz', 'w' )
f.write( "25  " )
f.write( str(ee) + "\n" )
f.write( MOL.save_string_xyz() )
f.close()
--------------------------------------------------------------------------

    Molecular point group: c1
  Charge       = 0
  Multiplicity = 1
  Basis Set: CC-PVTZ
  Basis Set:
  @DF-RHF Final Energy:  -387.27082157389464
    Total Energy =                       -387.2708215738945228
    Molecular point group: c1
  Basis Set: CC-PVTZ
  Basis Set:
  Basis Set: CC-PVTZ
  Basis Set:
  @DF-RHF Final Energy:  -387.27085329187997
    Total Energy =                       -387.2708532918800302
  Basis Set: CC-PVTZ
  Basis Set:
  Basis Set: CC-PVTZ
  Basis Set:
  @DF-RHF Final Energy:  -387.27245275799987
    Total Energy =                       -387.2724527580000995
  Basis Set: CC-PVTZ
  Basis Set:
  Basis Set: CC-PVTZ
  Basis Set:
  @DF-RHF Final Energy:  -387.27250349689871
    Total Energy =                       -387.2725034968990485
  Basis Set: CC-PVTZ
  Basis Set:
  Basis Set: CC-PVTZ
  Basis Set:
  @DF-RHF Final Energy:  -387.27247423356482
    Total Energy =                       -387.2724742335651626
  Basis Set: CC-PVTZ
  Basis Set:
  Basis Set: CC-PVTZ
  Basis Set:
  @DF-RHF Final Energy:  -387.27258384114378
    Total Energy =                       -387.2725838411439554
  Basis Set: CC-PVTZ
  Basis Set:
  Charge       = 0
  Multiplicity = 1
  Basis Set: CC-PVTZ
  Basis Set:

    Orbital Energies (a.u.)
    -----------------------

    Doubly Occupied:

       1A    -20.538775     2A    -11.320443     3A    -11.229689
       4A    -11.226499     5A    -11.215599     6A    -11.215413
       7A    -11.214866     8A    -11.214324     9A    -11.208799
      10A     -1.398865    11A     -1.096060    12A     -1.057116
      13A     -1.015615    14A     -0.969019    15A     -0.899523
      16A     -0.816874    17A     -0.787877    18A     -0.731539
      19A     -0.660311    20A     -0.653035    21A     -0.637830
      22A     -0.623809    23A     -0.598274    24A     -0.581705
      25A     -0.568556    26A     -0.566017    27A     -0.544275
      28A     -0.529710    29A     -0.517584    30A     -0.495650
      31A     -0.490392    32A     -0.477319    33A     -0.462433
      34A     -0.459891    35A     -0.448390    36A     -0.402819

  @DF-RHF Final Energy:  -387.27258436290901

   => Energetics <=

    Nuclear Repulsion Energy =            445.5163085204142135
    One-Electron Energy =               -1407.8279949223933727
    Two-Electron Energy =                 575.0391020390698031
    DFT Exchange-Correlation Energy =       0.0000000000000000
    Empirical Dispersion Energy =           0.0000000000000000
    PCM Polarization Energy =               0.0000000000000000
    EFP Energy =                            0.0000000000000000
    Total Energy =                       -387.2725843629093561
    Molecular point group: c1
  Basis Set: CC-PVTZ
  Basis Set:

  -Total Gradient:
     Atom            X                  Y                   Z
    ------   -----------------  -----------------  -----------------
       1        0.000038153308    -0.000005899731     0.000008270599
       2       -0.000027754936     0.000036506081     0.000017242131
       3       -0.000003250521    -0.000048247673    -0.000024388418
       4        0.000002274140    -0.000009151954     0.000007595305
       5       -0.001020307725     0.001550622753    -0.000617602246
       6       -0.000014352109     0.000015307943     0.000002427152
       7       -0.000010267432    -0.000002611933    -0.000036891424
       8       -0.000839761207     0.001362171596    -0.001094926982
       9        0.000991072756    -0.001516559972     0.000756747682
      10       -0.000026082384     0.000001771598     0.000006732840
      11        0.000030264513     0.000005666348    -0.000040929345
      12        0.000872442277    -0.001383886929     0.001018318333
      13        0.000003315639    -0.000005717001     0.000001598851
      14        0.000020383211    -0.000002727391     0.000007367314
      15        0.000022397540     0.000011482669    -0.000026555598
      16       -0.000009907416     0.000011690001    -0.000005163192
      17       -0.000011919738    -0.000016068004     0.000024546639
      18       -0.000007176848     0.000007739902    -0.000013129817
      19       -0.000002354301    -0.000024691197     0.000008434797
      20        0.000007312615    -0.000002147759    -0.000007602012
      21       -0.000013981800     0.000001384439     0.000007576297
      22       -0.000004047739     0.000012113793     0.000013020159
      23       -0.000009127186     0.000001922690     0.000005221176
      24        0.000013465815     0.000006924356     0.000004385339
      25       -0.000000790479    -0.000007594621    -0.000022295581

  **** Optimization is complete! (in 7 steps) ****
    Final optimized geometry and variables:
    Molecular point group: c1

    Geometry (in Angstrom), charge = 0, multiplicity = 1:

    O            3.120627726196     0.990618271169     0.187985139166
    C            2.271340799189     1.186747615810    -0.618289206925
    C            0.947671622505     0.448161771055    -0.601460394468
    C            2.456048637423     2.199469441303    -1.726056677710
    C            0.816848610788    -0.567938842860     0.525325147861
    H            0.164137835780     1.198450743659    -0.554741529701
    H            0.829901738551    -0.034278724830    -1.569729182665
    C           -0.457163658977    -1.413387735328     0.474881997391
    H            0.885305707643    -0.062786671879     1.482549306694
    H            1.673228179648    -1.230477571382     0.489971232474
    C           -1.768995614772    -0.632885928675     0.513213001388
    H           -0.433927556834    -2.051312372434    -0.406023123877
    H           -0.434367248680    -2.091096469599     1.323763576623
    C           -2.996701107127    -1.534185919845     0.616904635307
    H           -1.863868769758    -0.015439813455    -0.375432952838
    H           -1.755068688391     0.050309384931     1.359939073824
    C           -4.309648627931    -0.759050715754     0.648528403869
    H           -3.006265374928    -2.224369461603    -0.222447465018
    H           -2.917903676357    -2.145236451032     1.511659569718
    H           -4.436623458743    -0.166241465338    -0.251393522616
    H           -5.159133200404    -1.427917120006     0.725419797232
    H           -4.344253536374    -0.082374683364     1.495965719511
    H            1.683377589627     2.958440169537    -1.671542244396
    H            3.426905205174     2.662781682802    -1.640634321400
    H            2.365824079636     1.716582384428    -2.692902629606

  Mulliken Charges: (a.u.)
   Center  Symbol    Alpha    Beta     Spin     Total
       1     O     4.17031  4.17031  0.00000 -0.34063
       2     C     2.86132  2.86132  0.00000  0.27736
       3     C     3.11523  3.11523  0.00000 -0.23046
       4     C     3.15086  3.15086  0.00000 -0.30172
       5     C     3.09299  3.09299  0.00000 -0.18597
       6     H     0.44309  0.44309  0.00000  0.11382
       7     H     0.44489  0.44489  0.00000  0.11023
       8     C     3.10090  3.10090  0.00000 -0.20180
       9     H     0.44532  0.44532  0.00000  0.10937
      10     H     0.44024  0.44024  0.00000  0.11953
      11     C     3.09073  3.09073  0.00000 -0.18147
      12     H     0.45290  0.45290  0.00000  0.09421
      13     H     0.44686  0.44686  0.00000  0.10628
      14     C     3.08423  3.08423  0.00000 -0.16846
      15     H     0.45484  0.45484  0.00000  0.09032
      16     H     0.45321  0.45321  0.00000  0.09358
      17     C     3.14976  3.14976  0.00000 -0.29952
      18     H     0.45454  0.45454  0.00000  0.09091
      19     H     0.45274  0.45274  0.00000  0.09452
      20     H     0.45606  0.45606  0.00000  0.08789
      21     H     0.44787  0.44787  0.00000  0.10427
      22     H     0.45479  0.45479  0.00000  0.09041
      23     H     0.45060  0.45060  0.00000  0.09881
      24     H     0.43520  0.43520  0.00000  0.12960
      25     H     0.45053  0.45053  0.00000  0.09893

   Total alpha = 36.00000, Total beta = 36.00000, Total charge =  0.00000

*** Psi4 exiting successfully. Buy a developer a beer!
