  ==> Input File <==

--------------------------------------------------------------------------
set {
	reference rhf
	basis cc-pvtz
}

set_num_threads( 4 )
memory 2 gb

molecule MOL {
0 1

H	 -2.925565	 0.180387	 2.091277
C	 -1.952408	 0.033679	 1.665181
C	 -1.622372	 -1.170916	 1.060317
C	 -1.011035	 1.035565	 1.708961
H	 -2.344154	 -1.964425	 1.016652
C	 -0.376716	 -1.363152	 0.513134
H	 -1.247917	 1.974451	 2.172716
C	 0.251855	 0.858181	 1.161190
H	 -0.111685	 -2.289940	 0.043569
C	 0.570713	 -0.345925	 0.560742
H	 0.961935	 1.657376	 1.211541
O	 1.760432	 -0.625184	 0.000000
C	 2.773565	 0.334879	 0.000000
H	 2.728295	 0.960928	 -0.884150
H	 3.706387	 -0.206610	 0.000000
H	 2.728295	 0.960928	 0.884150

	symmetry c1
}
set optking {
	frozen_dihedral = ("
		10 12 13 14
	")
}

ee = optimize('scf')
oeprop('DIPOLE', 'QUADRUPOLE', 'MULLIKEN_CHARGES')
f=open( 'psi4out.xyz', 'w' )
f.write( "16  " )
f.write( str(ee) + "\n" )
f.write( MOL.save_string_xyz() )
f.close()
--------------------------------------------------------------------------

    Molecular point group: c1
  Charge       = 0
  Multiplicity = 1
  Basis Set: CC-PVTZ
  Basis Set:
  @DF-RHF Final Energy:  -344.70037190322023
    Total Energy =                       -344.7003719032201730
    Molecular point group: c1
  Basis Set: CC-PVTZ
  Basis Set:
  Basis Set: CC-PVTZ
  Basis Set:
  @DF-RHF Final Energy:  -344.70055975815461
    Total Energy =                       -344.7005597581544407
  Basis Set: CC-PVTZ
  Basis Set:
  Basis Set: CC-PVTZ
  Basis Set:
  @DF-RHF Final Energy:  -344.70179702985354
    Total Energy =                       -344.7017970298534237
  Basis Set: CC-PVTZ
  Basis Set:
  Basis Set: CC-PVTZ
  Basis Set:
  @DF-RHF Final Energy:  -344.70199005516616
    Total Energy =                       -344.7019900551661635
  Basis Set: CC-PVTZ
  Basis Set:
  Basis Set: CC-PVTZ
  Basis Set:
  @DF-RHF Final Energy:  -344.70202958178476
    Total Energy =                       -344.7020295817852684
  Basis Set: CC-PVTZ
  Basis Set:
  Basis Set: CC-PVTZ
  Basis Set:
  @DF-RHF Final Energy:  -344.70203173431537
    Total Energy =                       -344.7020317343155966
  Basis Set: CC-PVTZ
  Basis Set:
  Charge       = 0
  Multiplicity = 1
  Basis Set: CC-PVTZ
  Basis Set:

    Orbital Energies (a.u.)
    -----------------------

    Doubly Occupied:

       1A    -20.577903     2A    -11.293046     3A    -11.277940
       4A    -11.231334     5A    -11.230015     6A    -11.222038
       7A    -11.218120     8A    -11.217393     9A     -1.416979
      10A     -1.151012    11A     -1.025080    12A     -1.016821
      13A     -0.943353    14A     -0.835053    15A     -0.808388
      16A     -0.724833    17A     -0.667301    18A     -0.666606
      19A     -0.658554    20A     -0.618476    21A     -0.590869
      22A     -0.581027    23A     -0.529023    24A     -0.521237
      25A     -0.511881    26A     -0.481808    27A     -0.462320
      28A     -0.339637    29A     -0.310905

  @DF-RHF Final Energy:  -344.70203244729760

   => Energetics <=

    Nuclear Repulsion Energy =            348.6787082929022290
    One-Electron Energy =               -1158.5035801297021862
    Two-Electron Energy =                 465.1228393895024738
    DFT Exchange-Correlation Energy =       0.0000000000000000
    Empirical Dispersion Energy =           0.0000000000000000
    PCM Polarization Energy =               0.0000000000000000
    EFP Energy =                            0.0000000000000000
    Total Energy =                       -344.7020324472974835
    Molecular point group: c1
  Basis Set: CC-PVTZ
  Basis Set:

  -Total Gradient:
     Atom            X                  Y                   Z
    ------   -----------------  -----------------  -----------------
       1       -0.000009913586    -0.000010862777    -0.000008463453
       2        0.000037777402     0.000126964751     0.000025722067
       3        0.000095039515    -0.000095396480    -0.000054305417
       4       -0.000093896490    -0.000054943814     0.000040630924
       5       -0.000003929216     0.000006967984     0.000004356345
       6       -0.000106747733    -0.000029220445     0.000028058267
       7        0.000012693233     0.000002982326    -0.000011052540
       8        0.000060738477    -0.000082531554    -0.000060176385
       9        0.000007442210    -0.000005329265    -0.000003162186
      10        0.000759810723    -0.001529022271     0.002001994455
      11        0.000005142730     0.000014077469     0.000000374678
      12       -0.000704850386     0.002006570021    -0.003536796015
      13       -0.001672367170     0.001270474635     0.003611899239
      14        0.001618916706    -0.001647160459    -0.002038839407
      15       -0.000027956220    -0.000003250081    -0.000004880422
      16        0.000022099802     0.000029679960     0.000004639851

  **** Optimization is complete! (in 7 steps) ****
    Final optimized geometry and variables:
    Molecular point group: c1

    Geometry (in Angstrom), charge = 0, multiplicity = 1:

    H           -3.013032091986     0.255031484138     1.427210578256
    C           -2.062461039760     0.139356069010     0.944235554138
    C           -1.714434416971    -1.067203131165     0.356215891924
    C           -1.170396888055     1.186826619685     0.895208360432
    H           -2.398589181795    -1.894061423338     0.383861815103
    C           -0.495154295475    -1.221440414449    -0.261506385025
    H           -1.425925292589     2.130650717495     1.338550460376
    C            0.060457595397     1.048670184504     0.271976210047
    H           -0.215308137558    -2.150752650387    -0.717277093708
    C            0.402409868037    -0.161877669281    -0.303137353926
    H            0.729162231910     1.884452028979     0.232543421401
    O            1.561687796629    -0.387992590536    -0.948387840166
    C            2.676698581534     0.419464461427    -0.699605862550
    H            2.698444953149     1.271820831778    -1.369606033293
    H            3.547567891040    -0.186906083112    -0.900755199715
    H            2.712565733569     0.753967565784     0.328559418970

  Mulliken Charges: (a.u.)
   Center  Symbol    Alpha    Beta     Spin     Total
       1     H     0.42437  0.42437  0.00000  0.15127
       2     C     3.09975  3.09975  0.00000 -0.19949
       3     C     3.05882  3.05882  0.00000 -0.11764
       4     C     3.06275  3.06275  0.00000 -0.12549
       5     H     0.42293  0.42293  0.00000  0.15415
       6     C     3.11013  3.11013  0.00000 -0.22025
       7     H     0.42319  0.42319  0.00000  0.15362
       8     C     3.13788  3.13788  0.00000 -0.27575
       9     H     0.42024  0.42024  0.00000  0.15953
      10     C     2.85447  2.85447  0.00000  0.29106
      11     H     0.42297  0.42297  0.00000  0.15406
      12     O     4.15554  4.15554  0.00000 -0.31109
      13     C     3.04300  3.04300  0.00000 -0.08600
      14     H     0.45857  0.45857  0.00000  0.08285
      15     H     0.44205  0.44205  0.00000  0.11590
      16     H     0.46336  0.46336  0.00000  0.07327

   Total alpha = 29.00000, Total beta = 29.00000, Total charge = -0.00000
