  ==> Input File <==

--------------------------------------------------------------------------
set {
	reference rhf
	basis cc-pvtz
}

set_num_threads( 4 )
memory 2 gb

molecule MOL {
0 1

H	 1.359552	 -1.812709	 1.487793
C	 1.540454	 -0.732778	 1.406084
C	 0.303951	 0.114328	 1.286631
O	 2.646917	 -0.316444	 1.412359
C	 -0.554654	 -0.292621	 0.086567
H	 0.603942	 1.152008	 1.222900
H	 -0.269825	 -0.016464	 2.201810
C	 -1.846385	 0.513195	 -0.016346
H	 0.022971	 -0.166510	 -0.824687
H	 -0.795953	 -1.350367	 0.154533
C	 -3.089953	 -0.365049	 -0.098564
H	 -1.798267	 1.154820	 -0.891143
H	 -1.925398	 1.173265	 0.842889
H	 -3.055079	 -1.012299	 -0.968245
H	 -3.988403	 0.236438	 -0.170014
H	 -3.183055	 -0.995885	 0.779079

	symmetry c1
}
set optking {
	frozen_dihedral = ("
		9 5 8 12
	")
}

ee = optimize('scf')
oeprop('DIPOLE', 'QUADRUPOLE', 'MULLIKEN_CHARGES')
f=open( 'psi4out.xyz', 'w' )
f.write( "16  " )
f.write( str(ee) + "\n" )
f.write( MOL.save_string_xyz() )
f.close()
--------------------------------------------------------------------------

    Molecular point group: c1
  Charge       = 0
  Multiplicity = 1
  Basis Set: CC-PVTZ
  Basis Set:
  @DF-RHF Final Energy:  -270.11329993725661
    Total Energy =                       -270.1132999372567838
    Molecular point group: c1
  Basis Set: CC-PVTZ
  Basis Set:
  Basis Set: CC-PVTZ
  Basis Set:
  @DF-RHF Final Energy:  -270.11354474397297
    Total Energy =                       -270.1135447439731934
  Basis Set: CC-PVTZ
  Basis Set:
  Basis Set: CC-PVTZ
  Basis Set:
  @DF-RHF Final Energy:  -270.11357803805959
    Total Energy =                       -270.1135780380594724
  Basis Set: CC-PVTZ
  Basis Set:
  Basis Set: CC-PVTZ
  Basis Set:
  @DF-RHF Final Energy:  -270.11344716898208
    Total Energy =                       -270.1134471689820202
  Basis Set: CC-PVTZ
  Basis Set:
  Basis Set: CC-PVTZ
  Basis Set:
  @DF-RHF Final Energy:  -270.11362303138372
    Total Energy =                       -270.1136230313837245
  Basis Set: CC-PVTZ
  Basis Set:
  Charge       = 0
  Multiplicity = 1
  Basis Set: CC-PVTZ
  Basis Set:

    Orbital Energies (a.u.)
    -----------------------

    Doubly Occupied:

       1A    -20.552152     2A    -11.321046     3A    -11.234728
       4A    -11.234116     5A    -11.227324     6A    -11.217742
       7A     -1.406805     8A     -1.095466     9A     -1.019576
      10A     -0.906935    11A     -0.812950    12A     -0.794339
      13A     -0.682087    14A     -0.641931    15A     -0.632868
      16A     -0.613475    17A     -0.578051    18A     -0.553637
      19A     -0.533597    20A     -0.510008    21A     -0.488158
      22A     -0.484008    23A     -0.473449    24A     -0.411025

  @DF-RHF Final Energy:  -270.11362353800985

   => Energetics <=

    Nuclear Repulsion Energy =            229.5638531427988767
    One-Electron Energy =                -820.5040104419206273
    Two-Electron Energy =                 320.8265337611119890
    DFT Exchange-Correlation Energy =       0.0000000000000000
    Empirical Dispersion Energy =           0.0000000000000000
    PCM Polarization Energy =               0.0000000000000000
    EFP Energy =                            0.0000000000000000
    Total Energy =                       -270.1136235380097901
    Molecular point group: c1
  Basis Set: CC-PVTZ
  Basis Set:

  -Total Gradient:
     Atom            X                  Y                   Z
    ------   -----------------  -----------------  -----------------
       1       -0.000008408787     0.000001758872     0.000014210964
       2        0.000035194734     0.000012856270    -0.000071964349
       3       -0.000032727573     0.000001202782    -0.000057612736
       4       -0.000019638453     0.000003433114     0.000044666602
       5       -0.001020899624    -0.001903040856    -0.001009657062
       6       -0.000001824374     0.000011216881     0.000035383287
       7        0.000035589328    -0.000009993005     0.000041278527
       8        0.000930278936     0.001876854311     0.001211744254
       9        0.000722238843     0.001279568483     0.000669796656
      10       -0.000046336542     0.000005923855     0.000003899354
      11        0.000011741762    -0.000055430525     0.000004280565
      12       -0.000638103126    -0.001187810222    -0.000886335303
      13        0.000035829639    -0.000019319257    -0.000005562747
      14       -0.000011690012    -0.000013074697    -0.000000560723
      15        0.000027304153     0.000019839531     0.000002082333
      16       -0.000018548893    -0.000023985538     0.000004350379

  **** Optimization is complete! (in 6 steps) ****
    Final optimized geometry and variables:
    Molecular point group: c1

    Geometry (in Angstrom), charge = 0, multiplicity = 1:

    H            1.551044879948    -1.626060153494     0.820936902873
    C            1.724228345846    -0.545894893902     0.725591943751
    C            0.480953423015     0.292832212400     0.617813901949
    O            2.828255567141    -0.123176777313     0.709563441046
    C           -0.387145398220    -0.121265432780    -0.575195378020
    H            0.772499871504     1.332733999341     0.549620166923
    H           -0.084129860022     0.159299304980     1.538061517492
    C           -1.690614548521     0.696520238797    -0.684150558437
    H            0.199275989546    -0.003241824607    -1.479612615769
    H           -0.621575620253    -1.177911038546    -0.493506410022
    C           -2.940467945987    -0.173498270434    -0.787222647956
    H           -1.642911626428     1.337871339684    -1.556610610401
    H           -1.786167026770     1.353299246313     0.173471072362
    H           -2.894972148725    -0.820889889633    -1.656483214566
    H           -3.833775611164     0.434152014742    -0.873113959202
    H           -3.051298836451    -0.804820402506     0.088388690020

  Mulliken Charges: (a.u.)
   Center  Symbol    Alpha    Beta     Spin     Total
       1     H     0.46540  0.46540  0.00000  0.06921
       2     C     2.91017  2.91017  0.00000  0.17966
       3     C     3.07943  3.07943  0.00000 -0.15886
       4     O     4.16355  4.16355  0.00000 -0.32711
       5     C     3.10652  3.10652  0.00000 -0.21303
       6     H     0.44151  0.44151  0.00000  0.11698
       7     H     0.45023  0.45023  0.00000  0.09954
       8     C     3.08761  3.08761  0.00000 -0.17523
       9     H     0.44168  0.44168  0.00000  0.11663
      10     H     0.45142  0.45142  0.00000  0.09716
      11     C     3.14719  3.14719  0.00000 -0.29438
      12     H     0.44729  0.44729  0.00000  0.10543
      13     H     0.45180  0.45180  0.00000  0.09639
      14     H     0.45297  0.45297  0.00000  0.09406
      15     H     0.44756  0.44756  0.00000  0.10488
      16     H     0.45567  0.45567  0.00000  0.08867

   Total alpha = 24.00000, Total beta = 24.00000, Total charge = -0.00000
