  ==> Input File <==

--------------------------------------------------------------------------
set {
	reference rhf
	basis 6-31G*
}

set_num_threads( 4 )
memory 2 gb

molecule MOL {
0 1

H	 -2.770136	 0.391341	 0.716789
C	 -2.370475	 1.364908	 0.440060
O	 -0.987993	 1.323701	 0.290454
H	 -2.792755	 1.659207	 -0.510840
H	 -2.670247	 2.088680	 1.196842
C	 -0.299904	 0.962487	 1.446009
C	 1.173592	 0.845747	 1.133940
H	 -0.443361	 1.715103	 2.222338
H	 -0.661509	 0.010898	 1.830357
O	 1.392611	 -0.295398	 0.366430
H	 1.499410	 1.737832	 0.602871
H	 1.734176	 0.786700	 2.067724
C	 2.706965	 -0.449871	 -0.062409
H	 2.756559	 -0.644779	 -1.131878
H	 3.305899	 0.433456	 0.155466
H	 3.125548	 -1.294566	 0.467107

	symmetry c1
}
set optking {
	frozen_dihedral = ("
		7 10 13 14
	")
}

ee = optimize('scf')
oeprop('DIPOLE', 'QUADRUPOLE', 'MULLIKEN_CHARGES')
f=open( 'psi4out.xyz', 'w' )
f.write( "16  " )
f.write( str(ee) + "\n" )
f.write( MOL.save_string_xyz() )
f.close()
--------------------------------------------------------------------------

    Molecular point group: c1
  Charge       = 0
  Multiplicity = 1
  Basis Set: 6-31G*
  Basis Set:
  @DF-RHF Final Energy:  -306.97324055722657
    Total Energy =                       -306.9732405572265748
    Molecular point group: c1
  Basis Set: 6-31G*
  Basis Set:
  Basis Set: 6-31G*
  Basis Set:
  @DF-RHF Final Energy:  -306.97386261608045
    Total Energy =                       -306.9738626160801687
  Basis Set: 6-31G*
  Basis Set:
  Basis Set: 6-31G*
  Basis Set:
  @DF-RHF Final Energy:  -306.97401187239603
    Total Energy =                       -306.9740118723960904
  Basis Set: 6-31G*
  Basis Set:
  Basis Set: 6-31G*
  Basis Set:
  @DF-RHF Final Energy:  -306.97401332721364
    Total Energy =                       -306.9740133272136973
  Basis Set: 6-31G*
  Basis Set:
  Charge       = 0
  Multiplicity = 1
  Basis Set: 6-31G*
  Basis Set:

    Orbital Energies (a.u.)
    -----------------------

    Doubly Occupied:

       1A    -20.553125     2A    -20.549690     3A    -11.269287
       4A    -11.268015     5A    -11.263233     6A    -11.262948
       7A     -1.385894     8A     -1.367392     9A     -1.030456
      10A     -0.936164    11A     -0.891877    12A     -0.823543
      13A     -0.682408    14A     -0.678827    15A     -0.655838
      16A     -0.634186    17A     -0.627900    18A     -0.595823
      19A     -0.554402    20A     -0.537199    21A     -0.507847
      22A     -0.476501    23A     -0.461406    24A     -0.417502
      25A     -0.407064

  @DF-RHF Final Energy:  -306.97401349905044

   => Energetics <=

    Nuclear Repulsion Energy =            258.5720617125582521
    One-Electron Energy =                -931.4150971714360594
    Two-Electron Energy =                 365.8690219598275348
    DFT Exchange-Correlation Energy =       0.0000000000000000
    Empirical Dispersion Energy =           0.0000000000000000
    PCM Polarization Energy =               0.0000000000000000
    EFP Energy =                            0.0000000000000000
    Total Energy =                       -306.9740134990502725
    Molecular point group: c1
  Basis Set: 6-31G*
  Basis Set:

  -Total Gradient:
     Atom            X                  Y                   Z
    ------   -----------------  -----------------  -----------------
       1        0.000001367756    -0.000000450492     0.000001093658
       2       -0.000000494390     0.000004699076    -0.000008994921
       3       -0.000002549822     0.000003783587     0.000003589674
       4       -0.000005067533    -0.000000124303     0.000000459365
       5        0.000000827589    -0.000000854169     0.000000680788
       6       -0.000001591664    -0.000004766970    -0.000009727565
       7       -0.000271428296     0.000665825813    -0.001042324629
       8        0.000002973006     0.000001228472     0.000001595821
       9        0.000009567828    -0.000001751338     0.000005602851
      10        0.000403669366    -0.000585184341     0.001428117108
      11        0.000001189750    -0.000000258736    -0.000001308360
      12       -0.000000277992    -0.000000725055     0.000000863982
      13       -0.000255761198    -0.001622102113    -0.000106879005
      14        0.000107755353     0.001524278906    -0.000270267652
      15        0.000011312229     0.000008651904     0.000001318984
      16       -0.000001491982     0.000007749763    -0.000003820099

  **** Optimization is complete! (in 5 steps) ****
    Final optimized geometry and variables:
    Molecular point group: c1

    Geometry (in Angstrom), charge = 0, multiplicity = 1:

    H           -3.032809912581    -0.240617316839     0.095077613633
    C           -2.634848062097     0.735295591267    -0.175797308450
    O           -1.250530152360     0.701386333634    -0.309239879341
    H           -3.047736051977     1.028779640897    -1.131076446638
    H           -2.946773870179     1.456432256410     0.578532917064
    C           -0.574114198780     0.342393357065     0.853963093643
    C            0.903449633551     0.231403812463     0.559337030196
    H           -0.729043907100     1.094472799714     1.628725373362
    H           -0.936814289039    -0.610319061038     1.234177163229
    O            1.129888414087    -0.906495640259    -0.212347848081
    H            1.230404085579     1.126464297409     0.035841390378
    H            1.449647803745     0.172192227527     1.501265946153
    C            2.436797735494    -1.087136094220    -0.671218842565
    H            2.412588200510    -1.283705835249    -1.736477831379
    H            3.049012108732    -0.205033508199    -0.506756025507
    H            2.903008474586    -1.926231964436    -0.163980609953

  Mulliken Charges: (a.u.)
   Center  Symbol    Alpha    Beta     Spin     Total
       1     H     0.42808  0.42808  0.00000  0.14384
       2     C     3.07941  3.07941  0.00000 -0.15882
       3     O     4.30087  4.30087  0.00000 -0.60174
       4     H     0.41142  0.41142  0.00000  0.17715
       5     H     0.43198  0.43198  0.00000  0.13603
       6     C     2.99357  2.99357  0.00000  0.01286
       7     C     2.99290  2.99290  0.00000  0.01421
       8     H     0.43249  0.43249  0.00000  0.13501
       9     H     0.42277  0.42277  0.00000  0.15447
      10     O     4.30578  4.30578  0.00000 -0.61155
      11     H     0.42222  0.42222  0.00000  0.15556
      12     H     0.43252  0.43252  0.00000  0.13496
      13     C     3.07572  3.07572  0.00000 -0.15143
      14     H     0.41625  0.41625  0.00000  0.16751
      15     H     0.43046  0.43046  0.00000  0.13908
      16     H     0.42356  0.42356  0.00000  0.15288

   Total alpha = 25.00000, Total beta = 25.00000, Total charge = -0.00000
