  ==> Input File <==

--------------------------------------------------------------------------
set {
	reference rhf
	basis 6-31G*
}

set_num_threads( 1 )
memory 2 gb

molecule MOL {
0 1

H	 3.276176	 0.174363	 -0.109463
N	 2.434251	 -0.367735	 -0.081097
C	 1.267428	 0.496480	 0.024474
H	 2.501951	 -0.965776	 0.720575
C	 -0.016086	 -0.325158	 -0.029487
H	 1.288818	 1.183521	 -0.816092
H	 1.267576	 1.109062	 0.929528
C	 -1.282277	 0.529072	 0.046735
H	 -0.012495	 -0.908639	 -0.945788
H	 -0.015903	 -1.041248	 0.791956
C	 -1.695696	 1.101392	 -1.308712
H	 -1.124340	 1.345657	 0.748328
H	 -2.099187	 -0.065831	 0.450101
H	 -0.913052	 1.730320	 -1.723003
H	 -2.594752	 1.703922	 -1.223990
H	 -1.894835	 0.308699	 -2.024396

	symmetry c1
}
set optking {
	frozen_dihedral = ("
		6 3 5 9,
		1 2 3 6
	")
}

ee = energy('scf')
oeprop('DIPOLE', 'QUADRUPOLE', 'MULLIKEN_CHARGES')
f=open( 'psi4out.xyz', 'w' )
f.write( "16  " )
f.write( str(ee) + "\n" )
f.write( MOL.save_string_xyz() )
f.close()
--------------------------------------------------------------------------

    Molecular point group: c1

    Geometry (in Angstrom), charge = 0, multiplicity = 1:

       Center              X                  Y                   Z               Mass
    ------------   -----------------  -----------------  -----------------  -----------------
           H          3.097697010066    -0.114077265814     0.158248269409     1.007825032070
           N          2.255772010066    -0.656175265814     0.186614269409    14.003074004780
           C          1.088949010066     0.208039734186     0.292185269409    12.000000000000
           H          2.323472010066    -1.254216265814     0.988286269409     1.007825032070
           C         -0.194564989934    -0.613598265814     0.238224269409    12.000000000000
           H          1.110339010066     0.895080734186    -0.548380730591     1.007825032070
           H          1.089097010066     0.820621734186     1.197239269409     1.007825032070
           C         -1.460755989934     0.240631734186     0.314446269409    12.000000000000
           H         -0.190973989934    -1.197079265814    -0.678076730591     1.007825032070
           H         -0.194381989934    -1.329688265814     1.059667269409     1.007825032070
           C         -1.874174989934     0.812951734186    -1.041000730591    12.000000000000
           H         -1.302818989934     1.057216734186     1.016039269409     1.007825032070
           H         -2.277665989934    -0.354271265814     0.717812269409     1.007825032070
           H         -1.091530989934     1.441879734186    -1.455291730591     1.007825032070
           H         -2.773230989934     1.415481734186    -0.956278730591     1.007825032070
           H         -2.073313989934     0.020258734186    -1.756684730591     1.007825032070

  Charge       = 0
  Multiplicity = 1
  Basis Set: 6-31G*
  Basis Set:

    Orbital Energies (a.u.)
    -----------------------

    Doubly Occupied:

       1A    -15.532663     2A    -11.239952     3A    -11.214384
       4A    -11.209024     5A    -11.207233     6A     -1.176811
       7A     -1.059981     8A     -0.955194     9A     -0.853354
      10A     -0.784200    11A     -0.663552    12A     -0.626368
      13A     -0.614335    14A     -0.591771    15A     -0.547369
      16A     -0.521599    17A     -0.514614    18A     -0.470046
      19A     -0.463980    20A     -0.453765    21A     -0.381558

  @DF-RHF Final Energy:  -212.31442311456044

   => Energetics <=

    Nuclear Repulsion Energy =            188.4977430731736945
    One-Electron Energy =                -659.4607375338864586
    Two-Electron Energy =                 258.6485713461520959
    DFT Exchange-Correlation Energy =       0.0000000000000000
    Empirical Dispersion Energy =           0.0000000000000000
    PCM Polarization Energy =               0.0000000000000000
    EFP Energy =                            0.0000000000000000
    Total Energy =                       -212.3144231145606682

  Mulliken Charges: (a.u.)
   Center  Symbol    Alpha    Beta     Spin     Total
       1     H     0.33254  0.33254  0.00000  0.33491
       2     N     3.92173  3.92173  0.00000 -0.84345
       3     C     3.06142  3.06142  0.00000 -0.12284
       4     H     0.33529  0.33529  0.00000  0.32942
       5     C     3.15326  3.15326  0.00000 -0.30651
       6     H     0.42021  0.42021  0.00000  0.15958
       7     H     0.43443  0.43443  0.00000  0.13115
       8     C     3.15829  3.15829  0.00000 -0.31659
       9     H     0.41273  0.41273  0.00000  0.17455
      10     H     0.42571  0.42571  0.00000  0.14858
      11     C     3.23966  3.23966  0.00000 -0.47932
      12     H     0.42347  0.42347  0.00000  0.15305
      13     H     0.41963  0.41963  0.00000  0.16074
      14     H     0.42160  0.42160  0.00000  0.15680
      15     H     0.41993  0.41993  0.00000  0.16013
      16     H     0.42011  0.42011  0.00000  0.15978

   Total alpha = 21.00000, Total beta = 21.00000, Total charge =  0.00000
