  ==> Input File <==

--------------------------------------------------------------------------
set {
	reference rhf
	basis 6-31G*
}

set_num_threads( 1 )
memory 2 gb

molecule MOL {
0 1

H	 -2.843836	 -0.731819	 -2.888985
O	 -2.684195	 -0.785004	 -1.957540
C	 -1.398799	 -0.297448	 -1.670075
C	 -1.177863	 -0.397191	 -0.171080
H	 -0.642426	 -0.876783	 -2.197880
H	 -1.300659	 0.738053	 -1.993257
C	 0.198102	 0.111031	 0.262842
H	 -1.304058	 -1.435112	 0.124761
H	 -1.960721	 0.167040	 0.328173
C	 1.331804	 -0.827780	 -0.158768
H	 0.361943	 1.100838	 -0.156218
H	 0.217265	 0.229072	 1.345532
C	 2.723619	 -0.410569	 0.329459
H	 1.342964	 -0.912588	 -1.244120
H	 1.116806	 -1.824343	 0.220779
C	 3.243875	 0.895854	 -0.272975
H	 3.424222	 -1.207124	 0.091250
H	 2.714788	 -0.329854	 1.414619
H	 3.251977	 0.848779	 -1.358681
H	 2.637085	 1.747371	 0.016682
H	 4.259473	 1.094070	 0.055697

	symmetry c1
}
set optking {
	frozen_dihedral = ("
		2 3 4 8,
		4 7 10 14,
		16 13 10 14,
		1 2 3 5
	")
}

ee = energy('scf')
oeprop('DIPOLE', 'QUADRUPOLE', 'MULLIKEN_CHARGES')
f=open( 'psi4out.xyz', 'w' )
f.write( "21  " )
f.write( str(ee) + "\n" )
f.write( MOL.save_string_xyz() )
f.close()
--------------------------------------------------------------------------

    Molecular point group: c1

    Geometry (in Angstrom), charge = 0, multiplicity = 1:

       Center              X                  Y                   Z               Mass
    ------------   -----------------  -----------------  -----------------  -----------------
           H         -3.112956796881    -0.486260654301    -2.323208192675     1.007825032070
           O         -2.953315796881    -0.539445654301    -1.391763192675    15.994914619560
           C         -1.667919796881    -0.051889654301    -1.104298192675    12.000000000000
           C         -1.446983796881    -0.151632654301     0.394696807325    12.000000000000
           H         -0.911546796881    -0.631224654301    -1.632103192675     1.007825032070
           H         -1.569779796881     0.983611345699    -1.427480192675     1.007825032070
           C         -0.071018796881     0.356589345699     0.828618807325    12.000000000000
           H         -1.573178796881    -1.189553654301     0.690537807325     1.007825032070
           H         -2.229841796881     0.412598345699     0.893949807325     1.007825032070
           C          1.062683203119    -0.582221654301     0.407008807325    12.000000000000
           H          0.092822203119     1.346396345699     0.409558807325     1.007825032070
           H         -0.051855796881     0.474630345699     1.911308807325     1.007825032070
           C          2.454498203119    -0.165010654301     0.895235807325    12.000000000000
           H          1.073843203119    -0.667029654301    -0.678343192675     1.007825032070
           H          0.847685203119    -1.578784654301     0.786555807325     1.007825032070
           C          2.974754203119     1.141412345699     0.292801807325    12.000000000000
           H          3.155101203119    -0.961565654301     0.657026807325     1.007825032070
           H          2.445667203119    -0.084295654301     1.980395807325     1.007825032070
           H          2.982856203119     1.094337345699    -0.792904192675     1.007825032070
           H          2.367964203119     1.992929345699     0.582458807325     1.007825032070
           H          3.990352203119     1.339628345699     0.621473807325     1.007825032070

  Charge       = 0
  Multiplicity = 1
  Basis Set: 6-31G*
  Basis Set:

    Orbital Energies (a.u.)
    -----------------------

    Doubly Occupied:

       1A    -20.551631     2A    -11.266420     3A    -11.216077
       4A    -11.215552     5A    -11.214258     6A    -11.210456
       7A    -11.209280     8A     -1.358411     9A     -1.088188
      10A     -1.032839    11A     -0.951521    12A     -0.881553
      13A     -0.812687    14A     -0.772391    15A     -0.695005
      16A     -0.651136    17A     -0.629917    18A     -0.608935
      19A     -0.591543    20A     -0.553442    21A     -0.550800
      22A     -0.519293    23A     -0.511676    24A     -0.497105
      25A     -0.477047    26A     -0.457312    27A     -0.453904
      28A     -0.446515    29A     -0.430047

  @DF-RHF Final Energy:  -310.21055180191752

   => Energetics <=

    Nuclear Repulsion Energy =            317.4963142253385513
    One-Electron Energy =               -1049.7041110812695024
    Two-Electron Energy =                 421.9972450540131490
    DFT Exchange-Correlation Energy =       0.0000000000000000
    Empirical Dispersion Energy =           0.0000000000000000
    PCM Polarization Energy =               0.0000000000000000
    EFP Energy =                            0.0000000000000000
    Total Energy =                       -310.2105518019178021

  Mulliken Charges: (a.u.)
   Center  Symbol    Alpha    Beta     Spin     Total
       1     H     0.28129  0.28129  0.00000  0.43741
       2     O     4.37202  4.37202  0.00000 -0.74404
       3     C     2.99123  2.99123  0.00000  0.01753
       4     C     3.16058  3.16058  0.00000 -0.32116
       5     H     0.43103  0.43103  0.00000  0.13795
       6     H     0.43301  0.43301  0.00000  0.13398
       7     C     3.16404  3.16404  0.00000 -0.32809
       8     H     0.41496  0.41496  0.00000  0.17007
       9     H     0.41266  0.41266  0.00000  0.17468
      10     C     3.15498  3.15498  0.00000 -0.30996
      11     H     0.42176  0.42176  0.00000  0.15648
      12     H     0.41877  0.41877  0.00000  0.16245
      13     C     3.15163  3.15163  0.00000 -0.30327
      14     H     0.42463  0.42463  0.00000  0.15074
      15     H     0.42037  0.42037  0.00000  0.15927
      16     C     3.24134  3.24134  0.00000 -0.48268
      17     H     0.42090  0.42090  0.00000  0.15819
      18     H     0.42290  0.42290  0.00000  0.15420
      19     H     0.42305  0.42305  0.00000  0.15390
      20     H     0.41994  0.41994  0.00000  0.16011
      21     H     0.41888  0.41888  0.00000  0.16223

   Total alpha = 29.00000, Total beta = 29.00000, Total charge = -0.00000
