  ==> Input File <==

--------------------------------------------------------------------------
set {
	reference rhf
	basis cc-pvtz
}

set_num_threads( 4 )
memory 2 gb

molecule MOL {
0 1

O	 -2.071633	 -1.227563	 -0.223463
C	 -1.652164	 -0.152425	 0.058082
C	 -0.327811	 0.006324	 0.778296
C	 -2.402515	 1.108629	 -0.298924
C	 0.843231	 -0.001575	 -0.211665
H	 -0.319484	 0.928173	 1.350354
H	 -0.227804	 -0.823091	 1.466705
C	 2.197693	 0.138030	 0.476937
H	 0.722944	 0.805202	 -0.930230
H	 0.813976	 -0.926978	 -0.776588
C	 2.191930	 1.178060	 1.592045
H	 2.496918	 -0.824636	 0.882229
H	 2.947302	 0.404985	 -0.262226
H	 1.475822	 0.919998	 2.365109
H	 1.926937	 2.158274	 1.210824
H	 3.167137	 1.256710	 2.058078
H	 -3.240910	 0.874416	 -0.936711
H	 -1.747554	 1.818823	 -0.790984
H	 -2.760419	 1.579708	 0.610998

	symmetry c1
}
set optking {
	frozen_dihedral = ("
		11 8 5 9
	")
}

ee = optimize('scf')
oeprop('DIPOLE', 'QUADRUPOLE', 'MULLIKEN_CHARGES')
f=open( 'psi4out.xyz', 'w' )
f.write( "19  " )
f.write( str(ee) + "\n" )
f.write( MOL.save_string_xyz() )
f.close()
--------------------------------------------------------------------------

    Molecular point group: c1
  Charge       = 0
  Multiplicity = 1
  Basis Set: CC-PVTZ
  Basis Set:
  @DF-RHF Final Energy:  -309.17185313871568
    Total Energy =                       -309.1718531387159601
    Molecular point group: c1
  Basis Set: CC-PVTZ
  Basis Set:
  Basis Set: CC-PVTZ
  Basis Set:
  @DF-RHF Final Energy:  -309.17272660289706
    Total Energy =                       -309.1727266028973418
  Basis Set: CC-PVTZ
  Basis Set:
  Basis Set: CC-PVTZ
  Basis Set:
  @DF-RHF Final Energy:  -309.17383583171159
    Total Energy =                       -309.1738358317115853
  Basis Set: CC-PVTZ
  Basis Set:
  Basis Set: CC-PVTZ
  Basis Set:
  @DF-RHF Final Energy:  -309.17391740813162
    Total Energy =                       -309.1739174081314445
  Basis Set: CC-PVTZ
  Basis Set:
  Basis Set: CC-PVTZ
  Basis Set:
  @DF-RHF Final Energy:  -309.17392603100217
    Total Energy =                       -309.1739260310019972
  Basis Set: CC-PVTZ
  Basis Set:
  Basis Set: CC-PVTZ
  Basis Set:
  @DF-RHF Final Energy:  -309.17392939715853
    Total Energy =                       -309.1739293971588154
  Basis Set: CC-PVTZ
  Basis Set:
  Charge       = 0
  Multiplicity = 1
  Basis Set: CC-PVTZ
  Basis Set:

    Orbital Energies (a.u.)
    -----------------------

    Doubly Occupied:

       1A    -20.536877     2A    -11.319498     3A    -11.228964
       4A    -11.227797     5A    -11.226916     6A    -11.223421
       7A    -11.214685     8A     -1.397095     9A     -1.092146
      10A     -1.028667    11A     -0.982464    12A     -0.903485
      13A     -0.797146    14A     -0.736099    15A     -0.660529
      16A     -0.654666    17A     -0.622265    18A     -0.605770
      19A     -0.596064    20A     -0.570641    21A     -0.553492
      22A     -0.544024    23A     -0.523112    24A     -0.500765
      25A     -0.481358    26A     -0.470946    27A     -0.465404
      28A     -0.399939

  @DF-RHF Final Energy:  -309.17393029934726

   => Energetics <=

    Nuclear Repulsion Energy =            305.4872850643698712
    One-Electron Energy =               -1024.1939603599266775
    Two-Electron Energy =                 409.5327449962093169
    DFT Exchange-Correlation Energy =       0.0000000000000000
    Empirical Dispersion Energy =           0.0000000000000000
    PCM Polarization Energy =               0.0000000000000000
    EFP Energy =                            0.0000000000000000
    Total Energy =                       -309.1739302993474894
    Molecular point group: c1
  Basis Set: CC-PVTZ
  Basis Set:

  -Total Gradient:
     Atom            X                  Y                   Z
    ------   -----------------  -----------------  -----------------
       1        0.000007794485     0.000002805287    -0.000001271851
       2        0.000002609238     0.000006691568    -0.000055461070
       3        0.000002823094    -0.000002352407     0.000016206942
       4       -0.000025336863    -0.000006829086     0.000051868579
       5       -0.002542693309     0.002276630820     0.005044911961
       6        0.000038454382    -0.000007958079     0.000000073815
       7       -0.000012549952     0.000000961092    -0.000007058600
       8        0.001767625040     0.002810267997    -0.004002313606
       9        0.001695079535    -0.002671331860    -0.003329523434
      10       -0.000039553277    -0.000001702984     0.000003826424
      11       -0.000932132148    -0.002377433089     0.002219165995
      12       -0.000006690046    -0.000021401474     0.000025706653
      13        0.000033955039    -0.000018038608     0.000043023970
      14        0.000011310398    -0.000032464860    -0.000011438159
      15       -0.000023644526    -0.000002956352     0.000017025183
      16        0.000003434539     0.000042717594     0.000005332332
      17        0.000002161100    -0.000003104738     0.000000239780
      18        0.000006553243     0.000003686961    -0.000009892164
      19        0.000010800030     0.000001812216    -0.000010422749

  **** Optimization is complete! (in 7 steps) ****
    Final optimized geometry and variables:
    Molecular point group: c1

    Geometry (in Angstrom), charge = 0, multiplicity = 1:

    O           -1.871910625160    -1.422020508352    -0.549553254795
    C           -1.498531183644    -0.327866154977    -0.276798082307
    C           -0.202383117711    -0.107543972041     0.478264828424
    C           -2.283089658389     0.899025240964    -0.676906929668
    C            0.987084634288    -0.080590092641    -0.488459477931
    H           -0.256387247044     0.815394830800     1.042352259446
    H           -0.086965369351    -0.928953265495     1.174675394525
    C            2.366384393491    -0.012002529084     0.178296958296
    H            0.887084031736     0.735257335728    -1.199826265632
    H            0.949107846726    -0.984418973576    -1.086823543575
    C            2.502268551589     1.000230096080     1.312821363391
    H            2.610413379590    -0.995720998131     0.569187443972
    H            3.104055004434     0.199595589851    -0.588091783190
    H            1.879676824687     0.739553104625     2.159621140850
    H            2.226450421111     2.000408060192     0.992289466151
    H            3.526920937734     1.040525100379     1.663165514913
    H           -3.093048682282     0.623822586817    -1.334745617275
    H           -1.640056004010     1.624981036991    -1.161533622157
    H           -2.685082660349     1.370783343257     0.214036300631

  Mulliken Charges: (a.u.)
   Center  Symbol    Alpha    Beta     Spin     Total
       1     O     4.17707  4.17707  0.00000 -0.35413
       2     C     2.85743  2.85743  0.00000  0.28515
       3     C     3.10153  3.10153  0.00000 -0.20307
       4     C     3.15633  3.15633  0.00000 -0.31266
       5     C     3.10610  3.10610  0.00000 -0.21220
       6     H     0.44632  0.44632  0.00000  0.10736
       7     H     0.43887  0.43887  0.00000  0.12225
       8     C     3.08933  3.08933  0.00000 -0.17867
       9     H     0.45026  0.45026  0.00000  0.09947
      10     H     0.43811  0.43811  0.00000  0.12379
      11     C     3.15788  3.15788  0.00000 -0.31575
      12     H     0.45004  0.45004  0.00000  0.09992
      13     H     0.44694  0.44694  0.00000  0.10611
      14     H     0.45157  0.45157  0.00000  0.09686
      15     H     0.45441  0.45441  0.00000  0.09117
      16     H     0.44299  0.44299  0.00000  0.11402
      17     H     0.43575  0.43575  0.00000  0.12850
      18     H     0.45060  0.45060  0.00000  0.09879
      19     H     0.44846  0.44846  0.00000  0.10308

   Total alpha = 28.00000, Total beta = 28.00000, Total charge =  0.00000
