  ==> Input File <==

--------------------------------------------------------------------------
set {
	reference rhf
	basis 6-31G*
}

set_num_threads( 4 )
memory 2 gb

molecule MOL {
0 1

H	 -3.135461	 -1.215070	 0.001379
O	 -2.310168	 -0.871793	 -0.309793
C	 -2.026376	 0.340750	 0.341611
C	 -0.673256	 0.843270	 -0.132153
H	 -2.792215	 1.080697	 0.115987
H	 -2.013526	 0.200402	 1.421792
C	 0.486613	 -0.083066	 0.235839
H	 -0.715586	 0.970948	 -1.210718
H	 -0.508072	 1.829858	 0.297090
C	 1.840406	 0.433480	 -0.254303
H	 0.300215	 -1.068318	 -0.178947
H	 0.519509	 -0.203625	 1.318070
C	 1.958854	 1.955427	 -0.181362
H	 2.633227	 -0.018001	 0.338417
H	 2.003774	 0.108158	 -1.279935
H	 1.834631	 2.308818	 0.838233
H	 2.929250	 2.292733	 -0.532788
H	 1.200221	 2.437474	 -0.791787

	symmetry c1
}
set optking {
	frozen_dihedral = ("
		14 10 7 11
	")
}

ee = optimize('scf')
oeprop('DIPOLE', 'QUADRUPOLE', 'MULLIKEN_CHARGES')
f=open( 'psi4out.xyz', 'w' )
f.write( "18  " )
f.write( str(ee) + "\n" )
f.write( MOL.save_string_xyz() )
f.close()
--------------------------------------------------------------------------

    Molecular point group: c1
  Charge       = 0
  Multiplicity = 1
  Basis Set: 6-31G*
  Basis Set:
  @DF-RHF Final Energy:  -271.17325186516871
    Total Energy =                       -271.1732518651688224
    Molecular point group: c1
  Basis Set: 6-31G*
  Basis Set:
  Basis Set: 6-31G*
  Basis Set:
  @DF-RHF Final Energy:  -271.17397229949711
    Total Energy =                       -271.1739722994969952
  Basis Set: 6-31G*
  Basis Set:
  Basis Set: 6-31G*
  Basis Set:
  @DF-RHF Final Energy:  -271.17542665271441
    Total Energy =                       -271.1754266527141226
  Basis Set: 6-31G*
  Basis Set:
  Basis Set: 6-31G*
  Basis Set:
  @DF-RHF Final Energy:  -271.17555540116803
    Total Energy =                       -271.1755554011681966
  Basis Set: 6-31G*
  Basis Set:
  Basis Set: 6-31G*
  Basis Set:
  @DF-RHF Final Energy:  -271.17555163000304
    Total Energy =                       -271.1755516300030990
  Basis Set: 6-31G*
  Basis Set:
  Basis Set: 6-31G*
  Basis Set:
  @DF-RHF Final Energy:  -271.17557030435648
    Total Energy =                       -271.1755703043564267
  Basis Set: 6-31G*
  Basis Set:
  Basis Set: 6-31G*
  Basis Set:
  @DF-RHF Final Energy:  -271.17557153033630
    Total Energy =                       -271.1755715303364696
  Basis Set: 6-31G*
  Basis Set:
  Charge       = 0
  Multiplicity = 1
  Basis Set: 6-31G*
  Basis Set:

    Orbital Energies (a.u.)
    -----------------------

    Doubly Occupied:

       1A    -20.553135     2A    -11.267877     3A    -11.211135
       4A    -11.211077     5A    -11.206498     6A    -11.204825
       7A     -1.359817     8A     -1.073550     9A     -1.004923
      10A     -0.914575    11A     -0.831532    12A     -0.766860
      13A     -0.705718    14A     -0.634152    15A     -0.624964
      16A     -0.601751    17A     -0.564810    18A     -0.549731
      19A     -0.525334    20A     -0.503526    21A     -0.492439
      22A     -0.460363    23A     -0.454443    24A     -0.448719
      25A     -0.426738

  @DF-RHF Final Energy:  -271.17557186579722

   => Energetics <=

    Nuclear Repulsion Energy =            252.1236876250721082
    One-Electron Energy =                -867.4015338117708325
    Two-Electron Energy =                 344.1022743209017563
    DFT Exchange-Correlation Energy =       0.0000000000000000
    Empirical Dispersion Energy =           0.0000000000000000
    PCM Polarization Energy =               0.0000000000000000
    EFP Energy =                            0.0000000000000000
    Total Energy =                       -271.1755718657969965
    Molecular point group: c1
  Basis Set: 6-31G*
  Basis Set:

  -Total Gradient:
     Atom            X                  Y                   Z
    ------   -----------------  -----------------  -----------------
       1        0.000000491530     0.000006190618     0.000000036972
       2       -0.000006941992    -0.000004319405     0.000005096736
       3        0.000005913985    -0.000015432150    -0.000002260922
       4       -0.000011231577    -0.000032114314    -0.000005477182
       5        0.000000494200     0.000007009620     0.000001823218
       6        0.000001154222    -0.000004050670    -0.000004529989
       7        0.003190610784    -0.001877233083     0.006222712883
       8        0.000015627496     0.000005923753    -0.000003291488
       9       -0.000007535532    -0.000023596523     0.000006459232
      10       -0.000555321364    -0.004760116731    -0.005379742505
      11       -0.002643570031     0.002353600855    -0.004428173573
      12       -0.000007603112     0.000002291224     0.000013858182
      13        0.000030930928    -0.000012978740     0.000012473222
      14       -0.000038009618     0.004362118059     0.003574463572
      15        0.000018265379     0.000004812896    -0.000008221254
      16        0.000015173810     0.000000160167    -0.000001110511
      17        0.000001105529    -0.000003123994    -0.000006617011
      18       -0.000009554636    -0.000009141581     0.000002500421

  **** Optimization is complete! (in 8 steps) ****
    Final optimized geometry and variables:
    Molecular point group: c1

    Geometry (in Angstrom), charge = 0, multiplicity = 1:

    H           -2.916998520830    -1.724337030024    -0.005370723807
    O           -2.107581185349    -1.331061894510    -0.298514768779
    C           -1.886650616810    -0.129165722474     0.395910388937
    C           -0.552624366170     0.452856334454    -0.041909187598
    H           -2.683327438709     0.581667712129     0.184032881277
    H           -1.880711902029    -0.304515842258     1.471136883837
    C            0.638566146941    -0.434888827140     0.336292883251
    H           -0.583067415282     0.595000023213    -1.119446890099
    H           -0.456006922698     1.438052877310     0.405964251774
    C            1.994703078338     0.032107425954    -0.222104956203
    H            0.424400850175    -1.421865315743    -0.057623254410
    H            0.692523130156    -0.512598734589     1.420097726934
    C            2.243225417649     1.542621645806    -0.154572528586
    H            2.780879226100    -0.440095558712     0.361505451865
    H            2.105021459874    -0.302592839420    -1.249665668150
    H            2.125857932571     1.916467788275     0.859420476915
    H            3.254954232004     1.774476499152    -0.473424642555
    H            1.565761258592     2.099247431525    -0.793159612423

  Mulliken Charges: (a.u.)
   Center  Symbol    Alpha    Beta     Spin     Total
       1     H     0.28050  0.28050  0.00000  0.43900
       2     O     4.37004  4.37004  0.00000 -0.74008
       3     C     2.99688  2.99688  0.00000  0.00624
       4     C     3.16371  3.16371  0.00000 -0.32742
       5     H     0.42907  0.42907  0.00000  0.14186
       6     H     0.43282  0.43282  0.00000  0.13436
       7     C     3.15698  3.15698  0.00000 -0.31395
       8     H     0.41548  0.41548  0.00000  0.16903
       9     H     0.42153  0.42153  0.00000  0.15694
      10     C     3.15252  3.15252  0.00000 -0.30504
      11     H     0.40463  0.40463  0.00000  0.19074
      12     H     0.42669  0.42669  0.00000  0.14662
      13     C     3.24316  3.24316  0.00000 -0.48632
      14     H     0.42173  0.42173  0.00000  0.15654
      15     H     0.42052  0.42052  0.00000  0.15895
      16     H     0.42370  0.42370  0.00000  0.15261
      17     H     0.41982  0.41982  0.00000  0.16035
      18     H     0.42021  0.42021  0.00000  0.15957

   Total alpha = 25.00000, Total beta = 25.00000, Total charge =  0.00000
