  ==> Input File <==

--------------------------------------------------------------------------
set {
	reference rhf
	basis cc-pvtz
}

set_num_threads( 4 )
memory 2 gb

molecule MOL {
0 1

H	 -3.162190	 0.493205	 -0.000107
C	 -2.363908	 -0.234727	 0.000005
O	 -1.158738	 0.454634	 -0.000087
H	 -2.464314	 -0.863616	 -0.882153
H	 -2.464327	 -0.863359	 0.882345
C	 -0.028611	 -0.359694	 0.000037
C	 1.212847	 0.509314	 -0.000053
H	 -0.034155	 -1.007047	 -0.877198
H	 -0.034195	 -1.006836	 0.877430
C	 2.432857	 -0.218093	 0.553846
H	 1.403587	 0.839064	 -1.015340
H	 1.011243	 1.399683	 0.585225
H	 2.667193	 -1.100294	 -0.032579
H	 3.304291	 0.424935	 0.542069
H	 2.272345	 -0.535661	 1.578763

	symmetry c1
}
set optking {
	frozen_dihedral = ("
		11 7 6 8
	")
}

ee = optimize('scf')
oeprop('DIPOLE', 'QUADRUPOLE', 'MULLIKEN_CHARGES')
f=open( 'psi4out.xyz', 'w' )
f.write( "15  " )
f.write( str(ee) + "\n" )
f.write( MOL.save_string_xyz() )
f.close()
--------------------------------------------------------------------------

    Molecular point group: c1
  Charge       = 0
  Multiplicity = 1
  Basis Set: CC-PVTZ
  Basis Set:
  @DF-RHF Final Energy:  -232.22624029342612
    Total Energy =                       -232.2262402934260308
    Molecular point group: c1
  Basis Set: CC-PVTZ
  Basis Set:
  Basis Set: CC-PVTZ
  Basis Set:
  @DF-RHF Final Energy:  -232.22647628301917
    Total Energy =                       -232.2264762830190534
  Basis Set: CC-PVTZ
  Basis Set:
  Basis Set: CC-PVTZ
  Basis Set:
  @DF-RHF Final Energy:  -232.22652350973675
    Total Energy =                       -232.2265235097367508
  Basis Set: CC-PVTZ
  Basis Set:
  Basis Set: CC-PVTZ
  Basis Set:
  @DF-RHF Final Energy:  -232.22652462152931
    Total Energy =                       -232.2265246215295065
  Basis Set: CC-PVTZ
  Basis Set:
  Charge       = 0
  Multiplicity = 1
  Basis Set: CC-PVTZ
  Basis Set:

    Orbital Energies (a.u.)
    -----------------------

    Doubly Occupied:

       1A    -20.546964     2A    -11.264638     3A    -11.261412
       4A    -11.212893     5A    -11.210355     6A     -1.380853
       7A     -1.057528     8A     -0.955565     9A     -0.876988
      10A     -0.809367    11A     -0.677048    12A     -0.655086
      13A     -0.632631    14A     -0.606689    15A     -0.565857
      16A     -0.543151    17A     -0.500216    18A     -0.489641
      19A     -0.479607    20A     -0.462716    21A     -0.416327

  @DF-RHF Final Energy:  -232.22652480782841

   => Energetics <=

    Nuclear Repulsion Energy =            189.9585288485457681
    One-Electron Energy =                -691.1590516794597079
    Two-Electron Energy =                 268.9739980230854144
    DFT Exchange-Correlation Energy =       0.0000000000000000
    Empirical Dispersion Energy =           0.0000000000000000
    PCM Polarization Energy =               0.0000000000000000
    EFP Energy =                            0.0000000000000000
    Total Energy =                       -232.2265248078285254
    Molecular point group: c1
  Basis Set: CC-PVTZ
  Basis Set:

  -Total Gradient:
     Atom            X                  Y                   Z
    ------   -----------------  -----------------  -----------------
       1        0.000005831998     0.000001387769     0.000002962579
       2       -0.000016009650    -0.000011921297    -0.000005033747
       3        0.000026285375    -0.000012958407    -0.000001286334
       4       -0.000000487600     0.000000927246     0.000002183551
       5       -0.000000791254     0.000001399722     0.000000017220
       6        0.002979703943    -0.004188804548     0.002386954281
       7       -0.003263056537     0.004659620951     0.000260973205
       8       -0.001996733702     0.002769854916    -0.002031952250
       9        0.000006144716     0.000002681212    -0.000007497306
      10       -0.000002165751     0.000004429136     0.000011304296
      11        0.002249271156    -0.003212852139    -0.000612183034
      12        0.000003240819    -0.000007176633    -0.000003809508
      13       -0.000001645994    -0.000005798661    -0.000004081679
      14        0.000002700806     0.000000805850     0.000002179474
      15        0.000007711678    -0.000001595116    -0.000000730748

  **** Optimization is complete! (in 5 steps) ****
    Final optimized geometry and variables:
    Molecular point group: c1

    Geometry (in Angstrom), charge = 0, multiplicity = 1:

    H           -3.154536413842     0.467312449270    -0.155917616779
    C           -2.353694201076    -0.257929114962    -0.145838038398
    O           -1.151457995579     0.434252162809    -0.102098895236
    H           -2.428627335505    -0.873357229779    -1.040112848748
    H           -2.476365414412    -0.901275533096     0.723275307889
    C           -0.017733588446    -0.379577207285    -0.073734071954
    C            1.222774982657     0.498561754374    -0.094006709858
    H           -0.030660752050    -1.032490990239    -0.945698888433
    H           -0.032218193120    -1.004517069247     0.818287303203
    C            2.460328579510    -0.236957996353     0.413657180730
    H            1.408159917420     0.827775118113    -1.110377367666
    H            1.033012150711     1.376438068021     0.510701044903
    H            2.650764164585    -1.135729140547    -0.164563588169
    H            3.340683917068     0.390241211379     0.341611737620
    H            2.346363228028    -0.530486402689     1.451562581263

  Mulliken Charges: (a.u.)
   Center  Symbol    Alpha    Beta     Spin     Total
       1     H     0.44694  0.44694  0.00000  0.10611
       2     C     3.03161  3.03161  0.00000 -0.06321
       3     O     4.17226  4.17226  0.00000 -0.34451
       4     H     0.47221  0.47221  0.00000  0.05559
       5     H     0.47305  0.47305  0.00000  0.05390
       6     C     2.95749  2.95749  0.00000  0.08502
       7     C     3.08152  3.08152  0.00000 -0.16303
       8     H     0.47416  0.47416  0.00000  0.05168
       9     H     0.47595  0.47595  0.00000  0.04810
      10     C     3.15514  3.15514  0.00000 -0.31028
      11     H     0.45328  0.45328  0.00000  0.09345
      12     H     0.44797  0.44797  0.00000  0.10406
      13     H     0.45642  0.45642  0.00000  0.08716
      14     H     0.44706  0.44706  0.00000  0.10588
      15     H     0.45495  0.45495  0.00000  0.09009

   Total alpha = 21.00000, Total beta = 21.00000, Total charge = -0.00000
