  ==> Input File <==

--------------------------------------------------------------------------
set {
	reference rhf
	basis cc-pvtz
}

set_num_threads( 4 )
memory 2 gb

molecule MOL {
0 1

H	 0.150432	 4.202442	 -0.606510
O	 -0.214580	 3.574635	 -1.202769
C	 -0.184951	 2.294728	 -0.636110
C	 1.220793	 1.727888	 -0.616888
H	 -0.591014	 2.294486	 0.370489
H	 -0.818265	 1.665471	 -1.244905
O	 1.172093	 0.457955	 -0.054438
H	 1.876564	 2.378637	 -0.036038
H	 1.612123	 1.691941	 -1.631355
C	 2.395478	 -0.199028	 -0.000366
H	 2.505946	 -0.901710	 -0.823354
H	 3.174616	 0.545641	 -0.071768
H	 2.513730	 -0.742241	 0.934223

	symmetry c1
}
set optking {
	frozen_dihedral = ("
		4 7 10 13
	")
}

ee = optimize('scf')
oeprop('DIPOLE', 'QUADRUPOLE', 'MULLIKEN_CHARGES')
f=open( 'psi4out.xyz', 'w' )
f.write( "13  " )
f.write( str(ee) + "\n" )
f.write( MOL.save_string_xyz() )
f.close()
--------------------------------------------------------------------------

    Molecular point group: c1
  Charge       = 0
  Multiplicity = 1
  Basis Set: CC-PVTZ
  Basis Set:
  @DF-RHF Final Energy:  -268.05863634935702
    Total Energy =                       -268.0586363493569024
    Molecular point group: c1
  Basis Set: CC-PVTZ
  Basis Set:
  Basis Set: CC-PVTZ
  Basis Set:
  @DF-RHF Final Energy:  -268.05940809418018
    Total Energy =                       -268.0594080941800712
  Basis Set: CC-PVTZ
  Basis Set:
  Basis Set: CC-PVTZ
  Basis Set:
  @DF-RHF Final Energy:  -268.05960836311431
    Total Energy =                       -268.0596083631141937
  Basis Set: CC-PVTZ
  Basis Set:
  Charge       = 0
  Multiplicity = 1
  Basis Set: CC-PVTZ
  Basis Set:

    Orbital Energies (a.u.)
    -----------------------

    Doubly Occupied:

       1A    -20.553362     2A    -20.552585     3A    -11.269601
       4A    -11.267440     5A    -11.267027     6A     -1.388750
       7A     -1.368594     8A     -1.019455     9A     -0.914169
      10A     -0.842622    11A     -0.711188    12A     -0.674552
      13A     -0.661550    14A     -0.637849    15A     -0.599053
      16A     -0.568610    17A     -0.551050    18A     -0.490112
      19A     -0.483558    20A     -0.441277    21A     -0.420829

  @DF-RHF Final Energy:  -268.05960960101186

   => Energetics <=

    Nuclear Repulsion Energy =            190.2669593691517207
    One-Electron Energy =                -743.2866783840373728
    Two-Electron Energy =                 284.9601094138739086
    DFT Exchange-Correlation Energy =       0.0000000000000000
    Empirical Dispersion Energy =           0.0000000000000000
    PCM Polarization Energy =               0.0000000000000000
    EFP Energy =                            0.0000000000000000
    Total Energy =                       -268.0596096010116867
    Molecular point group: c1
  Basis Set: CC-PVTZ
  Basis Set:

  -Total Gradient:
     Atom            X                  Y                   Z
    ------   -----------------  -----------------  -----------------
       1        0.000000266527     0.000006501492    -0.000001147952
       2        0.000030580248    -0.000013775102     0.000008013250
       3       -0.000038170038    -0.000047004267     0.000020387680
       4        0.000439992902     0.000811459861     0.001798298213
       5       -0.000008427382    -0.000000067819    -0.000000803458
       6       -0.000006198081    -0.000002022655     0.000003654798
       7       -0.000201417539    -0.000739431500    -0.002336006296
       8        0.000006075110    -0.000024527678     0.000011454484
       9        0.000000978675    -0.000018895143     0.000018073524
      10       -0.001173346654    -0.002006996100    -0.000545362298
      11       -0.000039545589    -0.000004654218    -0.000001069860
      12        0.000015451570     0.000016013702    -0.000001804403
      13        0.000973760246     0.002023399429     0.001026312317

  **** Optimization is complete! (in 4 steps) ****
    Final optimized geometry and variables:
    Molecular point group: c1

    Geometry (in Angstrom), charge = 0, multiplicity = 1:

    H           -0.754284783145     2.601488450385    -0.091818764524
    O           -1.115363726883     1.973264667021    -0.690027505882
    C           -1.069777636637     0.690563393661    -0.130442924959
    C            0.341845086948     0.138596396509    -0.121554491860
    H           -1.470062801074     0.680608567942     0.878448839796
    H           -1.700112049473     0.058099282748    -0.738979874696
    O            0.306009308984    -1.131840053685     0.442468957821
    H            0.993470599829     0.794604274506     0.456686911524
    H            0.724817898102     0.110500868946    -1.139326246304
    C            1.524727389938    -1.806113872171     0.502098123808
    H            1.612701658173    -2.521193950829    -0.309333912725
    H            2.364216783617    -1.119431428484     0.446643396663
    H            1.586994981165    -2.326270399443     1.448707185009

  Mulliken Charges: (a.u.)
   Center  Symbol    Alpha    Beta     Spin     Total
       1     H     0.39414  0.39414  0.00000  0.21172
       2     O     4.20214  4.20214  0.00000 -0.40428
       3     C     2.97489  2.97489  0.00000  0.05022
       4     C     2.96485  2.96485  0.00000  0.07029
       5     H     0.46719  0.46719  0.00000  0.06562
       6     H     0.45265  0.45265  0.00000  0.09469
       7     O     4.17926  4.17926  0.00000 -0.35852
       8     H     0.48112  0.48112  0.00000  0.03777
       9     H     0.47012  0.47012  0.00000  0.05976
      10     C     3.02794  3.02794  0.00000 -0.05588
      11     H     0.46059  0.46059  0.00000  0.07883
      12     H     0.47277  0.47277  0.00000  0.05446
      13     H     0.45234  0.45234  0.00000  0.09533

   Total alpha = 21.00000, Total beta = 21.00000, Total charge = -0.00000
