  ==> Input File <==

--------------------------------------------------------------------------
set {
	reference rhf
	basis cc-pvtz
}

set_num_threads( 4 )
memory 2 gb

molecule MOL {
0 1

H	 -1.549384	 0.685794	 2.599424
O	 -0.623401	 0.570275	 2.482538
C	 -0.216877	 1.190006	 1.301734
C	 -0.793473	 0.591216	 0.050087
H	 0.863416	 1.110857	 1.270010
H	 -0.449072	 2.253198	 1.321920
C	 -1.534243	 -0.493009	 -0.013340
H	 -0.554577	 1.125761	 -0.854589
H	 -1.101195	 -1.466332	 -0.144046
H	 -2.604242	 -0.437780	 0.050785

	symmetry c1
}
set optking {
	frozen_dihedral = ("
		3 4 7 9
	")
}

ee = optimize('scf')
oeprop('DIPOLE', 'QUADRUPOLE', 'MULLIKEN_CHARGES')
f=open( 'psi4out.xyz', 'w' )
f.write( "10  " )
f.write( str(ee) + "\n" )
f.write( MOL.save_string_xyz() )
f.close()
--------------------------------------------------------------------------

    Molecular point group: c1
  Charge       = 0
  Multiplicity = 1
  Basis Set: CC-PVTZ
  Basis Set:
  @DF-RHF Final Energy:  -191.80779636412905
    Total Energy =                       -191.8077963641290467
    Molecular point group: c1
  Basis Set: CC-PVTZ
  Basis Set:
  Basis Set: CC-PVTZ
  Basis Set:
  @DF-RHF Final Energy:  -191.81981731472825
    Total Energy =                       -191.8198173147281977
  Basis Set: CC-PVTZ
  Basis Set:
  Basis Set: CC-PVTZ
  Basis Set:
  @DF-RHF Final Energy:  -191.82376486002022
    Total Energy =                       -191.8237648600201908
  Basis Set: CC-PVTZ
  Basis Set:
  Basis Set: CC-PVTZ
  Basis Set:
  @DF-RHF Final Energy:  -191.84033500098789
    Total Energy =                       -191.8403350009879773
  Basis Set: CC-PVTZ
  Basis Set:
  @DF-RHF Final Energy:  -191.77789595399565
    Total Energy =                       -191.7778959539955679
  @DF-RHF Final Energy:  -191.83931304060957
    Total Energy =                       -191.8393130406096247
  @DF-RHF Final Energy:  -191.84704406406865
    Total Energy =                       -191.8470440640687400
  @DF-RHF Final Energy:  -191.85087779950265
    Total Energy =                       -191.8508777995027401
  @DF-RHF Final Energy:  -191.86234021812896
    Total Energy =                       -191.8623402181289066
  @DF-RHF Final Energy:  -191.88298270556618
    Total Energy =                       -191.8829827055662918
  @DF-RHF Final Energy:  -191.91138617829279
    Total Energy =                       -191.9113861782927586
  @DF-RHF Final Energy:  -191.92498727311056
    Total Energy =                       -191.9249872731105597
  @DF-RHF Final Energy:  -191.93085679578672
    Total Energy =                       -191.9308567957866671
  @DF-RHF Final Energy:  -191.93310237791349
    Total Energy =                       -191.9331023779134853
  @DF-RHF Final Energy:  -191.93409503945975
    Total Energy =                       -191.9340950394598053
  @DF-RHF Final Energy:  -191.93472208194490
    Total Energy =                       -191.9347220819448694
  @DF-RHF Final Energy:  -191.93500676383997
    Total Energy =                       -191.9350067638399651
  @DF-RHF Final Energy:  -191.93517098053002
    Total Energy =                       -191.9351709805299890
  @DF-RHF Final Energy:  -191.93523515447816
    Total Energy =                       -191.9352351544781072
  @DF-RHF Final Energy:  -191.93520098498112
    Total Energy =                       -191.9352009849809804
  @DF-RHF Final Energy:  -191.93530312351118
    Total Energy =                       -191.9353031235113747
  @DF-RHF Final Energy:  -191.93530294267012
    Total Energy =                       -191.9353029426699777
  @DF-RHF Final Energy:  -191.93530375948018
    Total Energy =                       -191.9353037594801776
  @DF-RHF Final Energy:  -191.93530188980361
    Total Energy =                       -191.9353018898036964
  @DF-RHF Final Energy:  -191.93530189263629
    Total Energy =                       -191.9353018926362040
  @DF-RHF Final Energy:  -191.93530133290045
    Total Energy =                       -191.9353013329003943
  @DF-RHF Final Energy:  -191.93530142788171
    Total Energy =                       -191.9353014278818250
  @DF-RHF Final Energy:  -191.93529837468691
    Total Energy =                       -191.9352983746869654
  @DF-RHF Final Energy:  -191.93529862659113
    Total Energy =                       -191.9352986265911909
  @DF-RHF Final Energy:  -191.93529901239393
    Total Energy =                       -191.9352990123940685
  @DF-RHF Final Energy:  -191.93529959769148
    Total Energy =                       -191.9352995976913121
  @DF-RHF Final Energy:  -191.93529985821129
    Total Energy =                       -191.9352998582112946
  @DF-RHF Final Energy:  -191.93530002620179
    Total Energy =                       -191.9353000262017872
  @DF-RHF Final Energy:  -191.93530052374314
    Total Energy =                       -191.9353005237432512
  @DF-RHF Final Energy:  -191.93530072346451
    Total Energy =                       -191.9353007234645361
  @DF-RHF Final Energy:  -191.93530136345709
    Total Energy =                       -191.9353013634570857
  Basis Set: CC-PVTZ
  Basis Set:
  @DF-RHF Final Energy:  -191.93529781567253
    Total Energy =                       -191.9352978156725840
  Basis Set: CC-PVTZ
  Basis Set:
  Basis Set: CC-PVTZ
  Basis Set:
  @DF-RHF Final Energy:  -191.93529286314185
    Total Energy =                       -191.9352928631418820
  Basis Set: CC-PVTZ
  Basis Set:
  Basis Set: CC-PVTZ
  Basis Set:
  @DF-RHF Final Energy:  -191.93529551682664
    Total Energy =                       -191.9352955168265566
  Basis Set: CC-PVTZ
  Basis Set:
  Charge       = 0
  Multiplicity = 1
  Basis Set: CC-PVTZ
  Basis Set:

    Orbital Energies (a.u.)
    -----------------------

    Doubly Occupied:

       1A    -20.551974     2A    -11.286792     3A    -11.247050
       4A    -11.227971     5A     -1.371160     6A     -1.065990
       7A     -0.940775     8A     -0.778258     9A     -0.688108
      10A     -0.649235    11A     -0.620312    12A     -0.573664
      13A     -0.549376    14A     -0.479264    15A     -0.453193
      16A     -0.353291

  @DF-RHF Final Energy:  -191.93529774584567

   => Energetics <=

    Nuclear Repulsion Energy =            117.1187316727301777
    One-Electron Energy =                -492.4352358912092313
    Two-Electron Energy =                 183.3812064726333233
    DFT Exchange-Correlation Energy =       0.0000000000000000
    Empirical Dispersion Energy =           0.0000000000000000
    PCM Polarization Energy =               0.0000000000000000
    EFP Energy =                            0.0000000000000000
    Total Energy =                       -191.9352977458457303
    Molecular point group: c1
  Basis Set: CC-PVTZ
  Basis Set:

  -Total Gradient:
     Atom            X                  Y                   Z
    ------   -----------------  -----------------  -----------------
       1       -0.002559809651     0.003098903084     0.000560975528
       2        0.001992910101    -0.004977131565     0.003564446167
       3       -0.015485945638     0.027878415390    -0.018598233703
       4        0.036565715104    -0.051623714624     0.004905270121
       5        0.000323118094     0.000419573730    -0.001187958957
       6        0.000575704084    -0.000159698656     0.000268486800
       7       -0.038616723782     0.041325676317     0.048833506776
       8       -0.001040561793    -0.001851010724     0.002295340762
       9        0.017753827758    -0.013625418492    -0.040101130480
      10        0.000491765722    -0.000485594462    -0.000540703016

    Molecular point group: c1

    Geometry (in Angstrom), charge = 0, multiplicity = 1:

    H            0.567497199893    -0.589296018845     1.664318763066
    O            0.253172039241     0.282494399686     1.532824296587
    C            0.536775478844     0.723678141675     0.234561788756
    C            0.110315505568    -0.167121244332    -0.903102694742
    H            1.590683606613     0.973455954350     0.125038703522
    H           -0.021610294149     1.636226563598     0.092839718867
    C           -0.989558673048    -0.902021897822    -1.126852639494
    H            0.377559620932     0.400563776050    -1.784918681143
    H           -1.197197247493    -1.928324291504    -0.867784912023
    H           -1.257252772684    -0.862624530883    -2.179084156476

  Mulliken Charges: (a.u.)
   Center  Symbol    Alpha    Beta     Spin     Total
       1     H     0.39280  0.39280  0.00000  0.21440
       2     O     4.19751  4.19751  0.00000 -0.39502
       3     C     2.95469  2.95469  0.00000  0.09063
       4     C     3.07765  3.07765  0.00000 -0.15530
       5     H     0.46536  0.46536  0.00000  0.06928
       6     H     0.44680  0.44680  0.00000  0.10639
       7     C     3.16168  3.16168  0.00000 -0.32335
       8     H     0.43644  0.43644  0.00000  0.12712
       9     H     0.42590  0.42590  0.00000  0.14820
      10     H     0.44117  0.44117  0.00000  0.11766

   Total alpha = 16.00000, Total beta = 16.00000, Total charge = -0.00000
