  ==> Input File <==

--------------------------------------------------------------------------
set {
	reference rhf
	basis 6-31G*
}

set_num_threads( 4 )
memory 2 gb

molecule MOL {
0 1

O	 3.225979	 0.970355	 -0.599647
C	 2.701189	 0.057885	 -0.047330
C	 1.245376	 -0.013843	 0.345420
O	 3.347903	 -1.046386	 0.304773
C	 0.455112	 1.231400	 -0.050772
H	 0.838542	 -0.913825	 -0.103701
H	 1.208210	 -0.175333	 1.419774
C	 -0.998893	 1.219485	 0.433193
H	 0.482531	 1.345121	 -1.130325
H	 0.957290	 2.103070	 0.354729
C	 -2.008461	 0.654718	 -0.570262
H	 -1.282354	 2.241629	 0.673179
H	 -1.065991	 0.661301	 1.365898
C	 -3.455286	 0.765873	 -0.085140
H	 -1.905227	 1.182613	 -1.517093
H	 -1.786850	 -0.389823	 -0.777130
C	 -4.472525	 0.199853	 -1.077600
H	 -3.689487	 1.810707	 0.111600
H	 -3.556691	 0.247300	 0.866963
C	 -5.915190	 0.318184	 -0.587278
H	 -4.371880	 0.716256	 -2.029882
H	 -4.242678	 -0.845657	 -1.272175
H	 -6.612201	 -0.091348	 -1.311892
H	 -6.187353	 1.355974	 -0.416643
H	 -6.056894	 -0.217482	 0.347203
C	 4.728119	 -1.109107	 -0.004993
H	 4.882018	 -1.033965	 -1.071845
H	 5.068212	 -2.067527	 0.355250
H	 5.265056	 -0.311663	 0.488280

	symmetry c1
}
set optking {
	frozen_dihedral = ("
		11 8 5 9
	")
}

ee = optimize('scf')
oeprop('DIPOLE', 'QUADRUPOLE', 'MULLIKEN_CHARGES')
f=open( 'psi4out.xyz', 'w' )
f.write( "29  " )
f.write( str(ee) + "\n" )
f.write( MOL.save_string_xyz() )
f.close()
--------------------------------------------------------------------------

    Molecular point group: c1
  Charge       = 0
  Multiplicity = 1
  Basis Set: 6-31G*
  Basis Set:
  @DF-RHF Final Energy:  -501.04179992950731
    Total Energy =                       -501.0417999295075333
    Molecular point group: c1
  Basis Set: 6-31G*
  Basis Set:
  Basis Set: 6-31G*
  Basis Set:
  @DF-RHF Final Energy:  -501.04235632903749
    Total Energy =                       -501.0423563290369202
  Basis Set: 6-31G*
  Basis Set:
  Basis Set: 6-31G*
  Basis Set:
  @DF-RHF Final Energy:  -501.04227369281091
    Total Energy =                       -501.0422736928098857
  Basis Set: 6-31G*
  Basis Set:
  Basis Set: 6-31G*
  Basis Set:
  @DF-RHF Final Energy:  -501.04236299901947
    Total Energy =                       -501.0423629990194740
  Basis Set: 6-31G*
  Basis Set:
  Basis Set: 6-31G*
  Basis Set:
  @DF-RHF Final Energy:  -501.04240984614057
    Total Energy =                       -501.0424098461412541
  Basis Set: 6-31G*
  Basis Set:
  Basis Set: 6-31G*
  Basis Set:
  @DF-RHF Final Energy:  -501.04241701563922
    Total Energy =                       -501.0424170156397849
  Basis Set: 6-31G*
  Basis Set:
  Basis Set: 6-31G*
  Basis Set:
  @DF-RHF Final Energy:  -501.04242191585558
    Total Energy =                       -501.0424219158558117
  Basis Set: 6-31G*
  Basis Set:
  Charge       = 0
  Multiplicity = 1
  Basis Set: 6-31G*
  Basis Set:

    Orbital Energies (a.u.)
    -----------------------

    Doubly Occupied:

       1A    -20.603371     2A    -20.545215     3A    -11.371828
       4A    -11.280665     5A    -11.235021     6A    -11.218983
       7A    -11.217380     8A    -11.215791     9A    -11.215516
      10A    -11.214036    11A    -11.208818    12A     -1.469023
      13A     -1.362475    14A     -1.097382    15A     -1.066777
      16A     -1.019544    17A     -0.977129    18A     -0.927373
      19A     -0.858855    20A     -0.800461    21A     -0.790573
      22A     -0.765999    23A     -0.700599    24A     -0.682167
      25A     -0.672256    26A     -0.649342    27A     -0.628998
      28A     -0.603985    29A     -0.595867    30A     -0.581170
      31A     -0.566050    32A     -0.546809    33A     -0.534045
      34A     -0.529767    35A     -0.515010    36A     -0.506272
      37A     -0.499718    38A     -0.478528    39A     -0.469811
      40A     -0.463119    41A     -0.458925    42A     -0.456105
      43A     -0.441532    44A     -0.433514

  @DF-RHF Final Energy:  -501.04242244552916

   => Energetics <=

    Nuclear Repulsion Energy =            608.5674527095386566
    One-Electron Energy =               -1888.2681448129164892
    Two-Electron Energy =                 778.6582696578484502
    DFT Exchange-Correlation Energy =       0.0000000000000000
    Empirical Dispersion Energy =           0.0000000000000000
    PCM Polarization Energy =               0.0000000000000000
    EFP Energy =                            0.0000000000000000
    Total Energy =                       -501.0424224455293825
    Molecular point group: c1
  Basis Set: 6-31G*
  Basis Set:

  -Total Gradient:
     Atom            X                  Y                   Z
    ------   -----------------  -----------------  -----------------
       1       -0.000009860349     0.000021945244     0.000000836254
       2        0.000002537690    -0.000007313030     0.000015048417
       3        0.000006409514    -0.000032683320    -0.000013901524
       4       -0.000009917952    -0.000017632936    -0.000002939977
       5       -0.000010892476     0.004911098703    -0.000070986820
       6        0.000016942750     0.000008024834     0.000009549155
       7        0.000011204778     0.000003204569     0.000012993817
       8        0.000407251302    -0.003797136360     0.001308822972
       9       -0.000106293857    -0.003265707688    -0.000245303555
      10       -0.000009902586    -0.000000215760    -0.000005380114
      11       -0.000304674702     0.002159939566    -0.000998714713
      12        0.000016977641     0.000014030623    -0.000008082579
      13        0.000011229215     0.000001099078    -0.000002214536
      14        0.000004471131    -0.000032325623     0.000010960273
      15       -0.000019665289     0.000006473533    -0.000003376449
      16       -0.000008263312     0.000006930118    -0.000002354133
      17       -0.000002540224     0.000012456427    -0.000008876878
      18        0.000017653208    -0.000002471891    -0.000012372148
      19       -0.000013533842    -0.000000101963     0.000010467252
      20        0.000005408743    -0.000008949736     0.000007687531
      21       -0.000002722550     0.000007811427    -0.000002846349
      22        0.000001526869     0.000005958362    -0.000002560733
      23        0.000004155749    -0.000004327872     0.000001423606
      24       -0.000000162029    -0.000000184405    -0.000005268641
      25       -0.000001293680     0.000002450963     0.000004891516
      26       -0.000001055921     0.000008057471     0.000000931590
      27       -0.000000600438    -0.000000247295     0.000000113197
      28       -0.000005083434     0.000000104044     0.000001503754
      29        0.000000694039    -0.000000287079    -0.000000050188

  **** Optimization is complete! (in 8 steps) ****
    Final optimized geometry and variables:
    Molecular point group: c1

    Geometry (in Angstrom), charge = 0, multiplicity = 1:

    O            3.249686192730     0.595279654634    -0.534393096403
    C            2.708151741772    -0.237199398244     0.119079600880
    C            1.282857932184    -0.177512122882     0.611757044831
    O            3.305941816188    -1.355704080123     0.510324999616
    C            0.548223827857     1.095347924251     0.191797666993
    H            0.777306488083    -1.067352598773     0.247189006499
    H            1.310041985570    -0.275555561452     1.693480210918
    C           -0.920483102425     1.101777081219     0.649060137794
    H            0.598012173277     1.172314114205    -0.889209814864
    H            1.076502108095     1.953108795157     0.591429291610
    C           -1.885299101779     0.498462794212    -0.375764023371
    H           -1.227672401834     2.127076146740     0.840096006227
    H           -1.017233822600     0.579935511404     1.599087896898
    C           -3.336171483667     0.468830899411     0.107096727300
    H           -1.823069708643     1.073470343549    -1.297393980372
    H           -1.572828593564    -0.513949296764    -0.628161605116
    C           -4.306687371835    -0.109128624344    -0.924570727839
    H           -3.649103920278     1.478847777185     0.367072148758
    H           -3.399185206690    -0.114165118701     1.024586391529
    C           -5.753685860800    -0.137373778826    -0.433592932738
    H           -4.248029674722     0.474970239451    -1.840502108966
    H           -3.995099426436    -1.118169498355    -1.186291280382
    H           -6.416797066897    -0.552702228334    -1.186186329555
    H           -6.106974583500     0.862358608149    -0.197069193491
    H           -5.851678637737    -0.742232992087     0.463540313854
    C            4.653466901798    -1.536360144202     0.114798908131
    H            4.735055359756    -1.548411035519    -0.962570127335
    H            4.955898728845    -2.488000566870     0.523336348863
    H            5.274704469073    -0.745108560318     0.509154987471

  Mulliken Charges: (a.u.)
   Center  Symbol    Alpha    Beta     Spin     Total
       1     O     4.28606  4.28606  0.00000 -0.57213
       2     C     2.60558  2.60558  0.00000  0.78884
       3     C     3.20911  3.20911  0.00000 -0.41823
       4     O     4.30729  4.30729  0.00000 -0.61458
       5     C     3.15496  3.15496  0.00000 -0.30991
       6     H     0.40041  0.40041  0.00000  0.19918
       7     H     0.40065  0.40065  0.00000  0.19870
       8     C     3.15824  3.15824  0.00000 -0.31648
       9     H     0.40999  0.40999  0.00000  0.18002
      10     H     0.40957  0.40957  0.00000  0.18087
      11     C     3.15351  3.15351  0.00000 -0.30702
      12     H     0.41814  0.41814  0.00000  0.16372
      13     H     0.42318  0.42318  0.00000  0.15365
      14     C     3.15088  3.15088  0.00000 -0.30176
      15     H     0.42088  0.42088  0.00000  0.15824
      16     H     0.42517  0.42517  0.00000  0.14966
      17     C     3.15146  3.15146  0.00000 -0.30292
      18     H     0.42353  0.42353  0.00000  0.15294
      19     H     0.42419  0.42419  0.00000  0.15161
      20     C     3.23932  3.23932  0.00000 -0.47864
      21     H     0.42259  0.42259  0.00000  0.15482
      22     H     0.42334  0.42334  0.00000  0.15333
      23     H     0.41921  0.41921  0.00000  0.16157
      24     H     0.42163  0.42163  0.00000  0.15674
      25     H     0.42195  0.42195  0.00000  0.15609
      26     C     3.09242  3.09242  0.00000 -0.18484
      27     H     0.40911  0.40911  0.00000  0.18177
      28     H     0.40851  0.40851  0.00000  0.18298
      29     H     0.40911  0.40911  0.00000  0.18179

   Total alpha = 44.00000, Total beta = 44.00000, Total charge = -0.00000
