  ==> Input File <==

--------------------------------------------------------------------------
set {
	reference rhf
	basis cc-pvtz
}

set_num_threads( 4 )
memory 2 gb

molecule MOL {
0 1

H	 1.946317	 0.485149	 -1.078803
O	 1.173979	 -0.057436	 -1.129426
C	 0.489979	 0.078084	 0.002623
C	 -0.763662	 -0.754014	 0.000816
O	 0.853219	 0.784160	 0.878651
C	 -2.038001	 0.074705	 -0.000833
H	 -0.712945	 -1.405886	 -0.864342
H	 -0.715137	 -1.405770	 0.866182
H	 -2.087267	 0.710831	 -0.874232
H	 -2.903419	 -0.576199	 -0.001922
H	 -2.089467	 0.710909	 0.872389

	symmetry c1
}
set optking {
	frozen_dihedral = ("
		2 3 4 7
	")
}

ee = optimize('scf')
oeprop('DIPOLE', 'QUADRUPOLE', 'MULLIKEN_CHARGES')
f=open( 'psi4out.xyz', 'w' )
f.write( "11  " )
f.write( str(ee) + "\n" )
f.write( MOL.save_string_xyz() )
f.close()
--------------------------------------------------------------------------

    Molecular point group: c1
  Charge       = 0
  Multiplicity = 1
  Basis Set: CC-PVTZ
  Basis Set:
  @DF-RHF Final Energy:  -266.95057045390558
    Total Energy =                       -266.9505704539056978
    Molecular point group: c1
  Basis Set: CC-PVTZ
  Basis Set:
  Basis Set: CC-PVTZ
  Basis Set:
  @DF-RHF Final Energy:  -266.95122340316357
    Total Energy =                       -266.9512234031636808
  Basis Set: CC-PVTZ
  Basis Set:
  Basis Set: CC-PVTZ
  Basis Set:
  @DF-RHF Final Energy:  -266.95114762226143
    Total Energy =                       -266.9511476222613169
  Basis Set: CC-PVTZ
  Basis Set:
  Basis Set: CC-PVTZ
  Basis Set:
  @DF-RHF Final Energy:  -266.95126108064841
    Total Energy =                       -266.9512610806483508
  Basis Set: CC-PVTZ
  Basis Set:
  Charge       = 0
  Multiplicity = 1
  Basis Set: CC-PVTZ
  Basis Set:

    Orbital Energies (a.u.)
    -----------------------

    Doubly Occupied:

       1A    -20.607332     2A    -20.538726     3A    -11.374069
       4A    -11.241536     5A    -11.226935     6A     -1.479064
       7A     -1.369243     8A     -1.067434     9A     -0.915837
      10A     -0.813962    11A     -0.707074    12A     -0.690811
      13A     -0.649161    14A     -0.614458    15A     -0.596267
      16A     -0.540628    17A     -0.527546    18A     -0.512385
      19A     -0.479005    20A     -0.445528

  @DF-RHF Final Energy:  -266.95128836693186

   => Energetics <=

    Nuclear Repulsion Energy =            180.1590683346315700
    One-Electron Energy =                -721.4267121775811802
    Two-Electron Energy =                 274.3163554760178613
    DFT Exchange-Correlation Energy =       0.0000000000000000
    Empirical Dispersion Energy =           0.0000000000000000
    PCM Polarization Energy =               0.0000000000000000
    EFP Energy =                            0.0000000000000000
    Total Energy =                       -266.9512883669317489
    Molecular point group: c1
  Basis Set: CC-PVTZ
  Basis Set:

  -Total Gradient:
     Atom            X                  Y                   Z
    ------   -----------------  -----------------  -----------------
       1        0.000039397765     0.000023638953    -0.000017691178
       2        0.000041481425     0.000096840322    -0.000045838735
       3        0.000052400566    -0.000105143702     0.000155412691
       4       -0.000131428822     0.000143744480    -0.000027059711
       5       -0.000043867087    -0.000092103800    -0.000150527125
       6        0.000033234315    -0.000015350606    -0.000015038901
       7        0.000069269366    -0.000000954371     0.000099621488
       8        0.000019304573    -0.000039097888     0.000039358379
       9       -0.000048164034     0.000017816157    -0.000008991910
      10       -0.000067133407     0.000010074700    -0.000014200334
      11        0.000035505343    -0.000039464246    -0.000015044663

  **** Optimization is complete! (in 5 steps) ****
    Final optimized geometry and variables:
    Molecular point group: c1

    Geometry (in Angstrom), charge = 0, multiplicity = 1:

    H            1.966472849227     0.506325099402    -0.989165380160
    O            1.212803628938    -0.060686889235    -1.061367127514
    C            0.512506657925     0.028721403633     0.063542799159
    C           -0.730924834922    -0.822180028254     0.058223250728
    O            0.846389120720     0.724884044537     0.959951463275
    C           -1.991066039050     0.044897694961     0.066435422821
    H           -0.718489953009    -1.477911592352    -0.799859470079
    H           -0.698629316551    -1.429254312839     0.954131800344
    H           -2.051038770216     0.656038364599    -0.826439038135
    H           -2.872891746155    -0.581809665372     0.102059420707
    H           -1.998356279935     0.698308004692     0.927930160773

  Mulliken Charges: (a.u.)
   Center  Symbol    Alpha    Beta     Spin     Total
       1     H     0.37983  0.37983  0.00000  0.24034
       2     O     4.16006  4.16006  0.00000 -0.32012
       3     C     2.80040  2.80040  0.00000  0.39921
       4     C     3.08997  3.08997  0.00000 -0.17995
       5     O     4.19939  4.19939  0.00000 -0.39877
       6     C     3.14668  3.14668  0.00000 -0.29336
       7     H     0.43959  0.43959  0.00000  0.12082
       8     H     0.44228  0.44228  0.00000  0.11545
       9     H     0.45161  0.45161  0.00000  0.09679
      10     H     0.44800  0.44800  0.00000  0.10400
      11     H     0.44220  0.44220  0.00000  0.11560

   Total alpha = 20.00000, Total beta = 20.00000, Total charge =  0.00000
