  ==> Input File <==

--------------------------------------------------------------------------
set {
	reference rhf
	basis 6-31G*
}

set_num_threads( 4 )
memory 2 gb

molecule MOL {
0 1

H	 3.557202	 3.519408	 -2.921299
C	 3.689976	 2.701814	 -2.219563
C	 2.445233	 2.508838	 -1.354375
H	 3.908158	 1.805827	 -2.793101
H	 4.561874	 2.926318	 -1.611128
C	 2.601507	 1.366766	 -0.347865
H	 1.590990	 2.312760	 -1.994238
H	 2.232423	 3.433105	 -0.819460
C	 1.377643	 1.161302	 0.545000
H	 2.811623	 0.443154	 -0.875535
H	 3.459254	 1.569743	 0.289403
C	 0.169600	 0.576866	 -0.172154
H	 1.622737	 0.471821	 1.351421
H	 1.090343	 2.091225	 1.030673
C	 -1.181045	 0.701995	 0.511084
O	 0.274582	 0.022555	 -1.224829
C	 -2.285934	 -0.139295	 -0.145128
H	 -1.449051	 1.751551	 0.493206
H	 -1.071135	 0.403303	 1.551943
C	 -3.651768	 0.085446	 0.506485
H	 -2.346596	 0.110469	 -1.202272
H	 -2.034737	 -1.195320	 -0.088721
C	 -4.759797	 -0.746382	 -0.137905
H	 -3.908762	 1.140117	 0.445781
H	 -3.588286	 -0.154158	 1.565709
H	 -4.868882	 -0.505166	 -1.191300
H	 -4.548009	 -1.809175	 -0.062213
H	 -5.715422	 -0.564821	 0.343442

	symmetry c1
}
set optking {
	frozen_dihedral = ("
		16 12 15 17
	")
}

ee = optimize('scf')
oeprop('DIPOLE', 'QUADRUPOLE', 'MULLIKEN_CHARGES')
f=open( 'psi4out.xyz', 'w' )
f.write( "28  " )
f.write( str(ee) + "\n" )
f.write( MOL.save_string_xyz() )
f.close()
--------------------------------------------------------------------------

    Molecular point group: c1
  Charge       = 0
  Multiplicity = 1
  Basis Set: 6-31G*
  Basis Set:
  @DF-RHF Final Energy:  -426.17108400530992
    Total Energy =                       -426.1710840053099218
    Molecular point group: c1
  Basis Set: 6-31G*
  Basis Set:
  Basis Set: 6-31G*
  Basis Set:
  @DF-RHF Final Energy:  -426.17151583198540
    Total Energy =                       -426.1715158319855163
  Basis Set: 6-31G*
  Basis Set:
  Basis Set: 6-31G*
  Basis Set:
  @DF-RHF Final Energy:  -426.17010992447524
    Total Energy =                       -426.1701099244751276
  Basis Set: 6-31G*
  Basis Set:
  Basis Set: 6-31G*
  Basis Set:
  @DF-RHF Final Energy:  -426.17160490639753
    Total Energy =                       -426.1716049063973060
  Basis Set: 6-31G*
  Basis Set:
  Basis Set: 6-31G*
  Basis Set:
  @DF-RHF Final Energy:  -426.17141466031933
    Total Energy =                       -426.1714146603194422
  Basis Set: 6-31G*
  Basis Set:
  Basis Set: 6-31G*
  Basis Set:
  @DF-RHF Final Energy:  -426.17163735702422
    Total Energy =                       -426.1716373570243377
  Basis Set: 6-31G*
  Basis Set:
  Basis Set: 6-31G*
  Basis Set:
  @DF-RHF Final Energy:  -426.17164127397825
    Total Energy =                       -426.1716412739781390
  Basis Set: 6-31G*
  Basis Set:
  Charge       = 0
  Multiplicity = 1
  Basis Set: 6-31G*
  Basis Set:

    Orbital Energies (a.u.)
    -----------------------

    Doubly Occupied:

       1A    -20.549993     2A    -11.324115     3A    -11.231174
       4A    -11.230979     5A    -11.219106     6A    -11.217107
       7A    -11.216878     8A    -11.212835     9A    -11.209869
      10A    -11.206167    11A     -1.395516    12A     -1.088518
      13A     -1.077455    14A     -1.022296    15A     -0.990706
      16A     -0.910709    17A     -0.865467    18A     -0.806300
      19A     -0.791286    20A     -0.723894    21A     -0.668319
      22A     -0.655426    23A     -0.625478    24A     -0.618729
      25A     -0.609535    26A     -0.582681    27A     -0.579597
      28A     -0.573821    29A     -0.535998    30A     -0.527720
      31A     -0.520481    32A     -0.508144    33A     -0.489964
      34A     -0.481608    35A     -0.474002    36A     -0.470131
      37A     -0.468637    38A     -0.466155    39A     -0.456801
      40A     -0.394742

  @DF-RHF Final Energy:  -426.17164096373381

   => Energetics <=

    Nuclear Repulsion Energy =            529.6565517990825356
    One-Electron Energy =               -1627.6597110985417203
    Two-Electron Energy =                 671.8315183357253773
    DFT Exchange-Correlation Energy =       0.0000000000000000
    Empirical Dispersion Energy =           0.0000000000000000
    PCM Polarization Energy =               0.0000000000000000
    EFP Energy =                            0.0000000000000000
    Total Energy =                       -426.1716409637338074
    Molecular point group: c1
  Basis Set: 6-31G*
  Basis Set:

  -Total Gradient:
     Atom            X                  Y                   Z
    ------   -----------------  -----------------  -----------------
       1        0.000005187035     0.000009864776     0.000008928088
       2        0.000002874368     0.000015701087     0.000003761687
       3        0.000020203711     0.000004236735     0.000017364544
       4       -0.000016362507     0.000006498644     0.000002444937
       5        0.000001761253    -0.000006423386     0.000004333094
       6        0.000056087705    -0.000030869951     0.000018241787
       7        0.000006104413    -0.000006246633    -0.000039039993
       8       -0.000019789103    -0.000007002534    -0.000009163305
       9        0.000042010154     0.000042285514     0.000040811090
      10       -0.000017393161     0.000001035993     0.000021122638
      11        0.000023802063     0.000004602865    -0.000033301330
      12        0.000009128647    -0.000162510299     0.000107532987
      13       -0.000022630768     0.000010467146    -0.000038601129
      14        0.000027194112     0.000015418034     0.000026115156
      15       -0.000015980215     0.000063467048    -0.000071645162
      16       -0.000083163603     0.000091813731    -0.000046850346
      17       -0.000008536908    -0.000033627675     0.000075269098
      18       -0.000029038967    -0.000032531431    -0.000011483753
      19        0.000048893841     0.000021520863     0.000016507852
      20       -0.000005730255     0.000035979117    -0.000058143550
      21       -0.000034558745    -0.000012588950    -0.000032748707
      22       -0.000009564839    -0.000004093783     0.000011760033
      23       -0.000006931541    -0.000027612669     0.000007588323
      24        0.000010763622     0.000002134367    -0.000006350804
      25        0.000022054957     0.000008754862    -0.000012988314
      26       -0.000004612928     0.000005143295     0.000006372806
      27       -0.000003169687    -0.000005506266    -0.000011494262
      28        0.000001397346    -0.000009910501     0.000003656536

  **** Optimization is complete! (in 8 steps) ****
    Final optimized geometry and variables:
    Molecular point group: c1

    Geometry (in Angstrom), charge = 0, multiplicity = 1:

    H            3.792019258433     2.666932023659    -2.470271211432
    C            3.893083486821     1.853231819367    -1.758816110757
    C            2.618234936653     1.678737369840    -0.934587394974
    H            4.121400477155     0.951016621886    -2.318478477737
    H            4.746307618352     2.073712634733    -1.123034382785
    C            2.730218355919     0.544550121223     0.086763947389
    H            1.784167428629     1.484273582972    -1.600965149172
    H            2.395930493657     2.609516770080    -0.415074789108
    C            1.476866801229     0.361692167796     0.941993343266
    H            2.946481449118    -0.386357793991    -0.425752871404
    H            3.570068657650     0.743970278613     0.748435420687
    C            0.285180492200    -0.227524641256     0.203505935061
    H            1.684449319451    -0.316580992397     1.769169275990
    H            1.179769246218     1.301175496122     1.403247592253
    C           -1.057252217461    -0.111650173514     0.903802623565
    O            0.399647003506    -0.763970359319    -0.856674505528
    C           -2.168640323222    -0.936420356326     0.260803872737
    H           -1.323070776983     0.945185145546     0.912213223217
    H           -0.925556980889    -0.384946955309     1.949321441164
    C           -3.509860298137    -0.776092226507     0.978376195985
    H           -2.269970643893    -0.647488219677    -0.779987684866
    H           -1.878964780854    -1.983388882295     0.255272083176
    C           -4.623950630224    -1.604612548792     0.339766895100
    H           -3.797594626588     0.273455521990     0.979840453261
    H           -3.401226406480    -1.063278606907     2.022435525797
    H           -4.782057558990    -1.315795071521    -0.695226606878
    H           -4.381240259965    -2.663241686259     0.352981790655
    H           -5.563347234593    -1.473482520532     0.867793438745

  Mulliken Charges: (a.u.)
   Center  Symbol    Alpha    Beta     Spin     Total
       1     H     0.41930  0.41930  0.00000  0.16141
       2     C     3.24012  3.24012  0.00000 -0.48024
       3     C     3.15656  3.15656  0.00000 -0.31311
       4     H     0.41835  0.41835  0.00000  0.16330
       5     H     0.42355  0.42355  0.00000  0.15291
       6     C     3.14954  3.14954  0.00000 -0.29908
       7     H     0.41010  0.41010  0.00000  0.17980
       8     H     0.42760  0.42760  0.00000  0.14480
       9     C     3.20902  3.20902  0.00000 -0.41805
      10     H     0.40712  0.40712  0.00000  0.18575
      11     H     0.42161  0.42161  0.00000  0.15679
      12     C     2.73170  2.73170  0.00000  0.53659
      13     H     0.40475  0.40475  0.00000  0.19050
      14     H     0.41195  0.41195  0.00000  0.17609
      15     C     3.20873  3.20873  0.00000 -0.41746
      16     O     4.26839  4.26839  0.00000 -0.53677
      17     C     3.14742  3.14742  0.00000 -0.29484
      18     H     0.40755  0.40755  0.00000  0.18491
      19     H     0.41119  0.41119  0.00000  0.17762
      20     C     3.15356  3.15356  0.00000 -0.30713
      21     H     0.40982  0.40982  0.00000  0.18036
      22     H     0.41537  0.41537  0.00000  0.16925
      23     C     3.23924  3.23924  0.00000 -0.47848
      24     H     0.42375  0.42375  0.00000  0.15250
      25     H     0.42424  0.42424  0.00000  0.15152
      26     H     0.41986  0.41986  0.00000  0.16028
      27     H     0.42037  0.42037  0.00000  0.15926
      28     H     0.41926  0.41926  0.00000  0.16149

   Total alpha = 40.00000, Total beta = 40.00000, Total charge =  0.00000
