  ==> Input File <==

--------------------------------------------------------------------------
set {
	reference rhf
	basis 6-31G*
}

set_num_threads( 4 )
memory 2 gb

molecule MOL {
0 1

H	 2.465338	 -2.224223	 0.000000
O	 2.784187	 -1.332015	 0.000000
C	 1.765313	 -0.449364	 0.000000
C	 0.485506	 -0.951319	 0.214656
C	 1.953554	 0.904095	 -0.202112
H	 0.365302	 -2.007026	 0.369230
C	 -0.598506	 -0.098177	 0.226109
H	 2.928281	 1.317991	 -0.369809
C	 0.842925	 1.732348	 -0.184269
H	 -1.583040	 -0.494213	 0.392558
C	 -0.435386	 1.266001	 0.025469
N	 1.047622	 3.163307	 -0.398609
H	 -1.266465	 1.940297	 0.031555
O	 2.165699	 3.542357	 -0.578213
O	 0.086549	 3.869223	 -0.381729

	symmetry c1
}
set optking {
	frozen_dihedral = ("
		4 3 2 1
	")
}

ee = optimize('scf')
oeprop('DIPOLE', 'QUADRUPOLE', 'MULLIKEN_CHARGES')
f=open( 'psi4out.xyz', 'w' )
f.write( "15  " )
f.write( str(ee) + "\n" )
f.write( MOL.save_string_xyz() )
f.close()
--------------------------------------------------------------------------

    Molecular point group: c1
  Charge       = 0
  Multiplicity = 1
  Basis Set: 6-31G*
  Basis Set:
  @DF-RHF Final Energy:  -509.02421236295709
    Total Energy =                       -509.0242123629570870
    Molecular point group: c1
  Basis Set: 6-31G*
  Basis Set:
  Basis Set: 6-31G*
  Basis Set:
  @DF-RHF Final Energy:  -509.02650600132688
    Total Energy =                       -509.0265060013267657
  Basis Set: 6-31G*
  Basis Set:
  Basis Set: 6-31G*
  Basis Set:
  @DF-RHF Final Energy:  -509.02573856271425
    Total Energy =                       -509.0257385627137410
  Basis Set: 6-31G*
  Basis Set:
  Basis Set: 6-31G*
  Basis Set:
  @DF-RHF Final Energy:  -509.02610578237187
    Total Energy =                       -509.0261057823722695
  Basis Set: 6-31G*
  Basis Set:
  Basis Set: 6-31G*
  Basis Set:
  @DF-RHF Final Energy:  -509.02674835264077
    Total Energy =                       -509.0267483526404249
  Basis Set: 6-31G*
  Basis Set:
  Basis Set: 6-31G*
  Basis Set:
  @DF-RHF Final Energy:  -509.02675209049653
    Total Energy =                       -509.0267520904963021
  Basis Set: 6-31G*
  Basis Set:
  Charge       = 0
  Multiplicity = 1
  Basis Set: 6-31G*
  Basis Set:

    Orbital Energies (a.u.)
    -----------------------

    Doubly Occupied:

       1A    -20.615563     2A    -20.602220     3A    -20.601970
       4A    -15.856630     5A    -11.330596     6A    -11.309609
       7A    -11.268598     8A    -11.265999     9A    -11.263263
      10A    -11.262192    11A     -1.635667    12A     -1.436300
      13A     -1.418980    14A     -1.199810    15A     -1.094158
      16A     -1.047537    17A     -0.964447    18A     -0.863963
      19A     -0.848194    20A     -0.795247    21A     -0.734461
      22A     -0.732656    23A     -0.718248    24A     -0.710603
      25A     -0.678269    26A     -0.635356    27A     -0.617607
      28A     -0.594883    29A     -0.565734    30A     -0.537762
      31A     -0.514929    32A     -0.489926    33A     -0.487402
      34A     -0.451845    35A     -0.378728    36A     -0.342157

  @DF-RHF Final Energy:  -509.02675341107022

   => Energetics <=

    Nuclear Repulsion Energy =            503.3790803256760000
    One-Electron Energy =               -1693.0686497371343648
    Two-Electron Energy =                 680.6628160003886023
    DFT Exchange-Correlation Energy =       0.0000000000000000
    Empirical Dispersion Energy =           0.0000000000000000
    PCM Polarization Energy =               0.0000000000000000
    EFP Energy =                            0.0000000000000000
    Total Energy =                       -509.0267534110696488
    Molecular point group: c1
  Basis Set: 6-31G*
  Basis Set:

  -Total Gradient:
     Atom            X                  Y                   Z
    ------   -----------------  -----------------  -----------------
       1       -0.000011050656     0.000011189024    -0.000820360011
       2        0.000038419917     0.000037922451     0.001367300843
       3       -0.000111638727    -0.000076611808    -0.001161990478
       4        0.000076662178     0.000112207890     0.000603879874
       5       -0.000028165218    -0.000038316080     0.000007384237
       6        0.000010508234     0.000004540967     0.000000185661
       7        0.000023802637    -0.000050134117     0.000002737865
       8        0.000003024299    -0.000017848199     0.000002660601
       9       -0.000039113598    -0.000032237946     0.000004085899
      10       -0.000009043030     0.000013015333    -0.000000677113
      11        0.000051709998     0.000048523687    -0.000013831273
      12        0.000051908634     0.000005250736     0.000021117244
      13       -0.000004265068    -0.000017929712     0.000003343109
      14       -0.000048245843    -0.000018379033    -0.000003065445
      15       -0.000004513760     0.000018806809    -0.000012771012

  **** Optimization is complete! (in 7 steps) ****
    Final optimized geometry and variables:
    Molecular point group: c1

    Geometry (in Angstrom), charge = 0, multiplicity = 1:

    H            1.533112581782    -3.394257562168     0.134201849948
    O            1.775126886998    -2.478592308123     0.128224820041
    C            0.684258929582    -1.685592884364     0.138043178540
    C           -0.595664362078    -2.170670914312     0.356741658114
    C            0.888040047939    -0.328962823760    -0.063062832187
    H           -0.749631602471    -3.223546561815     0.519809093704
    C           -1.676907012267    -1.303385479398     0.367127705467
    H            1.874608719382     0.050836069969    -0.229965310852
    C           -0.208883958601     0.505585897226    -0.041715984386
    H           -2.664352403309    -1.691384350064     0.535365314581
    C           -1.499032444835     0.052174495450     0.168307989459
    N            0.006281596978     1.936578208201    -0.254834206462
    H           -2.321505691938     0.736621121187     0.175014746246
    O            1.125024578383     2.309191707721    -0.434370704591
    O           -0.952264406542     2.647235747290    -0.236535407945

  Mulliken Charges: (a.u.)
   Center  Symbol    Alpha    Beta     Spin     Total
       1     H     0.26861  0.26861  0.00000  0.46278
       2     O     4.37433  4.37433  0.00000 -0.74866
       3     C     2.79599  2.79599  0.00000  0.40801
       4     C     3.12842  3.12842  0.00000 -0.25685
       5     C     3.11323  3.11323  0.00000 -0.22646
       6     H     0.39378  0.39378  0.00000  0.21244
       7     C     3.09933  3.09933  0.00000 -0.19865
       8     H     0.35724  0.35724  0.00000  0.28551
       9     C     2.91266  2.91266  0.00000  0.17467
      10     H     0.38702  0.38702  0.00000  0.22597
      11     C     3.09797  3.09797  0.00000 -0.19595
      12     N     3.24119  3.24119  0.00000  0.51762
      13     H     0.36536  0.36536  0.00000  0.26929
      14     O     4.23195  4.23195  0.00000 -0.46391
      15     O     4.23291  4.23291  0.00000 -0.46582

   Total alpha = 36.00000, Total beta = 36.00000, Total charge = -0.00000
