  ==> Input File <==

--------------------------------------------------------------------------
set {
	reference rhf
	basis 6-31G*
}

set_num_threads( 1 )
memory 2 gb

molecule MOL {
0 1

H	 -3.405098	 -0.155568	 0.822633
C	 -3.304508	 -0.013952	 -0.260625
C	 -2.523864	 1.207712	 -0.673837
O	 -3.793412	 -0.793092	 -1.012731
C	 -1.151407	 1.287971	 0.008932
H	 -2.432298	 1.206057	 -1.753801
H	 -3.116247	 2.076819	 -0.390305
C	 -0.186377	 0.183260	 -0.428824
H	 -0.713952	 2.257224	 -0.211216
H	 -1.282848	 1.253752	 1.089353
C	 1.180775	 0.282413	 0.250794
H	 -0.059455	 0.228815	 -1.508483
H	 -0.621556	 -0.791807	 -0.218107
C	 2.148627	 -0.814315	 -0.201312
H	 1.605767	 1.261695	 0.045562
H	 1.051566	 0.224511	 1.330764
C	 3.580890	 -0.659131	 0.322722
H	 2.166869	 -0.852443	 -1.289387
H	 1.762857	 -1.776509	 0.128956
C	 4.324889	 0.564933	 -0.213704
H	 4.142010	 -1.551473	 0.056605
H	 3.564836	 -0.624694	 1.410140
H	 4.342616	 0.565491	 -1.300421
H	 3.866655	 1.493402	 0.110242
H	 5.353900	 0.572371	 0.132816

	symmetry c1
}
set optking {
	frozen_dihedral = ("
		6 3 5 8,
		6 3 2 4,
		3 5 8 12,
		12 8 11 14,
		20 17 14 18
	")
}

ee = energy('scf')
oeprop('DIPOLE', 'QUADRUPOLE', 'MULLIKEN_CHARGES')
f=open( 'psi4out.xyz', 'w' )
f.write( "25  " )
f.write( str(ee) + "\n" )
f.write( MOL.save_string_xyz() )
f.close()
--------------------------------------------------------------------------

    Molecular point group: c1

    Geometry (in Angstrom), charge = 0, multiplicity = 1:

       Center              X                  Y                   Z               Mass
    ------------   -----------------  -----------------  -----------------  -----------------
           H         -3.440264897493    -0.289903304304     1.073222298740     1.007825032070
           C         -3.339674897493    -0.148287304304    -0.010035701260    12.000000000000
           C         -2.559030897493     1.073376695696    -0.423247701260    12.000000000000
           O         -3.828578897493    -0.927427304304    -0.762141701260    15.994914619560
           C         -1.186573897493     1.153635695696     0.259521298740    12.000000000000
           H         -2.467464897493     1.071721695696    -1.503211701260     1.007825032070
           H         -3.151413897493     1.942483695696    -0.139715701260     1.007825032070
           C         -0.221543897493     0.048924695696    -0.178234701260    12.000000000000
           H         -0.749118897493     2.122888695696     0.039373298740     1.007825032070
           H         -1.318014897493     1.119416695696     1.339942298740     1.007825032070
           C          1.145608102507     0.148077695696     0.501383298740    12.000000000000
           H         -0.094621897493     0.094479695696    -1.257893701260     1.007825032070
           H         -0.656722897493    -0.926142304304     0.032482298740     1.007825032070
           C          2.113460102507    -0.948650304304     0.049277298740    12.000000000000
           H          1.570600102507     1.127359695696     0.296151298740     1.007825032070
           H          1.016399102507     0.090175695696     1.581353298740     1.007825032070
           C          3.545723102507    -0.793466304304     0.573311298740    12.000000000000
           H          2.131702102507    -0.986778304304    -1.038797701260     1.007825032070
           H          1.727690102507    -1.910844304304     0.379545298740     1.007825032070
           C          4.289722102507     0.430597695696     0.036885298740    12.000000000000
           H          4.106843102507    -1.685808304304     0.307194298740     1.007825032070
           H          3.529669102507    -0.759029304304     1.660729298740     1.007825032070
           H          4.307449102507     0.431155695696    -1.049831701260     1.007825032070
           H          3.831488102507     1.359066695696     0.360831298740     1.007825032070
           H          5.318733102507     0.438035695696     0.383405298740     1.007825032070

  Charge       = 0
  Multiplicity = 1
  Basis Set: 6-31G*
  Basis Set:

    Orbital Energies (a.u.)
    -----------------------

    Doubly Occupied:

       1A    -20.561976     2A    -11.326127     3A    -11.235296
       4A    -11.234607     5A    -11.223908     6A    -11.219705
       7A    -11.218100     8A    -11.216970     9A    -11.210806
      10A     -1.401956    11A     -1.104008    12A     -1.069780
      13A     -1.013340    14A     -0.942567    15A     -0.875385
      16A     -0.820526    17A     -0.788114    18A     -0.781310
      19A     -0.664270    20A     -0.662259    21A     -0.632213
      22A     -0.626610    23A     -0.602382    24A     -0.594316
      25A     -0.575396    26A     -0.548946    27A     -0.537041
      28A     -0.524210    29A     -0.508008    30A     -0.495472
      31A     -0.491699    32A     -0.479641    33A     -0.464906
      34A     -0.458469    35A     -0.441148    36A     -0.409526

  @DF-RHF Final Energy:  -387.12163770370012

   => Energetics <=

    Nuclear Repulsion Energy =            439.4748301518538938
    One-Electron Energy =               -1395.2708902125530130
    Two-Electron Energy =                 568.6744223569993437
    DFT Exchange-Correlation Energy =       0.0000000000000000
    Empirical Dispersion Energy =           0.0000000000000000
    PCM Polarization Energy =               0.0000000000000000
    EFP Energy =                            0.0000000000000000
    Total Energy =                       -387.1216377036997756

  Mulliken Charges: (a.u.)
   Center  Symbol    Alpha    Beta     Spin     Total
       1     H     0.43261  0.43261  0.00000  0.13478
       2     C     2.83083  2.83083  0.00000  0.33834
       3     C     3.20813  3.20813  0.00000 -0.41626
       4     O     4.23776  4.23776  0.00000 -0.47552
       5     C     3.16657  3.16657  0.00000 -0.33314
       6     H     0.39970  0.39970  0.00000  0.20059
       7     H     0.40670  0.40670  0.00000  0.18660
       8     C     3.15482  3.15482  0.00000 -0.30963
       9     H     0.41285  0.41285  0.00000  0.17430
      10     H     0.41965  0.41965  0.00000  0.16070
      11     C     3.15445  3.15445  0.00000 -0.30890
      12     H     0.41796  0.41796  0.00000  0.16409
      13     H     0.41844  0.41844  0.00000  0.16312
      14     C     3.15321  3.15321  0.00000 -0.30642
      15     H     0.42096  0.42096  0.00000  0.15807
      16     H     0.42330  0.42330  0.00000  0.15341
      17     C     3.15283  3.15283  0.00000 -0.30566
      18     H     0.42309  0.42309  0.00000  0.15381
      19     H     0.42046  0.42046  0.00000  0.15908
      20     C     3.24134  3.24134  0.00000 -0.48267
      21     H     0.41986  0.41986  0.00000  0.16027
      22     H     0.42331  0.42331  0.00000  0.15337
      23     H     0.42180  0.42180  0.00000  0.15639
      24     H     0.42087  0.42087  0.00000  0.15827
      25     H     0.41851  0.41851  0.00000  0.16299

   Total alpha = 36.00000, Total beta = 36.00000, Total charge = -0.00000
