  ==> Input File <==

--------------------------------------------------------------------------
set {
	reference rhf
	basis cc-pvtz
}

set_num_threads( 4 )
memory 2 gb

molecule MOL {
0 1

H	 -2.498963	 -0.741158	 -0.729149
O	 -2.346257	 -0.289210	 0.080372
C	 -1.183935	 0.486039	 -0.009831
C	 0.062853	 -0.375310	 0.027457
H	 -1.178881	 1.094526	 -0.908634
H	 -1.184406	 1.155156	 0.838676
O	 0.136294	 -0.983804	 1.274771
H	 0.946070	 0.240484	 -0.150368
H	 0.016481	 -1.116526	 -0.767543
C	 1.222645	 -1.834268	 1.441427
H	 2.164769	 -1.302413	 1.328267
H	 1.172207	 -2.244098	 2.439516
H	 1.200730	 -2.651853	 0.724771

	symmetry c1
}
set optking {
	frozen_dihedral = ("
		8 4 3 5
	")
}

ee = optimize('scf')
oeprop('DIPOLE', 'QUADRUPOLE', 'MULLIKEN_CHARGES')
f=open( 'psi4out.xyz', 'w' )
f.write( "13  " )
f.write( str(ee) + "\n" )
f.write( MOL.save_string_xyz() )
f.close()
--------------------------------------------------------------------------

    Molecular point group: c1
  Charge       = 0
  Multiplicity = 1
  Basis Set: CC-PVTZ
  Basis Set:
  @DF-RHF Final Energy:  -268.05990611304321
    Total Energy =                       -268.0599061130430982
    Molecular point group: c1
  Basis Set: CC-PVTZ
  Basis Set:
  Basis Set: CC-PVTZ
  Basis Set:
  @DF-RHF Final Energy:  -268.06031090697815
    Total Energy =                       -268.0603109069783159
  Basis Set: CC-PVTZ
  Basis Set:
  Basis Set: CC-PVTZ
  Basis Set:
  @DF-RHF Final Energy:  -268.06040350651267
    Total Energy =                       -268.0604035065129551
  Basis Set: CC-PVTZ
  Basis Set:
  Basis Set: CC-PVTZ
  Basis Set:
  @DF-RHF Final Energy:  -268.06043301391435
    Total Energy =                       -268.0604330139143485
  Basis Set: CC-PVTZ
  Basis Set:
  Basis Set: CC-PVTZ
  Basis Set:
  @DF-RHF Final Energy:  -268.06043749110972
    Total Energy =                       -268.0604374911096670
  Basis Set: CC-PVTZ
  Basis Set:
  Charge       = 0
  Multiplicity = 1
  Basis Set: CC-PVTZ
  Basis Set:

    Orbital Energies (a.u.)
    -----------------------

    Doubly Occupied:

       1A    -20.552732     2A    -20.546605     3A    -11.272924
       4A    -11.268996     5A    -11.266077     6A     -1.391954
       7A     -1.362772     8A     -1.021189     9A     -0.917807
      10A     -0.841194    11A     -0.698986    12A     -0.681558
      13A     -0.665037    14A     -0.631575    15A     -0.607045
      16A     -0.568183    17A     -0.537571    18A     -0.503567
      19A     -0.472844    20A     -0.439949    21A     -0.423355

  @DF-RHF Final Energy:  -268.06043762400748

   => Energetics <=

    Nuclear Repulsion Energy =            193.2665462135073540
    One-Electron Energy =                -749.3101254819766837
    Two-Electron Energy =                 287.9831416444617389
    DFT Exchange-Correlation Energy =       0.0000000000000000
    Empirical Dispersion Energy =           0.0000000000000000
    PCM Polarization Energy =               0.0000000000000000
    EFP Energy =                            0.0000000000000000
    Total Energy =                       -268.0604376240075908
    Molecular point group: c1
  Basis Set: CC-PVTZ
  Basis Set:

  -Total Gradient:
     Atom            X                  Y                   Z
    ------   -----------------  -----------------  -----------------
       1        0.000014659520     0.000016584835     0.000006800284
       2        0.000025030431     0.000018757229     0.000029399200
       3        0.000127786660     0.000217735330     0.000172633785
       4       -0.000062446926    -0.000103035393    -0.000327657644
       5       -0.000130225922    -0.000179047491    -0.000145853113
       6       -0.000008893750    -0.000015953843    -0.000000269645
       7        0.000025799017    -0.000008053410    -0.000027845996
       8        0.000024404261     0.000050679021     0.000272405185
       9       -0.000006613243     0.000007824863    -0.000002755973
      10       -0.000018930717    -0.000002378045     0.000025954637
      11       -0.000001073744     0.000003011556    -0.000003529158
      12        0.000010527812    -0.000009052745     0.000002895569
      13       -0.000000023404     0.000002928092    -0.000002177130

  **** Optimization is complete! (in 6 steps) ****
    Final optimized geometry and variables:
    Molecular point group: c1

    Geometry (in Angstrom), charge = 0, multiplicity = 1:

    H           -1.988102879684    -0.228660019473    -1.211015003990
    O           -1.933423947452     0.381231651397    -0.497861243205
    C           -0.736476596897     1.097884424182    -0.565735831620
    C            0.500930703032     0.230182811222    -0.501007583697
    H           -0.690538771691     1.691556668240    -1.476719540349
    H           -0.739259950990     1.776615346646     0.275471991920
    O            0.582084744777    -0.394342283221     0.735194564748
    H            1.376527541092     0.857918165799    -0.670041589030
    H            0.475988548253    -0.512127760128    -1.301732963994
    C            1.673119989139    -1.240639977064     0.883154280500
    H            2.613193414950    -0.704624888374     0.768518637954
    H            1.632023899730    -1.662022031035     1.876733894333
    H            1.649953514946    -2.051561627805     0.158096908168

  Mulliken Charges: (a.u.)
   Center  Symbol    Alpha    Beta     Spin     Total
       1     H     0.39658  0.39658  0.00000  0.20685
       2     O     4.19638  4.19638  0.00000 -0.39275
       3     C     2.96363  2.96363  0.00000  0.07274
       4     C     2.96961  2.96961  0.00000  0.06078
       5     H     0.47428  0.47428  0.00000  0.05145
       6     H     0.45529  0.45529  0.00000  0.08942
       7     O     4.16669  4.16669  0.00000 -0.33338
       8     H     0.47451  0.47451  0.00000  0.05098
       9     H     0.48214  0.48214  0.00000  0.03573
      10     C     3.03123  3.03123  0.00000 -0.06246
      11     H     0.47222  0.47222  0.00000  0.05555
      12     H     0.44527  0.44527  0.00000  0.10947
      13     H     0.47219  0.47219  0.00000  0.05563

   Total alpha = 21.00000, Total beta = 21.00000, Total charge = -0.00000
