  ==> Input File <==

--------------------------------------------------------------------------
set {
	reference rhf
	basis cc-pvtz
}

set_num_threads( 4 )
memory 2 gb

molecule MOL {
0 1

H	 -0.000342	 -0.223902	 -3.352295
C	 -0.027146	 0.371068	 -2.446756
C	 0.024493	 -0.518541	 -1.216015
H	 -0.932586	 0.964979	 -2.449855
H	 0.819708	 1.049865	 -2.473332
N	 -0.042516	 0.263377	 -0.000000
H	 -0.822211	 -1.197105	 -1.225584
H	 0.921114	 -1.142847	 -1.255206
C	 0.024493	 -0.518541	 1.216015
H	 0.682568	 0.950412	 -0.000000
C	 -1.094508	 -0.145063	 2.173692
H	 -0.065609	 -1.565845	 0.946785
H	 0.987756	 -0.411420	 1.721853
H	 -2.060367	 -0.288907	 1.705732
H	 -1.050805	 -0.751558	 3.070889
H	 -1.019098	 0.895155	 2.475179

	symmetry c1
}
set optking {
	frozen_dihedral = ("
		12 9 6 3
	")
}

ee = optimize('scf')
oeprop('DIPOLE', 'QUADRUPOLE', 'MULLIKEN_CHARGES')
f=open( 'psi4out.xyz', 'w' )
f.write( "16  " )
f.write( str(ee) + "\n" )
f.write( MOL.save_string_xyz() )
f.close()
--------------------------------------------------------------------------

    Molecular point group: c1
  Charge       = 0
  Multiplicity = 1
  Basis Set: CC-PVTZ
  Basis Set:
  @DF-RHF Final Energy:  -212.38988080003219
    Total Energy =                       -212.3898808000321878
    Molecular point group: c1
  Basis Set: CC-PVTZ
  Basis Set:
  Basis Set: CC-PVTZ
  Basis Set:
  @DF-RHF Final Energy:  -212.39029071724022
    Total Energy =                       -212.3902907172405321
  Basis Set: CC-PVTZ
  Basis Set:
  Basis Set: CC-PVTZ
  Basis Set:
  @DF-RHF Final Energy:  -212.39040173927955
    Total Energy =                       -212.3904017392793548
  Basis Set: CC-PVTZ
  Basis Set:
  Basis Set: CC-PVTZ
  Basis Set:
  @DF-RHF Final Energy:  -212.39040522022955
    Total Energy =                       -212.3904052202295816
  Basis Set: CC-PVTZ
  Basis Set:
  Charge       = 0
  Multiplicity = 1
  Basis Set: CC-PVTZ
  Basis Set:

    Orbital Energies (a.u.)
    -----------------------

    Doubly Occupied:

       1A    -15.526158     2A    -11.239947     3A    -11.239257
       4A    -11.206412     5A    -11.200199     6A     -1.202830
       7A     -1.026773     8A     -0.963983     9A     -0.835963
      10A     -0.815752    11A     -0.664660    12A     -0.626484
      13A     -0.608345    14A     -0.566247    15A     -0.560546
      16A     -0.525109    17A     -0.505894    18A     -0.490051
      19A     -0.484027    20A     -0.471572    21A     -0.356170

  @DF-RHF Final Energy:  -212.39040578280301

   => Energetics <=

    Nuclear Repulsion Energy =            189.3675169266889213
    One-Electron Energy =                -661.2830854989203999
    Two-Electron Energy =                 259.5251627894286344
    DFT Exchange-Correlation Energy =       0.0000000000000000
    Empirical Dispersion Energy =           0.0000000000000000
    PCM Polarization Energy =               0.0000000000000000
    EFP Energy =                            0.0000000000000000
    Total Energy =                       -212.3904057828028158
    Molecular point group: c1
  Basis Set: CC-PVTZ
  Basis Set:

  -Total Gradient:
     Atom            X                  Y                   Z
    ------   -----------------  -----------------  -----------------
       1        0.000002662582     0.000006895255    -0.000014897730
       2        0.000004181768    -0.000007109768    -0.000007380880
       3       -0.001360478770    -0.000129326465     0.000009183815
       4        0.000004329004    -0.000011979243     0.000009722954
       5        0.000001618182    -0.000003891008     0.000003389340
       6        0.002321679664     0.000178587619    -0.000046272048
       7        0.000004065038    -0.000002205821    -0.000002822261
       8       -0.000008099412     0.000017433748    -0.000001170457
       9       -0.002709087139     0.000070559737     0.000213543047
      10        0.000015061312     0.000011491172     0.000003512176
      11        0.000024498654    -0.000001480779    -0.000005847286
      12        0.001690914756    -0.000119841911    -0.000146714486
      13        0.000002062351     0.000005874595     0.000004792487
      14        0.000008942363    -0.000003219749    -0.000002150672
      15       -0.000009104262     0.000001480950    -0.000002664075
      16        0.000006753908    -0.000013268332    -0.000014223928

  **** Optimization is complete! (in 5 steps) ****
    Final optimized geometry and variables:
    Molecular point group: c1

    Geometry (in Angstrom), charge = 0, multiplicity = 1:

    H            0.232160933984    -0.084132645187    -3.309918980685
    C            0.197259322742     0.494182148553    -2.393886435448
    C            0.257600723078    -0.416853730567    -1.179520562243
    H           -0.714778423024     1.077970567727    -2.387064581871
    H            1.036640732610     1.182675570849    -2.406926043585
    N            0.177227677935     0.346390412796     0.047503955717
    H           -0.581680273624    -1.103531274420    -1.204259213079
    H            1.161545782145    -1.029333756907    -1.232995192734
    C            0.225042234971    -0.423917884282     1.281828456727
    H            0.863750858451     1.067878713466     0.052889119537
    C           -0.875457832024    -0.021417289879     2.252049589600
    H            0.137827210116    -1.478792923245     1.044907508672
    H            1.191807517464    -0.314933950961     1.769981489202
    H           -1.850395530582    -0.171048870082     1.803947516499
    H           -0.821407602674    -0.604787886798     3.165849778572
    H           -0.789488192660     1.026960130793     2.514216451539

  Mulliken Charges: (a.u.)
   Center  Symbol    Alpha    Beta     Spin     Total
       1     H     0.45418  0.45418  0.00000  0.09164
       2     C     3.14410  3.14410  0.00000 -0.28820
       3     C     3.02075  3.02075  0.00000 -0.04150
       4     H     0.44973  0.44973  0.00000  0.10054
       5     H     0.45950  0.45950  0.00000  0.08100
       6     N     3.64341  3.64341  0.00000 -0.28682
       7     H     0.45930  0.45930  0.00000  0.08141
       8     H     0.47349  0.47349  0.00000  0.05302
       9     C     3.03599  3.03599  0.00000 -0.07198
      10     H     0.44199  0.44199  0.00000  0.11603
      11     C     3.12729  3.12729  0.00000 -0.25457
      12     H     0.45819  0.45819  0.00000  0.08362
      13     H     0.45939  0.45939  0.00000  0.08122
      14     H     0.45511  0.45511  0.00000  0.08978
      15     H     0.46026  0.46026  0.00000  0.07948
      16     H     0.45733  0.45733  0.00000  0.08534

   Total alpha = 21.00000, Total beta = 21.00000, Total charge =  0.00000
