  ==> Input File <==

--------------------------------------------------------------------------
set {
	reference rhf
	basis cc-pvtz
}

set_num_threads( 4 )
memory 2 gb

molecule MOL {
0 1

H	 -0.190357	 -0.883413	 -2.513343
C	 -0.692451	 -0.001924	 -2.127959
O	 -0.775228	 0.000056	 -0.739966
H	 -1.707029	 -0.003154	 -2.500494
H	 -0.191562	 0.879160	 -2.515818
C	 0.406133	 -0.000384	 0.036994
C	 1.526415	 -0.003194	 -0.997339
C	 0.498772	 1.259027	 0.900673
C	 0.495883	 -1.257378	 0.904465
H	 1.452279	 0.872071	 -1.630204
H	 1.451276	 -0.881020	 -1.626529
H	 2.497919	 -0.002741	 -0.517601
H	 0.368981	 2.144239	 0.289753
H	 1.470064	 1.313479	 1.377660
H	 -0.248448	 1.271586	 1.684297
H	 0.363971	 -2.144195	 0.296316
H	 1.467114	 -1.312636	 1.381470
H	 -0.251246	 -1.265768	 1.688235

	symmetry c1
}
set optking {
	frozen_dihedral = ("
		2 3 6 7
	")
}

ee = optimize('scf')
oeprop('DIPOLE', 'QUADRUPOLE', 'MULLIKEN_CHARGES')
f=open( 'psi4out.xyz', 'w' )
f.write( "18  " )
f.write( str(ee) + "\n" )
f.write( MOL.save_string_xyz() )
f.close()
--------------------------------------------------------------------------

    Molecular point group: c1
  Charge       = 0
  Multiplicity = 1
  Basis Set: CC-PVTZ
  Basis Set:
  @DF-RHF Final Energy:  -271.25644986949527
    Total Energy =                       -271.2564498694952704
    Molecular point group: c1
  Basis Set: CC-PVTZ
  Basis Set:
  Basis Set: CC-PVTZ
  Basis Set:
  @DF-RHF Final Energy:  -271.26284589530997
    Total Energy =                       -271.2628458953099653
  Basis Set: CC-PVTZ
  Basis Set:
  Basis Set: CC-PVTZ
  Basis Set:
  @DF-RHF Final Energy:  -271.26892191095232
    Total Energy =                       -271.2689219109524288
  Basis Set: CC-PVTZ
  Basis Set:
  Basis Set: CC-PVTZ
  Basis Set:
  @DF-RHF Final Energy:  -271.27167568438045
    Total Energy =                       -271.2716756843798862
  Basis Set: CC-PVTZ
  Basis Set:
  @DF-RHF Final Energy:  -271.27212263984069
    Total Energy =                       -271.2721226398404042
  Basis Set: CC-PVTZ
  Basis Set:
  @DF-RHF Final Energy:  -271.27218791080298
    Total Energy =                       -271.2721879108029270
  Basis Set: CC-PVTZ
  Basis Set:
  Basis Set: CC-PVTZ
  Basis Set:
  @DF-RHF Final Energy:  -271.27228747210171
    Total Energy =                       -271.2722874721014819
  Basis Set: CC-PVTZ
  Basis Set:
  Basis Set: CC-PVTZ
  Basis Set:
  @DF-RHF Final Energy:  -271.27229453388708
    Total Energy =                       -271.2722945338867362
  Basis Set: CC-PVTZ
  Basis Set:
  Charge       = 0
  Multiplicity = 1
  Basis Set: CC-PVTZ
  Basis Set:

    Orbital Energies (a.u.)
    -----------------------

    Doubly Occupied:

       1A    -20.536979     2A    -11.280751     3A    -11.259535
       4A    -11.211727     5A    -11.202133     6A    -11.202119
       7A     -1.369171     8A     -1.075578     9A     -0.951511
      10A     -0.935476    11A     -0.912249    12A     -0.752156
      13A     -0.657572    14A     -0.648137    15A     -0.638398
      16A     -0.581868    17A     -0.578625    18A     -0.547460
      19A     -0.544535    20A     -0.526993    21A     -0.515305
      22A     -0.491460    23A     -0.483905    24A     -0.443313
      25A     -0.398524

  @DF-RHF Final Energy:  -271.27229527004499

   => Energetics <=

    Nuclear Repulsion Energy =            271.9854992359993275
    One-Electron Energy =                -907.0246283464530279
    Two-Electron Energy =                 363.7668338404083670
    DFT Exchange-Correlation Energy =       0.0000000000000000
    Empirical Dispersion Energy =           0.0000000000000000
    PCM Polarization Energy =               0.0000000000000000
    EFP Energy =                            0.0000000000000000
    Total Energy =                       -271.2722952700453334
    Molecular point group: c1
  Basis Set: CC-PVTZ
  Basis Set:

  -Total Gradient:
     Atom            X                  Y                   Z
    ------   -----------------  -----------------  -----------------
       1        0.000002431952     0.000003761922    -0.000001915841
       2       -0.000009357095     0.000000661852     0.000005216576
       3        0.000036815697     0.000001106950     0.000051599769
       4        0.000001205459    -0.000000052452    -0.000012240558
       5        0.000001544620    -0.000004537216    -0.000002142978
       6       -0.000006093127    -0.000001244494    -0.000047968394
       7        0.000019558729     0.000000331820     0.000004506411
       8       -0.000018533599     0.000011268894     0.000001252930
       9       -0.000019467910    -0.000010714097     0.000001722106
      10        0.000004996437     0.000003570403    -0.000003175494
      11        0.000004781202    -0.000004750348    -0.000003695820
      12       -0.000015933467     0.000000376972    -0.000012484987
      13       -0.000000131087     0.000002806399     0.000006620062
      14       -0.000000110424    -0.000000772118    -0.000003386349
      15        0.000000106723     0.000008706602     0.000005972184
      16        0.000000963263    -0.000000695065     0.000005668212
      17       -0.000001408288     0.000001782486    -0.000002023023
      18       -0.000001369087    -0.000011608509     0.000006475194

  **** Optimization is complete! (in 9 steps) ****
    Final optimized geometry and variables:
    Molecular point group: c1

    Geometry (in Angstrom), charge = 0, multiplicity = 1:

    H           -0.664297383630    -0.883975586471    -2.169860487446
    C           -1.108746584717    -0.001303633175    -1.720576683216
    O           -1.014399037707     0.000600067967    -0.334421805788
    H           -2.163663588142    -0.000551155129    -1.956394811989
    H           -0.662471277790     0.879142261590    -2.172409807034
    C            0.235197931752     0.000244137243     0.342055183222
    C            1.449544372992    -0.002407206712    -0.587382882297
    C            0.250867290604     1.256108782315     1.210596426759
    C            0.248176185332    -1.253125609848     1.214236642117
    H            1.478757348754     0.875587290205    -1.219698237386
    H            1.476856566218    -0.882282809264    -1.217165048033
    H            2.349928687168    -0.002512843373     0.013941518157
    H            0.223467982149     2.145008079601     0.591104218740
    H            1.141256054389     1.296577873149     1.828058592235
    H           -0.617763449811     1.270403480621     1.856374421538
    H            0.219233970584    -2.143755792012     0.597307233796
    H            1.138305077989    -1.293533550101     1.832077236231
    H           -0.620668662808    -1.263873451947     1.859796663750

  Mulliken Charges: (a.u.)
   Center  Symbol    Alpha    Beta     Spin     Total
       1     H     0.46953  0.46953  0.00000  0.06094
       2     C     3.04057  3.04057  0.00000 -0.08115
       3     O     4.20019  4.20019  0.00000 -0.40038
       4     H     0.44257  0.44257  0.00000  0.11485
       5     H     0.46953  0.46953  0.00000  0.06094
       6     C     2.86999  2.86999  0.00000  0.26003
       7     C     3.17707  3.17707  0.00000 -0.35414
       8     C     3.14133  3.14133  0.00000 -0.28266
       9     C     3.14134  3.14134  0.00000 -0.28267
      10     H     0.44476  0.44476  0.00000  0.11048
      11     H     0.44476  0.44476  0.00000  0.11047
      12     H     0.44217  0.44217  0.00000  0.11567
      13     H     0.45223  0.45223  0.00000  0.09554
      14     H     0.45799  0.45799  0.00000  0.08402
      15     H     0.44788  0.44788  0.00000  0.10425
      16     H     0.45223  0.45223  0.00000  0.09553
      17     H     0.45799  0.45799  0.00000  0.08402
      18     H     0.44787  0.44787  0.00000  0.10426

   Total alpha = 25.00000, Total beta = 25.00000, Total charge =  0.00000
