  ==> Input File <==

--------------------------------------------------------------------------
set {
	reference rhf
	basis 6-31G*
}

set_num_threads( 1 )
memory 2 gb

molecule MOL {
0 1

H	 3.276176	 0.174363	 -0.109463
N	 2.434251	 -0.367735	 -0.081097
C	 1.267428	 0.496480	 0.024474
H	 2.501951	 -0.965776	 0.720575
C	 -0.016086	 -0.325158	 -0.029487
H	 1.288818	 1.183521	 -0.816092
H	 1.267576	 1.109062	 0.929528
C	 -1.282277	 0.529072	 0.046735
H	 -0.012495	 -0.908639	 -0.945788
H	 -0.015903	 -1.041248	 0.791956
C	 -1.579708	 1.026180	 1.460991
H	 -2.129483	 -0.049231	 -0.316301
H	 -1.186683	 1.382366	 -0.621628
H	 -1.715644	 0.195331	 2.147236
H	 -2.483526	 1.627053	 1.485151
H	 -0.765775	 1.637383	 1.840682

	symmetry c1
}
set optking {
	frozen_dihedral = ("
		6 3 5 9,
		1 2 3 6
	")
}

ee = energy('scf')
oeprop('DIPOLE', 'QUADRUPOLE', 'MULLIKEN_CHARGES')
f=open( 'psi4out.xyz', 'w' )
f.write( "16  " )
f.write( str(ee) + "\n" )
f.write( MOL.save_string_xyz() )
f.close()
--------------------------------------------------------------------------

    Molecular point group: c1

    Geometry (in Angstrom), charge = 0, multiplicity = 1:

       Center              X                  Y                   Z               Mass
    ------------   -----------------  -----------------  -----------------  -----------------
           H          3.073895788110    -0.098559125146    -0.411050286049     1.007825032070
           N          2.231970788110    -0.640657125146    -0.382684286049    14.003074004780
           C          1.065147788110     0.223557874854    -0.277113286049    12.000000000000
           H          2.299670788110    -1.238698125146     0.418987713951     1.007825032070
           C         -0.218366211890    -0.598080125146    -0.331074286049    12.000000000000
           H          1.086537788110     0.910598874854    -1.117679286049     1.007825032070
           H          1.065295788110     0.836139874854     0.627940713951     1.007825032070
           C         -1.484557211890     0.256149874854    -0.254852286049    12.000000000000
           H         -0.214775211890    -1.181561125146    -1.247375286049     1.007825032070
           H         -0.218183211890    -1.314170125146     0.490368713951     1.007825032070
           C         -1.781988211890     0.753257874854     1.159403713951    12.000000000000
           H         -2.331763211890    -0.322153125146    -0.617888286049     1.007825032070
           H         -1.388963211890     1.109443874854    -0.923215286049     1.007825032070
           H         -1.917924211890    -0.077591125146     1.845648713951     1.007825032070
           H         -2.685806211890     1.354130874854     1.183563713951     1.007825032070
           H         -0.968055211890     1.364460874854     1.539094713951     1.007825032070

  Charge       = 0
  Multiplicity = 1
  Basis Set: 6-31G*
  Basis Set:

    Orbital Energies (a.u.)
    -----------------------

    Doubly Occupied:

       1A    -15.532569     2A    -11.239618     3A    -11.214883
       4A    -11.209310     5A    -11.208502     6A     -1.176754
       7A     -1.060672     8A     -0.955219     9A     -0.854844
      10A     -0.783943    11A     -0.657526    12A     -0.637417
      13A     -0.618676    14A     -0.569844    15A     -0.562868
      16A     -0.532577    17A     -0.500306    18A     -0.468538
      19A     -0.463698    20A     -0.462022    21A     -0.380092

  @DF-RHF Final Energy:  -212.31470847478792

   => Energetics <=

    Nuclear Repulsion Energy =            188.8670730222908389
    One-Electron Energy =                -660.1836589479614759
    Two-Electron Energy =                 259.0018774508826027
    DFT Exchange-Correlation Energy =       0.0000000000000000
    Empirical Dispersion Energy =           0.0000000000000000
    PCM Polarization Energy =               0.0000000000000000
    EFP Energy =                            0.0000000000000000
    Total Energy =                       -212.3147084747880626

  Mulliken Charges: (a.u.)
   Center  Symbol    Alpha    Beta     Spin     Total
       1     H     0.33254  0.33254  0.00000  0.33493
       2     N     3.92164  3.92164  0.00000 -0.84327
       3     C     3.06193  3.06193  0.00000 -0.12385
       4     H     0.33533  0.33533  0.00000  0.32935
       5     C     3.15258  3.15258  0.00000 -0.30516
       6     H     0.42077  0.42077  0.00000  0.15846
       7     H     0.43340  0.43340  0.00000  0.13319
       8     C     3.15787  3.15787  0.00000 -0.31573
       9     H     0.41126  0.41126  0.00000  0.17748
      10     H     0.42771  0.42771  0.00000  0.14458
      11     C     3.24080  3.24080  0.00000 -0.48159
      12     H     0.41896  0.41896  0.00000  0.16209
      13     H     0.42268  0.42268  0.00000  0.15465
      14     H     0.42178  0.42178  0.00000  0.15645
      15     H     0.41910  0.41910  0.00000  0.16181
      16     H     0.42169  0.42169  0.00000  0.15663

   Total alpha = 21.00000, Total beta = 21.00000, Total charge = -0.00000
