                              Psi4 1.0.54 Driver

  ==> Input File <==

--------------------------------------------------------------------------
set {
	reference rhf
	basis cc-pvtz
}

set_num_threads( 4 )
memory 2 gb

molecule MOL {
0 1

H	 2.228751	 -1.070236	 -0.896507
O	 2.012307	 -0.863440	 0.000222
C	 1.050374	 0.054877	 0.000135
C	 -0.318151	 -0.570512	 0.000144
O	 1.286319	 1.213453	 -0.000040
C	 -1.454884	 0.441630	 -0.000560
H	 -0.371613	 -1.223646	 -0.864985
H	 -0.371920	 -1.222758	 0.865929
C	 -2.822577	 -0.232186	 0.000063
H	 -1.359760	 1.084704	 -0.867077
H	 -1.359641	 1.085996	 0.864983
H	 -2.954352	 -0.858985	 -0.875745
H	 -3.615886	 0.505352	 0.000019
H	 -2.953878	 -0.858359	 0.876394

	symmetry c1
}
set optking {
	frozen_dihedral = ("
		1 2 3 5
	")
}

ee,wfn = optimize('scf', return_wfn=True)
oeprop( wfn, 'DIPOLE', 'QUADRUPOLE', 'MULLIKEN_CHARGES')
f=open( 'psi4out.xyz', 'w' )
f.write( "14  " )
f.write( str(ee) + "\n" )
f.write( MOL.save_string_xyz() )
f.close()
--------------------------------------------------------------------------

    Molecular point group: c1
  Charge       = 0
  Multiplicity = 1
  Basis Set: CC-PVTZ
  Basis Set:
  @DF-RHF Final Energy:  -305.97963885719025
    Total Energy =                       -305.9796388571903663
    Molecular point group: c1
  Basis Set: CC-PVTZ
  Basis Set:
  Basis Set: CC-PVTZ
  Basis Set:
  @DF-RHF Final Energy:  -305.98003641294559
    Total Energy =                       -305.9800364129453101
  Basis Set: CC-PVTZ
  Basis Set:
  Basis Set: CC-PVTZ
  Basis Set:
  @DF-RHF Final Energy:  -305.98103901468960
    Total Energy =                       -305.9810390146897134
  Basis Set: CC-PVTZ
  Basis Set:
  Basis Set: CC-PVTZ
  Basis Set:
  @DF-RHF Final Energy:  -305.98131762777655
    Total Energy =                       -305.9813176277764342
  Basis Set: CC-PVTZ
  Basis Set:
  Basis Set: CC-PVTZ
  Basis Set:
  @DF-RHF Final Energy:  -305.98132624277582
    Total Energy =                       -305.9813262427760492
  Basis Set: CC-PVTZ
  Basis Set:
  Charge       = 0
  Multiplicity = 1
  Basis Set: CC-PVTZ
  Basis Set:

    Orbital Energies (a.u.)
    -----------------------

    Doubly Occupied:

       1A    -20.586062     2A    -20.551228     3A    -11.374630
       4A    -11.242158     5A    -11.225544     6A    -11.217236
       7A     -1.463663     8A     -1.370817     9A     -1.084811
      10A     -0.978004    11A     -0.853501    12A     -0.800030
      13A     -0.714015    14A     -0.678701    15A     -0.665765
      16A     -0.632051    17A     -0.580246    18A     -0.560253
      19A     -0.544922    20A     -0.509695    21A     -0.499595
      22A     -0.484865    23A     -0.484521    24A     -0.447736

  @DF-RHF Final Energy:  -305.98133493283495

   => Energetics <=

    Nuclear Repulsion Energy =            239.6270242591653528
    One-Electron Energy =                -892.1166211057166038
    Two-Electron Energy =                 346.5082619137165238
    DFT Exchange-Correlation Energy =       0.0000000000000000
    Empirical Dispersion Energy =           0.0000000000000000
    PCM Polarization Energy =               0.0000000000000000
    EFP Energy =                            0.0000000000000000
    Total Energy =                       -305.9813349328346703
    Molecular point group: c1
  Basis Set: CC-PVTZ
  Basis Set:

  -Total Gradient:
     Atom            X                  Y                   Z
    ------   -----------------  -----------------  -----------------
       1       -0.001597032559    -0.001621393528    -0.000047454676
       2        0.001870100935     0.002096238654     0.000976488591
       3       -0.000044250831    -0.000468237490    -0.002889270392
       4        0.000014686573     0.000049620118    -0.000006171166
       5       -0.000212268237    -0.000051162158     0.001975406983
       6       -0.000006817860    -0.000004066135    -0.000012249589
       7       -0.000015757550     0.000001706845     0.000011558932
       8        0.000014261857    -0.000002880757     0.000002464858
       9       -0.000013350902     0.000010562067    -0.000001323012
      10       -0.000006504773     0.000005742154     0.000002189418
      11        0.000004489625    -0.000015626255    -0.000013469473
      12        0.000000632267     0.000002505533     0.000003799442
      13       -0.000010440799    -0.000004874973     0.000000310570
      14        0.000002252255     0.000001865925    -0.000002280485

  **** Optimization is complete! (in 6 steps) ****
    Final optimized geometry and variables:
    Molecular point group: c1

    Geometry (in Angstrom), charge = 0, multiplicity = 1:

    H            2.386352138048    -1.094528874087    -0.731717080052
    O            2.044194357832    -0.874927221121     0.118783166695
    C            1.053663525170     0.054626309989     0.042962669021
    C           -0.322370497075    -0.552563409252    -0.027036684918
    O            1.286438261484     1.203933584040     0.093370605208
    C           -1.454291301130     0.463812178469    -0.061708722414
    H           -0.348129225295    -1.198453461229    -0.901053437292
    H           -0.413035755069    -1.218003584667     0.825906144700
    C           -2.824599695092    -0.201862961212    -0.125238953887
    H           -1.321472188495     1.118489213153    -0.914892171100
    H           -1.390325518996     1.095830948099     0.815615162325
    H           -2.924415708087    -0.817031847422    -1.013571016356
    H           -3.613490186279     0.540008390151    -0.148071625155
    H           -2.994398959789    -0.838013235077     0.737075696830

  Mulliken Charges: (a.u.)
   Center  Symbol    Alpha    Beta     Spin     Total
       1     H     0.38824  0.38824  0.00000  0.22352
       2     O     4.17551  4.17551  0.00000 -0.35101
       3     C     2.80096  2.80096  0.00000  0.39809
       4     C     3.11013  3.11013  0.00000 -0.22025
       5     O     4.16102  4.16102  0.00000 -0.32205
       6     C     3.08070  3.08070  0.00000 -0.16140
       7     H     0.44867  0.44867  0.00000  0.10265
       8     H     0.43709  0.43709  0.00000  0.12582
       9     C     3.15020  3.15020  0.00000 -0.30040
      10     H     0.44717  0.44717  0.00000  0.10567
      11     H     0.44454  0.44454  0.00000  0.11092
      12     H     0.45622  0.45622  0.00000  0.08757
      13     H     0.44473  0.44473  0.00000  0.11054
      14     H     0.45483  0.45483  0.00000  0.09034

   Total alpha = 24.00000, Total beta = 24.00000, Total charge =  0.00000

*** Psi4 exiting successfully. Buy a developer a beer!
