  ==> Input File <==

--------------------------------------------------------------------------
set {
	reference rhf
	basis 6-31G*
}

set_num_threads( 4 )
memory 2 gb

molecule MOL {
0 1

O	 0.074228	 1.262779	 -0.000085
C	 0.028650	 0.075053	 -0.000277
C	 -1.233602	 -0.752807	 0.000328
O	 1.109162	 -0.694619	 -0.000298
C	 -2.501530	 0.091881	 0.000126
H	 -1.193807	 -1.406641	 -0.865785
H	 -1.193516	 -1.405779	 0.867015
H	 -2.545121	 0.729328	 -0.874513
H	 -3.377167	 -0.548497	 0.000561
H	 -2.544818	 0.730135	 0.874258
C	 1.760021	 -0.888536	 1.242428
H	 2.098753	 0.055179	 1.645013
H	 2.601729	 -1.531477	 1.037446
H	 1.093440	 -1.358481	 1.951154

	symmetry c1
}
set optking {
	frozen_dihedral = ("
		11 4 2 3
	")
}

ee = optimize('scf')
oeprop('DIPOLE', 'QUADRUPOLE', 'MULLIKEN_CHARGES')
f=open( 'psi4out.xyz', 'w' )
f.write( "14  " )
f.write( str(ee) + "\n" )
f.write( MOL.save_string_xyz() )
f.close()
--------------------------------------------------------------------------

    Molecular point group: c1
  Charge       = 0
  Multiplicity = 1
  Basis Set: 6-31G*
  Basis Set:
  @DF-RHF Final Energy:  -305.85216609526060
    Total Energy =                       -305.8521660952609409
    Molecular point group: c1
  Basis Set: 6-31G*
  Basis Set:
  Basis Set: 6-31G*
  Basis Set:
  @DF-RHF Final Energy:  -305.85287253864510
    Total Energy =                       -305.8528725386451015
  Basis Set: 6-31G*
  Basis Set:
  Basis Set: 6-31G*
  Basis Set:
  @DF-RHF Final Energy:  -305.85216527196690
    Total Energy =                       -305.8521652719666690
  Basis Set: 6-31G*
  Basis Set:
  Basis Set: 6-31G*
  Basis Set:
  @DF-RHF Final Energy:  -305.85315924094334
    Total Energy =                       -305.8531592409433415
  Basis Set: 6-31G*
  Basis Set:
  Basis Set: 6-31G*
  Basis Set:
  @DF-RHF Final Energy:  -305.85317169818325
    Total Energy =                       -305.8531716981832460
  Basis Set: 6-31G*
  Basis Set:
  Charge       = 0
  Multiplicity = 1
  Basis Set: 6-31G*
  Basis Set:

    Orbital Energies (a.u.)
    -----------------------

    Doubly Occupied:

       1A    -20.586137     2A    -20.558378     3A    -11.376070
       4A    -11.291353     5A    -11.242943     6A    -11.219515
       7A     -1.460390     8A     -1.367833     9A     -1.063286
      10A     -0.976220    11A     -0.890756    12A     -0.766282
      13A     -0.700481    14A     -0.677772    15A     -0.671708
      16A     -0.620628    17A     -0.616932    18A     -0.556363
      19A     -0.543942    20A     -0.524468    21A     -0.510432
      22A     -0.492607    23A     -0.455935    24A     -0.437628

  @DF-RHF Final Energy:  -305.85317240740983

   => Energetics <=

    Nuclear Repulsion Energy =            246.6670773564984529
    One-Electron Energy =                -905.8243862703213836
    Two-Electron Energy =                 353.3041365064132151
    DFT Exchange-Correlation Energy =       0.0000000000000000
    Empirical Dispersion Energy =           0.0000000000000000
    PCM Polarization Energy =               0.0000000000000000
    EFP Energy =                            0.0000000000000000
    Total Energy =                       -305.8531724074097156
    Molecular point group: c1
  Basis Set: 6-31G*
  Basis Set:

  -Total Gradient:
     Atom            X                  Y                   Z
    ------   -----------------  -----------------  -----------------
       1       -0.000010436655     0.000025883513    -0.000006279614
       2       -0.001036671831    -0.001599095849    -0.005081187809
       3        0.000052702380     0.000005714098     0.003789713780
       4        0.003344086880     0.004961348668     0.000593205586
       5       -0.000009548730    -0.000001967073    -0.000010782248
       6       -0.000006032751    -0.000005638623    -0.000001021261
       7        0.000003189057    -0.000011858902    -0.000004606102
       8        0.000001573213    -0.000001079902     0.000003120313
       9       -0.000005911958     0.000002246280     0.000000244365
      10        0.000001118296    -0.000002080061    -0.000000886585
      11       -0.002362948144    -0.003363692725     0.000716323528
      12        0.000007380769    -0.000007110559    -0.000007604543
      13        0.000003356860     0.000002396069    -0.000003271317
      14        0.000018142608    -0.000005064933     0.000013031909

  **** Optimization is complete! (in 6 steps) ****
    Final optimized geometry and variables:
    Molecular point group: c1

    Geometry (in Angstrom), charge = 0, multiplicity = 1:

    O            0.181008875402     1.399465041431    -0.195696583301
    C            0.126860057518     0.219093495398    -0.219157252206
    C           -1.146699885996    -0.590147750156    -0.218507145860
    O            1.240699515727    -0.548782510681    -0.231073722659
    C           -2.410153104328     0.260425984564    -0.239056586542
    H           -1.105962471990    -1.263142911344    -1.070192793406
    H           -1.117350205738    -1.230666839636     0.659789339947
    H           -2.443076478765     0.884201725066    -1.124116615018
    H           -3.290202434180    -0.373705782331    -0.235261547297
    H           -2.455325096664     0.913005972418     0.624424299423
    C            1.889006499439    -0.733885604265     1.009732911440
    H            2.180636357370     0.217866917239     1.434957864191
    H            2.767485974328    -1.327985969335     0.812084689805
    H            1.248511946061    -1.265040175998     1.706353255113

  Mulliken Charges: (a.u.)
   Center  Symbol    Alpha    Beta     Spin     Total
       1     O     4.25383  4.25383  0.00000 -0.50767
       2     C     2.61550  2.61550  0.00000  0.76900
       3     C     3.20878  3.20878  0.00000 -0.41755
       4     O     4.31557  4.31557  0.00000 -0.63113
       5     C     3.23958  3.23958  0.00000 -0.47915
       6     H     0.39807  0.39807  0.00000  0.20385
       7     H     0.40638  0.40638  0.00000  0.18725
       8     H     0.40866  0.40866  0.00000  0.18267
       9     H     0.41750  0.41750  0.00000  0.16500
      10     H     0.41020  0.41020  0.00000  0.17961
      11     C     3.09293  3.09293  0.00000 -0.18586
      12     H     0.40734  0.40734  0.00000  0.18533
      13     H     0.40293  0.40293  0.00000  0.19414
      14     H     0.42273  0.42273  0.00000  0.15454

   Total alpha = 24.00000, Total beta = 24.00000, Total charge =  0.00000
