  ==> Input File <==

--------------------------------------------------------------------------
set {
	reference rhf
	basis 6-31G*
}

set_num_threads( 4 )
memory 2 gb

molecule MOL {
0 1

O	 -2.787670	 0.111222	 0.766222
C	 -1.921153	 0.064240	 -0.045697
C	 -2.133378	 -0.109853	 -1.525224
O	 -0.632575	 0.154573	 0.251549
H	 -1.627631	 -1.006453	 -1.864749
H	 -3.190407	 -0.179772	 -1.734113
H	 -1.704219	 0.730789	 -2.058047
C	 0.160891	 -1.019931	 0.106212
C	 1.589627	 -0.672828	 0.480843
H	 0.089836	 -1.367806	 -0.916050
H	 -0.238459	 -1.792301	 0.749618
C	 2.246377	 0.346236	 -0.452210
H	 2.163194	 -1.597435	 0.473358
H	 1.604769	 -0.303424	 1.502885
C	 3.691736	 0.652107	 -0.061850
H	 2.219579	 -0.032311	 -1.472055
H	 1.666466	 1.263317	 -0.447249
H	 4.134505	 1.377213	 -0.737283
H	 4.305508	 -0.243868	 -0.089969
H	 3.748266	 1.059562	 0.943567

	symmetry c1
}
set optking {
	frozen_dihedral = ("
		1 2 4 8
	")
}

ee = optimize('scf')
oeprop('DIPOLE', 'QUADRUPOLE', 'MULLIKEN_CHARGES')
f=open( 'psi4out.xyz', 'w' )
f.write( "20  " )
f.write( str(ee) + "\n" )
f.write( MOL.save_string_xyz() )
f.close()
--------------------------------------------------------------------------

    Molecular point group: c1
  Charge       = 0
  Multiplicity = 1
  Basis Set: 6-31G*
  Basis Set:
  @DF-RHF Final Energy:  -383.92246528541995
    Total Energy =                       -383.9224652854198894
    Molecular point group: c1
  Basis Set: 6-31G*
  Basis Set:
  Basis Set: 6-31G*
  Basis Set:
  @DF-RHF Final Energy:  -383.92149725398366
    Total Energy =                       -383.9214972539841710
  Basis Set: 6-31G*
  Basis Set:
  Basis Set: 6-31G*
  Basis Set:
  @DF-RHF Final Energy:  -383.92435661695680
    Total Energy =                       -383.9243566169568567
  Basis Set: 6-31G*
  Basis Set:
  Basis Set: 6-31G*
  Basis Set:
  @DF-RHF Final Energy:  -383.92544528804120
    Total Energy =                       -383.9254452880410327
  Basis Set: 6-31G*
  Basis Set:
  @DF-RHF Final Energy:  -383.92549758882677
    Total Energy =                       -383.9254975888266017
  @DF-RHF Final Energy:  -383.92552192013557
    Total Energy =                       -383.9255219201357932
  @DF-RHF Final Energy:  -383.92552729483401
    Total Energy =                       -383.9255272948341826
  Basis Set: 6-31G*
  Basis Set:
  @DF-RHF Final Energy:  -383.92553109087243
    Total Energy =                       -383.9255310908724823
  Basis Set: 6-31G*
  Basis Set:
  Basis Set: 6-31G*
  Basis Set:
  @DF-RHF Final Energy:  -383.92553440458653
    Total Energy =                       -383.9255344045865286
  Basis Set: 6-31G*
  Basis Set:
  Basis Set: 6-31G*
  Basis Set:
  @DF-RHF Final Energy:  -383.92553620401941
    Total Energy =                       -383.9255362040195223
  Basis Set: 6-31G*
  Basis Set:
  Charge       = 0
  Multiplicity = 1
  Basis Set: 6-31G*
  Basis Set:

    Orbital Energies (a.u.)
    -----------------------

    Doubly Occupied:

       1A    -20.585384     2A    -20.554075     3A    -11.377127
       4A    -11.295553     5A    -11.238481     6A    -11.228597
       7A    -11.222093     8A    -11.214171     9A     -1.457949
      10A     -1.367097    11A     -1.085379    12A     -1.020477
      13A     -0.992876    14A     -0.884505    15A     -0.812451
      16A     -0.777831    17A     -0.694681    18A     -0.686106
      19A     -0.654574    20A     -0.633835    21A     -0.617693
      22A     -0.591601    23A     -0.580553    24A     -0.555104
      25A     -0.550685    26A     -0.535299    27A     -0.492119
      28A     -0.490359    29A     -0.478319    30A     -0.474203
      31A     -0.450573    32A     -0.435836

  @DF-RHF Final Energy:  -383.92553644876932

   => Energetics <=

    Nuclear Repulsion Energy =            384.2183313415774819
    One-Electron Energy =               -1284.2165672706071291
    Two-Electron Energy =                 516.0726994802604395
    DFT Exchange-Correlation Energy =       0.0000000000000000
    Empirical Dispersion Energy =           0.0000000000000000
    PCM Polarization Energy =               0.0000000000000000
    EFP Energy =                            0.0000000000000000
    Total Energy =                       -383.9255364487692077
    Molecular point group: c1
  Basis Set: 6-31G*
  Basis Set:

  -Total Gradient:
     Atom            X                  Y                   Z
    ------   -----------------  -----------------  -----------------
       1        0.000049180726    -0.001229763526     0.000212224416
       2       -0.000100484392     0.001714095656     0.000199370147
       3       -0.000000197292     0.000008236774    -0.000006314134
       4        0.000206781474    -0.000286248711    -0.001408869349
       5       -0.000002814524    -0.000004458651    -0.000000174066
       6        0.000000021592    -0.000002283469    -0.000006460163
       7       -0.000005391323    -0.000004831083     0.000007030007
       8       -0.000117824458    -0.000218953524     0.001028093287
       9       -0.000009594043     0.000023851027    -0.000009991655
      10       -0.000007707281     0.000020069982    -0.000000779772
      11        0.000001503270    -0.000007851016    -0.000007806612
      12        0.000010609140    -0.000019211387    -0.000012884010
      13       -0.000001892187     0.000009840700    -0.000000549832
      14       -0.000013283888    -0.000003843403     0.000001982713
      15       -0.000006770829     0.000006931453     0.000007182358
      16       -0.000003871835    -0.000008638527    -0.000001728558
      17        0.000002555163     0.000007631446     0.000004631294
      18       -0.000003017833     0.000004237764     0.000002513936
      19        0.000002412811     0.000000608765    -0.000009021215
      20       -0.000000214284    -0.000009420271     0.000001551210

  **** Optimization is complete! (in 11 steps) ****
    Final optimized geometry and variables:
    Molecular point group: c1

    Geometry (in Angstrom), charge = 0, multiplicity = 1:

    O           -2.726647378296     0.246015225484     0.872252749218
    C           -1.951831939507     0.118861966559    -0.010257786796
    C           -2.347816135681    -0.099859219147    -1.449626808763
    O           -0.623769619018     0.210490375324     0.209742199584
    H           -2.057903852326    -1.092507589108    -1.777781071443
    H           -3.418122095313     0.003594708531    -1.548605475640
    H           -1.840806625588     0.617629992569    -2.084325174191
    C            0.166619360045    -0.964740036651     0.113266256749
    C            1.580449728970    -0.625041860273     0.546954703151
    H            0.160878548680    -1.334677517471    -0.907826285720
    H           -0.255263069876    -1.728374060860     0.758099872495
    C            2.272675644253     0.396169212763    -0.356890110859
    H            2.152109082927    -1.550891392398     0.562407725384
    H            1.546283855544    -0.255657577270     1.567438845015
    C            3.699013236763     0.705228464857     0.096050860796
    H            2.291605438267     0.018199401048    -1.377525166351
    H            1.689482013127     1.310470600079    -0.374555109885
    H            4.167863233441     1.432611336281    -0.558921381883
    H            4.316637024662    -0.188656968640     0.093752149148
    H            3.710029762935     1.112028677567     1.103022230056

  Mulliken Charges: (a.u.)
   Center  Symbol    Alpha    Beta     Spin     Total
       1     O     4.24802  4.24802  0.00000 -0.49603
       2     C     2.62538  2.62538  0.00000  0.74923
       3     C     3.29488  3.29488  0.00000 -0.58976
       4     O     4.31586  4.31586  0.00000 -0.63173
       5     H     0.40508  0.40508  0.00000  0.18984
       6     H     0.39379  0.39379  0.00000  0.21243
       7     H     0.39970  0.39970  0.00000  0.20060
       8     C     3.00341  3.00341  0.00000 -0.00683
       9     C     3.16201  3.16201  0.00000 -0.32401
      10     H     0.42369  0.42369  0.00000  0.15263
      11     H     0.41239  0.41239  0.00000  0.17522
      12     C     3.15577  3.15577  0.00000 -0.31153
      13     H     0.41961  0.41961  0.00000  0.16077
      14     H     0.40832  0.40832  0.00000  0.18337
      15     C     3.24068  3.24068  0.00000 -0.48136
      16     H     0.42551  0.42551  0.00000  0.14898
      17     H     0.40758  0.40758  0.00000  0.18484
      18     H     0.41726  0.41726  0.00000  0.16548
      19     H     0.42231  0.42231  0.00000  0.15538
      20     H     0.41876  0.41876  0.00000  0.16249

   Total alpha = 32.00000, Total beta = 32.00000, Total charge = -0.00000
