                              Psi4 1.0.54 Driver

  ==> Input File <==

--------------------------------------------------------------------------
set {
	reference rhf
	basis cc-pvtz
}

set_num_threads( 4 )
memory 2 gb

molecule MOL {
0 1

H	 -4.023867	 -0.454694	 0.000004
C	 -2.961988	 -0.297887	 0.000004
C	 -2.454509	 0.989011	 0.000025
C	 -2.105610	 -1.382599	 -0.000016
H	 -3.119825	 1.830471	 0.000041
C	 -1.089879	 1.189709	 0.000026
H	 -2.500163	 -2.380196	 -0.000033
C	 -0.738948	 -1.183269	 -0.000016
H	 -0.679987	 2.179177	 0.000042
C	 -0.227114	 0.104573	 0.000006
H	 -0.072982	 -2.021135	 -0.000032
C	 1.239201	 0.374462	 0.000004
O	 1.968513	 -0.725579	 -0.000027
O	 1.709414	 1.462616	 -0.000010
C	 3.373783	 -0.568170	 0.000011
H	 3.695643	 -0.031555	 -0.879663
H	 3.782927	 -1.565261	 -0.000152
H	 3.695632	 -0.031818	 0.879862

	symmetry c1
}
ee,wfn = energy('scf', return_wfn=True)
oeprop( wfn, 'DIPOLE', 'QUADRUPOLE', 'MULLIKEN_CHARGES')
oeprop( wfn, 'GRID_ESP')
f=open( 'psi4out.xyz', 'w' )
f.write( "18  " )
f.write( str(ee) + "\n" )
f.write( MOL.save_string_xyz() )
f.close()
--------------------------------------------------------------------------

    Molecular point group: c1

    Geometry (in Angstrom), charge = 0, multiplicity = 1:

       Center              X                  Y                   Z               Mass
    ------------   -----------------  -----------------  -----------------  -----------------
           H         -4.024093540238    -0.454726530445     0.000003957898     1.007825032070
           C         -2.962214540238    -0.297919530445     0.000003957898    12.000000000000
           C         -2.454735540238     0.988978469555     0.000024957898    12.000000000000
           C         -2.105836540238    -1.382631530445    -0.000016042102    12.000000000000
           H         -3.120051540238     1.830438469555     0.000040957898     1.007825032070
           C         -1.090105540238     1.189676469555     0.000025957898    12.000000000000
           H         -2.500389540238    -2.380228530445    -0.000033042102     1.007825032070
           C         -0.739174540238    -1.183301530445    -0.000016042102    12.000000000000
           H         -0.680213540238     2.179144469555     0.000041957898     1.007825032070
           C         -0.227340540238     0.104540469555     0.000005957898    12.000000000000
           H         -0.073208540238    -2.021167530445    -0.000032042102     1.007825032070
           C          1.238974459762     0.374429469555     0.000003957898    12.000000000000
           O          1.968286459762    -0.725611530445    -0.000027042102    15.994914619560
           O          1.709187459762     1.462583469555    -0.000010042102    15.994914619560
           C          3.373556459762    -0.568202530445     0.000010957898    12.000000000000
           H          3.695416459762    -0.031587530445    -0.879663042102     1.007825032070
           H          3.782700459762    -1.565293530445    -0.000152042102     1.007825032070
           H          3.695405459762    -0.031850530445     0.879861957898     1.007825032070

  Charge       = 0
  Multiplicity = 1
  Basis Set: CC-PVTZ
  Basis Set:

    Orbital Energies (a.u.)
    -----------------------

    Doubly Occupied:

       1A    -20.600889     2A    -20.534455     3A    -11.371723
       4A    -11.281226     5A    -11.245017     6A    -11.243558
       7A    -11.242769     8A    -11.240135     9A    -11.236073
      10A    -11.235281    11A     -1.476936    12A     -1.368405
      13A     -1.170862    14A     -1.051909    15A     -1.029123
      16A     -0.980478    17A     -0.863304    18A     -0.838539
      19A     -0.781236    20A     -0.745060    21A     -0.687879
      22A     -0.681740    23A     -0.676385    24A     -0.634104
      25A     -0.630116    26A     -0.601361    27A     -0.587554
      28A     -0.565003    29A     -0.531976    30A     -0.520381
      31A     -0.509513    32A     -0.502282    33A     -0.464188
      34A     -0.449487    35A     -0.350252    36A     -0.346315

  @DF-RHF Final Energy:  -457.51024290006421

   => Energetics <=

    Nuclear Repulsion Energy =            494.0499259032765167
    One-Electron Energy =               -1602.5687909342539115
    Two-Electron Energy =                 651.0086221309136363
    DFT Exchange-Correlation Energy =       0.0000000000000000
    Empirical Dispersion Energy =           0.0000000000000000
    PCM Polarization Energy =               0.0000000000000000
    EFP Energy =                            0.0000000000000000
    Total Energy =                       -457.5102429000637585

  Mulliken Charges: (a.u.)
   Center  Symbol    Alpha    Beta     Spin     Total
       1     H     0.42027  0.42027  0.00000  0.15946
       2     C     3.06963  3.06963  0.00000 -0.13927
       3     C     3.07561  3.07561  0.00000 -0.15122
       4     C     3.07504  3.07504  0.00000 -0.15008
       5     H     0.42037  0.42037  0.00000  0.15925
       6     C     3.07579  3.07579  0.00000 -0.15157
       7     H     0.42188  0.42188  0.00000  0.15624
       8     C     3.08202  3.08202  0.00000 -0.16404
       9     H     0.40666  0.40666  0.00000  0.18668
      10     C     3.01238  3.01238  0.00000 -0.02476
      11     H     0.41100  0.41100  0.00000  0.17799
      12     C     2.78241  2.78241  0.00000  0.43519
      13     O     4.14849  4.14849  0.00000 -0.29698
      14     O     4.21129  4.21129  0.00000 -0.42258
      15     C     3.03660  3.03660  0.00000 -0.07320
      16     H     0.45264  0.45264  0.00000  0.09473
      17     H     0.44528  0.44528  0.00000  0.10944
      18     H     0.45264  0.45264  0.00000  0.09471

   Total alpha = 36.00000, Total beta = 36.00000, Total charge = -0.00000

*** Psi4 exiting successfully. Buy a developer a beer!
