  ==> Input File <==

--------------------------------------------------------------------------
set {
	reference rhf
	basis 6-31G*
}

set_num_threads( 1 )
memory 2 gb

molecule MOL {
0 1

O	 0.749854	 1.307668	 -0.000040
C	 0.576249	 0.131685	 -0.000108
C	 -0.766779	 -0.556801	 -0.000461
O	 1.568443	 -0.749345	 -0.000005
C	 -1.945214	 0.412366	 0.000161
H	 -0.796911	 -1.211249	 -0.867467
H	 -0.796854	 -1.212390	 0.865687
C	 -3.109738	 -0.100013	 -0.845959
H	 -1.615375	 1.377267	 -0.369668
H	 -2.273444	 0.576113	 1.020958
H	 -2.813910	 -0.242296	 -1.881668
H	 -3.936274	 0.602887	 -0.832863
H	 -3.479996	 -1.051724	 -0.474977
C	 2.886820	 -0.232538	 0.000322
H	 3.059106	 0.369571	 -0.880203
H	 3.540187	 -1.091012	 0.000050
H	 3.059019	 0.368956	 0.881266

	symmetry c1
}
set optking {
	frozen_dihedral = ("
		1 2 3 6,
		14 4 2 1
	")
}

ee = energy('scf')
oeprop('DIPOLE', 'QUADRUPOLE', 'MULLIKEN_CHARGES')
f=open( 'psi4out.xyz', 'w' )
f.write( "17  " )
f.write( str(ee) + "\n" )
f.write( MOL.save_string_xyz() )
f.close()
--------------------------------------------------------------------------

    Molecular point group: c1

    Geometry (in Angstrom), charge = 0, multiplicity = 1:

       Center              X                  Y                   Z               Mass
    ------------   -----------------  -----------------  -----------------  -----------------
           O          0.723644137835     1.275718799103     0.124504438208    15.994914619560
           C          0.550039137835     0.099735799103     0.124436438208    12.000000000000
           C         -0.792988862165    -0.588750200897     0.124083438208    12.000000000000
           O          1.542233137835    -0.781294200897     0.124539438208    15.994914619560
           C         -1.971423862165     0.380416799103     0.124705438208    12.000000000000
           H         -0.823120862165    -1.243198200897    -0.742922561792     1.007825032070
           H         -0.823063862165    -1.244339200897     0.990231438208     1.007825032070
           C         -3.135947862165    -0.131962200897    -0.721414561792    12.000000000000
           H         -1.641584862165     1.345317799103    -0.245123561792     1.007825032070
           H         -2.299653862165     0.544163799103     1.145502438208     1.007825032070
           H         -2.840119862165    -0.274245200897    -1.757123561792     1.007825032070
           H         -3.962483862165     0.570937799103    -0.708318561792     1.007825032070
           H         -3.506205862165    -1.083673200897    -0.350432561792     1.007825032070
           C          2.860610137835    -0.264487200897     0.124866438208    12.000000000000
           H          3.032896137835     0.337621799103    -0.755658561792     1.007825032070
           H          3.513977137835    -1.122961200897     0.124594438208     1.007825032070
           H          3.032809137835     0.337006799103     1.005810438208     1.007825032070

  Charge       = 0
  Multiplicity = 1
  Basis Set: 6-31G*
  Basis Set:

    Orbital Energies (a.u.)
    -----------------------

    Doubly Occupied:

       1A    -20.604480     2A    -20.546444     3A    -11.373186
       4A    -11.281350     5A    -11.234959     6A    -11.218847
       7A    -11.213467     8A     -1.470227     9A     -1.363945
      10A     -1.079894    11A     -1.001061    12A     -0.939265
      13A     -0.827403    14A     -0.767028    15A     -0.702646
      16A     -0.682784    17A     -0.673104    18A     -0.633009
      19A     -0.598878    20A     -0.572440    21A     -0.568993
      22A     -0.529784    23A     -0.523840    24A     -0.490920
      25A     -0.487367    26A     -0.474927    27A     -0.457377
      28A     -0.439882

  @DF-RHF Final Energy:  -344.90332846487411

   => Energetics <=

    Nuclear Repulsion Energy =            313.2261589431190032
    One-Electron Energy =               -1090.7440644446533042
    Two-Electron Energy =                 432.6145770366597390
    DFT Exchange-Correlation Energy =       0.0000000000000000
    Empirical Dispersion Energy =           0.0000000000000000
    PCM Polarization Energy =               0.0000000000000000
    EFP Energy =                            0.0000000000000000
    Total Energy =                       -344.9033284648745621

  Mulliken Charges: (a.u.)
   Center  Symbol    Alpha    Beta     Spin     Total
       1     O     4.28471  4.28471  0.00000 -0.56942
       2     C     2.61061  2.61061  0.00000  0.77879
       3     C     3.20831  3.20831  0.00000 -0.41663
       4     O     4.30569  4.30569  0.00000 -0.61137
       5     C     3.15863  3.15863  0.00000 -0.31725
       6     H     0.39926  0.39926  0.00000  0.20149
       7     H     0.39839  0.39839  0.00000  0.20322
       8     C     3.24353  3.24353  0.00000 -0.48707
       9     H     0.39651  0.39651  0.00000  0.20698
      10     H     0.41675  0.41675  0.00000  0.16649
      11     H     0.42042  0.42042  0.00000  0.15916
      12     H     0.41644  0.41644  0.00000  0.16711
      13     H     0.42211  0.42211  0.00000  0.15578
      14     C     3.09234  3.09234  0.00000 -0.18468
      15     H     0.40900  0.40900  0.00000  0.18199
      16     H     0.40834  0.40834  0.00000  0.18332
      17     H     0.40895  0.40895  0.00000  0.18209

   Total alpha = 28.00000, Total beta = 28.00000, Total charge =  0.00000
