                              Psi4 1.0.54 Driver

  ==> Input File <==

--------------------------------------------------------------------------
set {
	reference rhf
	basis cc-pvtz
}

set_num_threads( 4 )
memory 2 gb

molecule MOL {
0 1

H	 -3.258660	 -0.290394	 1.471450
C	 -3.307964	 -0.275695	 0.374072
C	 -2.653809	 0.914422	 -0.273689
O	 -3.855140	 -1.148880	 -0.205112
C	 -3.405828	 1.401028	 -1.516007
H	 -2.555569	 1.698432	 0.465914
H	 -1.653289	 0.599685	 -0.562141
C	 -4.777183	 1.998006	 -1.207482
H	 -2.794480	 2.142966	 -2.018125
H	 -3.515435	 0.576498	 -2.216243
C	 -5.509644	 2.488281	 -2.453640
H	 -4.656164	 2.823370	 -0.510893
H	 -5.392522	 1.262023	 -0.696489
C	 -6.875747	 3.095780	 -2.140660
H	 -4.886852	 3.216355	 -2.963918
H	 -5.637807	 1.657792	 -3.144408
C	 -7.682761	 3.527202	 -3.366427
H	 -6.745675	 3.949661	 -1.479787
H	 -7.459235	 2.368549	 -1.583005
C	 -7.078793	 4.688516	 -4.152339
H	 -8.677937	 3.810461	 -3.038128
H	 -7.814251	 2.674432	 -4.027335
H	 -6.929630	 5.554165	 -3.514845
H	 -6.121248	 4.429887	 -4.588119
H	 -7.734383	 4.985814	 -4.962758

	symmetry c1
}
set optking {
	frozen_dihedral = ("
		6 3 2 4
	")
}

ee,wfn = optimize('scf', return_wfn=True)
oeprop( wfn, 'DIPOLE', 'QUADRUPOLE', 'MULLIKEN_CHARGES')
f=open( 'psi4out.xyz', 'w' )
f.write( "25  " )
f.write( str(ee) + "\n" )
f.write( MOL.save_string_xyz() )
f.close()
--------------------------------------------------------------------------

    Molecular point group: c1
  Charge       = 0
  Multiplicity = 1
  Basis Set: CC-PVTZ
  Basis Set:
  @DF-RHF Final Energy:  -387.25928032240773
    Total Energy =                       -387.2592803224076761
    Molecular point group: c1
  Basis Set: CC-PVTZ
  Basis Set:
  Basis Set: CC-PVTZ
  Basis Set:
  @DF-RHF Final Energy:  -387.25759670482478
    Total Energy =                       -387.2575967048253460
  Basis Set: CC-PVTZ
  Basis Set:
  Basis Set: CC-PVTZ
  Basis Set:
  @DF-RHF Final Energy:  -387.25972832281701
    Total Energy =                       -387.2597283228170681
  Basis Set: CC-PVTZ
  Basis Set:
  Basis Set: CC-PVTZ
  Basis Set:
  @DF-RHF Final Energy:  -387.25988194572403
    Total Energy =                       -387.2598819457236914
  Basis Set: CC-PVTZ
  Basis Set:
  Basis Set: CC-PVTZ
  Basis Set:
  @DF-RHF Final Energy:  -387.25992368629960
    Total Energy =                       -387.2599236862988619
  Basis Set: CC-PVTZ
  Basis Set:
  Charge       = 0
  Multiplicity = 1
  Basis Set: CC-PVTZ
  Basis Set:

    Orbital Energies (a.u.)
    -----------------------

    Doubly Occupied:

       1A    -20.552023     2A    -11.322868     3A    -11.235111
       4A    -11.222178     5A    -11.215304     6A    -11.212842
       7A    -11.211944     8A    -11.211118     9A    -11.205980
      10A     -1.407880    11A     -1.098655    12A     -1.066051
      13A     -1.011384    14A     -0.942720    15A     -0.877430
      16A     -0.820218    17A     -0.778625    18A     -0.765386
      19A     -0.689838    20A     -0.649635    21A     -0.631194
      22A     -0.626940    23A     -0.604262    24A     -0.592420
      25A     -0.570039    26A     -0.546649    27A     -0.533236
      28A     -0.525024    29A     -0.502012    30A     -0.496907
      31A     -0.485147    32A     -0.474089    33A     -0.460746
      34A     -0.454995    35A     -0.438591    36A     -0.412708

  @DF-RHF Final Energy:  -387.25992455958965

   => Energetics <=

    Nuclear Repulsion Energy =            443.0770397468555757
    One-Electron Energy =               -1402.9696374412901605
    Two-Electron Energy =                 572.6326731348449357
    DFT Exchange-Correlation Energy =       0.0000000000000000
    Empirical Dispersion Energy =           0.0000000000000000
    PCM Polarization Energy =               0.0000000000000000
    EFP Energy =                            0.0000000000000000
    Total Energy =                       -387.2599245595896491
    Molecular point group: c1
  Basis Set: CC-PVTZ
  Basis Set:

  -Total Gradient:
     Atom            X                  Y                   Z
    ------   -----------------  -----------------  -----------------
       1       -0.000025935046    -0.000006884706    -0.000062318753
       2       -0.002580886686     0.001468133327     0.000505252321
       3       -0.001685792505     0.000492728692    -0.000728460050
       4        0.002139843994    -0.001128272715    -0.000231063905
       5       -0.000025545228    -0.000023988783    -0.000022256353
       6        0.002170436007    -0.000755379929     0.000530744873
       7        0.000005196364     0.000005521636     0.000005790905
       8        0.000029967932    -0.000063105491     0.000023499683
       9       -0.000005518945    -0.000010106913     0.000002207598
      10       -0.000011137382     0.000005649367    -0.000005363922
      11       -0.000011332708     0.000010596860    -0.000014393665
      12       -0.000003106037    -0.000006362064     0.000000091905
      13       -0.000005131171     0.000005353017    -0.000019596642
      14       -0.000000743142    -0.000001694142     0.000002398833
      15        0.000005457292     0.000007600000    -0.000016877270
      16        0.000000139363    -0.000001144224     0.000016745865
      17       -0.000008189120     0.000013822029     0.000010973411
      18       -0.000009243788    -0.000000012212     0.000003674420
      19        0.000005350821    -0.000005589290    -0.000005521438
      20        0.000005938269    -0.000004985058     0.000000097460
      21        0.000000442404     0.000004914418     0.000000245965
      22       -0.000003356008     0.000000569130     0.000004774862
      23       -0.000003351293    -0.000002276095    -0.000001395647
      24        0.000014139645    -0.000003341215     0.000004285367
      25        0.000002356975    -0.000001745650    -0.000003535820

  **** Optimization is complete! (in 6 steps) ****
    Final optimized geometry and variables:
    Molecular point group: c1

    Geometry (in Angstrom), charge = 0, multiplicity = 1:

    H            1.885739885885    -2.236005645924     3.145461663069
    C            1.744260821353    -2.158423519762     2.060969924482
    C            2.336617600216    -0.931045206685     1.411411045658
    O            1.208413703136    -3.033029065144     1.472366186642
    C            1.598309696234    -0.446025819111     0.166848201555
    H            2.438847996443    -0.149308317245     2.157386275082
    H            3.354449984372    -1.217953341552     1.150729215665
    C            0.227256875110     0.156235529558     0.465834689968
    H            2.215611063937     0.295773439098    -0.329846628750
    H            1.490333700821    -1.276473112564    -0.520070353479
    C           -0.494002011101     0.645518010098    -0.787244842364
    H            0.343604927117     0.986159555330     1.159649522017
    H           -0.391297345507    -0.582186997061     0.966824879954
    C           -1.861260865619     1.256761869225    -0.487103655124
    H            0.134241262472     1.370750217031    -1.295212908057
    H           -0.618042285817    -0.187859929970    -1.474445057268
    C           -2.658661288107     1.684159846091    -1.720543879616
    H           -1.735430604819     2.113832701149     0.170985771939
    H           -2.449997416783     0.532328930898     0.068711151997
    C           -2.045294851467     2.839003268038    -2.508743157843
    H           -3.655397406886     1.972514602240    -1.401069845258
    H           -2.787854737645     0.828086492162    -2.377393515576
    H           -1.897576397677     3.707842186356    -1.875083027295
    H           -1.085629722510     2.574451104025    -2.936089969085
    H           -2.694122488978     3.134029636275    -3.325503711118

  Mulliken Charges: (a.u.)
   Center  Symbol    Alpha    Beta     Spin     Total
       1     H     0.45411  0.45411  0.00000  0.09178
       2     C     2.91401  2.91401  0.00000  0.17198
       3     C     3.10406  3.10406  0.00000 -0.20812
       4     O     4.16892  4.16892  0.00000 -0.33785
       5     C     3.09394  3.09394  0.00000 -0.18787
       6     H     0.44620  0.44620  0.00000  0.10759
       7     H     0.43701  0.43701  0.00000  0.12598
       8     C     3.09165  3.09165  0.00000 -0.18330
       9     H     0.44583  0.44583  0.00000  0.10833
      10     H     0.44264  0.44264  0.00000  0.11473
      11     C     3.09363  3.09363  0.00000 -0.18725
      12     H     0.45642  0.45642  0.00000  0.08716
      13     H     0.44718  0.44718  0.00000  0.10565
      14     C     3.09504  3.09504  0.00000 -0.19007
      15     H     0.45307  0.45307  0.00000  0.09386
      16     H     0.45153  0.45153  0.00000  0.09695
      17     C     3.09057  3.09057  0.00000 -0.18114
      18     H     0.45509  0.45509  0.00000  0.08982
      19     H     0.44841  0.44841  0.00000  0.10318
      20     C     3.15276  3.15276  0.00000 -0.30552
      21     H     0.44850  0.44850  0.00000  0.10300
      22     H     0.45391  0.45391  0.00000  0.09217
      23     H     0.45541  0.45541  0.00000  0.08919
      24     H     0.45390  0.45390  0.00000  0.09220
      25     H     0.44622  0.44622  0.00000  0.10756

   Total alpha = 36.00000, Total beta = 36.00000, Total charge = -0.00000

*** Psi4 exiting successfully. Buy a developer a beer!
