                              Psi4 1.0.54 Driver

  ==> Input File <==

--------------------------------------------------------------------------
set {
	reference rhf
	basis cc-pvtz
}

set_num_threads( 4 )
memory 2 gb

molecule MOL {
0 1

O	 0.242832	 0.085791	 2.106203
C	 0.014942	 0.575551	 1.037129
C	 -0.997056	 1.696493	 0.918040
N	 0.622280	 0.144970	 -0.099307
H	 -1.805875	 1.428486	 0.249960
H	 -1.393813	 1.878359	 1.902926
H	 -0.538629	 2.603919	 0.544679
C	 1.664396	 -0.854993	 0.000772
C	 0.550664	 0.837149	 -1.364026
H	 2.462727	 -0.615153	 -0.690869
H	 1.261798	 -1.821849	 -0.240651
H	 2.081615	 -0.891605	 1.003877
H	 0.589721	 0.113715	 -2.168237
H	 -0.369124	 1.387190	 -1.465720
H	 1.380743	 1.527379	 -1.496671

	symmetry c1
}
set optking {
	frozen_dihedral = ("
		2 4 8 10
	")
}

ee,wfn = optimize('scf', return_wfn=True)
oeprop( wfn, 'DIPOLE', 'QUADRUPOLE', 'MULLIKEN_CHARGES')
f=open( 'psi4out.xyz', 'w' )
f.write( "15  " )
f.write( str(ee) + "\n" )
f.write( MOL.save_string_xyz() )
f.close()
--------------------------------------------------------------------------

    Molecular point group: c1
  Charge       = 0
  Multiplicity = 1
  Basis Set: CC-PVTZ
  Basis Set:
  @DF-RHF Final Energy:  -286.13403579031967
    Total Energy =                       -286.1340357903196718
    Molecular point group: c1
  Basis Set: CC-PVTZ
  Basis Set:
  Basis Set: CC-PVTZ
  Basis Set:
  @DF-RHF Final Energy:  -286.13469029617988
    Total Energy =                       -286.1346902961796559
  Basis Set: CC-PVTZ
  Basis Set:
  Basis Set: CC-PVTZ
  Basis Set:
  @DF-RHF Final Energy:  -286.13480998976252
    Total Energy =                       -286.1348099897624593
  Basis Set: CC-PVTZ
  Basis Set:
  Basis Set: CC-PVTZ
  Basis Set:
  @DF-RHF Final Energy:  -286.13499668282321
    Total Energy =                       -286.1349966828231572
  Basis Set: CC-PVTZ
  Basis Set:
  @DF-RHF Final Energy:  -286.13511542598968
    Total Energy =                       -286.1351154259897385
  @DF-RHF Final Energy:  -286.13520247295128
    Total Energy =                       -286.1352024729513346
  @DF-RHF Final Energy:  -286.13526901187436
    Total Energy =                       -286.1352690118740725
  @DF-RHF Final Energy:  -286.13534321945144
    Total Energy =                       -286.1353432194512720
  @DF-RHF Final Energy:  -286.13540039820930
    Total Energy =                       -286.1354003982092422
  @DF-RHF Final Energy:  -286.13544436847400
    Total Energy =                       -286.1354443684742250
  @DF-RHF Final Energy:  -286.13547358009600
    Total Energy =                       -286.1354735800960611
  @DF-RHF Final Energy:  -286.13550271382803
    Total Energy =                       -286.1355027138279752
  @DF-RHF Final Energy:  -286.13555725513805
    Total Energy =                       -286.1355572551381670
  @DF-RHF Final Energy:  -286.13557428957699
    Total Energy =                       -286.1355742895771073
  @DF-RHF Final Energy:  -286.13559639774166
    Total Energy =                       -286.1355963977419492
  @DF-RHF Final Energy:  -286.13524716888753
    Total Energy =                       -286.1352471688871901
  Basis Set: CC-PVTZ
  Basis Set:
  @DF-RHF Final Energy:  -286.13558698051895
    Total Energy =                       -286.1355869805190082
  Basis Set: CC-PVTZ
  Basis Set:
  Basis Set: CC-PVTZ
  Basis Set:
  @DF-RHF Final Energy:  -286.13562341038249
    Total Energy =                       -286.1356234103824363
  Basis Set: CC-PVTZ
  Basis Set:
  Basis Set: CC-PVTZ
  Basis Set:
  @DF-RHF Final Energy:  -286.13564069761725
    Total Energy =                       -286.1356406976171911
  Basis Set: CC-PVTZ
  Basis Set:
  Charge       = 0
  Multiplicity = 1
  Basis Set: CC-PVTZ
  Basis Set:

    Orbital Energies (a.u.)
    -----------------------

    Doubly Occupied:

       1A    -20.503502     2A    -15.578527     3A    -11.335177
       4A    -11.263985     5A    -11.246428     6A    -11.226492
       7A     -1.387290     8A     -1.246362     9A     -1.015094
      10A     -0.973240    11A     -0.920939    12A     -0.739122
      13A     -0.683319    14A     -0.661970    15A     -0.653851
      16A     -0.590436    17A     -0.578185    18A     -0.567416
      19A     -0.561613    20A     -0.548431    21A     -0.530404
      22A     -0.507289    23A     -0.413671    24A     -0.370431

  @DF-RHF Final Energy:  -286.13564102305008

   => Energetics <=

    Nuclear Repulsion Energy =            252.8861270755436408
    One-Electron Energy =                -889.8371941099587730
    Two-Electron Energy =                 350.8154260113652754
    DFT Exchange-Correlation Energy =       0.0000000000000000
    Empirical Dispersion Energy =           0.0000000000000000
    PCM Polarization Energy =               0.0000000000000000
    EFP Energy =                            0.0000000000000000
    Total Energy =                       -286.1356410230498568
    Molecular point group: c1
  Basis Set: CC-PVTZ
  Basis Set:

  -Total Gradient:
     Atom            X                  Y                   Z
    ------   -----------------  -----------------  -----------------
       1        0.000002116895     0.000007231047    -0.000005596231
       2       -0.000009169969    -0.000005858935     0.000026219040
       3       -0.000013603846    -0.000011207666    -0.000006416887
       4       -0.000004224312    -0.000014870866    -0.000019425657
       5        0.000003805421     0.000002592686     0.000000433978
       6        0.000004692365    -0.000001808555     0.000001307750
       7        0.000005434103     0.000004147784     0.000001052593
       8       -0.000010394001    -0.000020677970     0.000006773937
       9        0.000021843989     0.000035379609    -0.000001386962
      10       -0.000005206165     0.000005969599     0.000002536376
      11        0.000001435820     0.000004522550     0.000000420608
      12        0.000001740519    -0.000000036409    -0.000000750278
      13        0.000007636376    -0.000009606147     0.000033124126
      14       -0.000007376029    -0.000003082582    -0.000009450498
      15        0.000001268834     0.000007305854    -0.000028841888

  **** Optimization is complete! (in 20 steps) ****
    Final optimized geometry and variables:
    Molecular point group: c1

    Geometry (in Angstrom), charge = 0, multiplicity = 1:

    O           -0.198023146928    -0.418092201730     1.653683334605
    C           -0.350622308177     0.150499732914     0.610461432603
    C           -1.414897941273     1.220923085004     0.481528851108
    N            0.418288036525    -0.116472409105    -0.476755427427
    H           -2.154162036506     0.954747472550    -0.263792371717
    H           -1.895664938991     1.313655000819     1.441081121217
    H           -0.984125568142     2.174551846298     0.203413509166
    C            1.378728427286    -1.197300185699    -0.408735674671
    C            0.151480123314     0.386236480743    -1.802956448816
    H            2.293193871701    -0.901374832312    -0.908608709036
    H            0.998993174187    -2.092155700913    -0.894989332718
    H            1.592342526195    -1.426663479099     0.619267408234
    H           -0.407096367812    -0.330199303437    -2.400811413432
    H           -0.400267492020     1.309878212697    -1.776246079842
    H            1.089533467943     0.579195916202    -2.308163816436

  Mulliken Charges: (a.u.)
   Center  Symbol    Alpha    Beta     Spin     Total
       1     O     4.22091  4.22091  0.00000 -0.44182
       2     C     2.84565  2.84565  0.00000  0.30870
       3     C     3.16073  3.16073  0.00000 -0.32145
       4     N     3.56138  3.56138  0.00000 -0.12276
       5     H     0.44924  0.44924  0.00000  0.10152
       6     H     0.42858  0.42858  0.00000  0.14283
       7     H     0.44903  0.44903  0.00000  0.10194
       8     C     3.09895  3.09895  0.00000 -0.19790
       9     C     3.09527  3.09527  0.00000 -0.19055
      10     H     0.45678  0.45678  0.00000  0.08644
      11     H     0.45778  0.45778  0.00000  0.08445
      12     H     0.42624  0.42624  0.00000  0.14752
      13     H     0.45467  0.45467  0.00000  0.09066
      14     H     0.44503  0.44503  0.00000  0.10995
      15     H     0.44976  0.44976  0.00000  0.10048

   Total alpha = 24.00000, Total beta = 24.00000, Total charge =  0.00000

*** Psi4 exiting successfully. Buy a developer a beer!
