  ==> Input File <==

--------------------------------------------------------------------------
set {
	reference rhf
	basis 6-31G*
}

set_num_threads( 1 )
memory 2 gb

molecule MOL {
0 1

H	 2.774917	 0.058468	 -0.349884
C	 1.951159	 -0.223429	 0.317018
C	 0.692068	 0.589600	 0.160137
O	 2.088707	 -1.113780	 1.091928
C	 -0.558097	 -0.297372	 0.091132
H	 0.791645	 1.202255	 -0.728243
H	 0.616171	 1.253469	 1.020572
C	 -1.850991	 0.512573	 -0.019058
H	 -0.476753	 -0.965681	 -0.762987
H	 -0.604799	 -0.930658	 0.975228
C	 -3.096943	 -0.368295	 -0.099594
H	 -1.800724	 1.150330	 -0.898172
H	 -1.931651	 1.177355	 0.838044
H	 -3.060452	 -1.020287	 -0.967456
H	 -3.996858	 0.233488	 -0.175704
H	 -3.191959	 -0.995686	 0.782074

	symmetry c1
}
set optking {
	frozen_dihedral = ("
		9 5 8 12,
		6 3 5 9
	")
}

ee = energy('scf')
oeprop('DIPOLE', 'QUADRUPOLE', 'MULLIKEN_CHARGES')
f=open( 'psi4out.xyz', 'w' )
f.write( "16  " )
f.write( str(ee) + "\n" )
f.write( MOL.save_string_xyz() )
f.close()
--------------------------------------------------------------------------

    Molecular point group: c1

    Geometry (in Angstrom), charge = 0, multiplicity = 1:

       Center              X                  Y                   Z               Mass
    ------------   -----------------  -----------------  -----------------  -----------------
           H          2.913294168423     0.222116427332    -0.612361876307     1.007825032070
           C          2.089536168423    -0.059780572668     0.054540123693    12.000000000000
           C          0.830445168423     0.753248427332    -0.102340876307    12.000000000000
           O          2.227084168423    -0.950131572668     0.829450123693    15.994914619560
           C         -0.419719831577    -0.133723572668    -0.171345876307    12.000000000000
           H          0.930022168423     1.365903427332    -0.990720876307     1.007825032070
           H          0.754548168423     1.417117427332     0.758094123693     1.007825032070
           C         -1.712613831577     0.676221427332    -0.281535876307    12.000000000000
           H         -0.338375831577    -0.802032572668    -1.025464876307     1.007825032070
           H         -0.466421831577    -0.767009572668     0.712750123693     1.007825032070
           C         -2.958565831577    -0.204646572668    -0.362071876307    12.000000000000
           H         -1.662346831577     1.313978427332    -1.160649876307     1.007825032070
           H         -1.793273831577     1.341003427332     0.575566123693     1.007825032070
           H         -2.922074831577    -0.856638572668    -1.229933876307     1.007825032070
           H         -3.858480831577     0.397136427332    -0.438181876307     1.007825032070
           H         -3.053581831577    -0.832037572668     0.519596123693     1.007825032070

  Charge       = 0
  Multiplicity = 1
  Basis Set: 6-31G*
  Basis Set:

    Orbital Energies (a.u.)
    -----------------------

    Doubly Occupied:

       1A    -20.563108     2A    -11.327485     3A    -11.235903
       4A    -11.227711     5A    -11.223807     6A    -11.213990
       7A     -1.403471     8A     -1.090199     9A     -1.015846
      10A     -0.907339    11A     -0.812970    12A     -0.777095
      13A     -0.680178    14A     -0.648725    15A     -0.628807
      16A     -0.599784    17A     -0.581028    18A     -0.543926
      19A     -0.527074    20A     -0.504244    21A     -0.480787
      22A     -0.479525    23A     -0.472142    24A     -0.408683

  @DF-RHF Final Energy:  -270.01862697079684

   => Energetics <=

    Nuclear Repulsion Energy =            231.3732386297349137
    One-Electron Energy =                -824.0761956438900597
    Two-Electron Energy =                 322.6843300433583295
    DFT Exchange-Correlation Energy =       0.0000000000000000
    Empirical Dispersion Energy =           0.0000000000000000
    PCM Polarization Energy =               0.0000000000000000
    EFP Energy =                            0.0000000000000000
    Total Energy =                       -270.0186269707967881

  Mulliken Charges: (a.u.)
   Center  Symbol    Alpha    Beta     Spin     Total
       1     H     0.42776  0.42776  0.00000  0.14449
       2     C     2.84128  2.84128  0.00000  0.31744
       3     C     3.20511  3.20511  0.00000 -0.41022
       4     O     4.23714  4.23714  0.00000 -0.47428
       5     C     3.15546  3.15546  0.00000 -0.31092
       6     H     0.41468  0.41468  0.00000  0.17064
       7     H     0.40093  0.40093  0.00000  0.19814
       8     C     3.15269  3.15269  0.00000 -0.30539
       9     H     0.41873  0.41873  0.00000  0.16254
      10     H     0.40446  0.40446  0.00000  0.19107
      11     C     3.24010  3.24010  0.00000 -0.48021
      12     H     0.42296  0.42296  0.00000  0.15408
      13     H     0.42141  0.42141  0.00000  0.15719
      14     H     0.42046  0.42046  0.00000  0.15907
      15     H     0.41787  0.41787  0.00000  0.16425
      16     H     0.41895  0.41895  0.00000  0.16209

   Total alpha = 24.00000, Total beta = 24.00000, Total charge =  0.00000
