                              Psi4 1.0.54 Driver

  ==> Input File <==

--------------------------------------------------------------------------
set {
	reference rhf
	basis cc-pvtz
}

set_num_threads( 4 )
memory 2 gb

molecule MOL {
0 1

H	 -3.258660	 -0.290394	 1.471450
C	 -3.307964	 -0.275695	 0.374072
C	 -2.653809	 0.914422	 -0.273689
O	 -3.855140	 -1.148880	 -0.205112
C	 -1.535950	 1.515836	 0.583263
H	 -2.293141	 0.619877	 -1.250672
H	 -3.434578	 1.658387	 -0.415885
C	 -0.320062	 0.603926	 0.732322
H	 -1.229209	 2.455337	 0.136510
H	 -1.929591	 1.763481	 1.566072
C	 0.789551	 1.221056	 1.579489
H	 0.068108	 0.366172	 -0.254544
H	 -0.621938	 -0.343139	 1.172057
C	 2.009162	 0.311694	 1.716810
H	 1.080727	 2.170081	 1.140269
H	 0.400492	 1.448776	 2.569476
C	 3.114881	 0.853066	 2.624667
H	 2.421772	 0.113606	 0.730251
H	 1.683570	 -0.648824	 2.106295
C	 3.810167	 2.109081	 2.104967
H	 3.859224	 0.074321	 2.758459
H	 2.703985	 1.050603	 3.611302
H	 4.225524	 1.943187	 1.116051
H	 3.132584	 2.952042	 2.041845
H	 4.624746	 2.395942	 2.760052

	symmetry c1
}
set optking {
	frozen_dihedral = ("
		6 3 2 4
	")
}

ee,wfn = optimize('scf', return_wfn=True)
oeprop( wfn, 'DIPOLE', 'QUADRUPOLE', 'MULLIKEN_CHARGES')
f=open( 'psi4out.xyz', 'w' )
f.write( "25  " )
f.write( str(ee) + "\n" )
f.write( MOL.save_string_xyz() )
f.close()
--------------------------------------------------------------------------

    Molecular point group: c1
  Charge       = 0
  Multiplicity = 1
  Basis Set: CC-PVTZ
  Basis Set:
  @DF-RHF Final Energy:  -387.25954675021916
    Total Energy =                       -387.2595467502192150
    Molecular point group: c1
  Basis Set: CC-PVTZ
  Basis Set:
  Basis Set: CC-PVTZ
  Basis Set:
  @DF-RHF Final Energy:  -387.25803130980398
    Total Energy =                       -387.2580313098038687
  Basis Set: CC-PVTZ
  Basis Set:
  Basis Set: CC-PVTZ
  Basis Set:
  @DF-RHF Final Energy:  -387.25960898118660
    Total Energy =                       -387.2596089811862612
  Basis Set: CC-PVTZ
  Basis Set:
  Basis Set: CC-PVTZ
  Basis Set:
  @DF-RHF Final Energy:  -387.25968861702290
    Total Energy =                       -387.2596886170232438
  Basis Set: CC-PVTZ
  Basis Set:
  Basis Set: CC-PVTZ
  Basis Set:
  @DF-RHF Final Energy:  -387.25969676619002
    Total Energy =                       -387.2596967661905865
  Basis Set: CC-PVTZ
  Basis Set:
  Basis Set: CC-PVTZ
  Basis Set:
  @DF-RHF Final Energy:  -387.25970691747574
    Total Energy =                       -387.2597069174757962
  Basis Set: CC-PVTZ
  Basis Set:
  Basis Set: CC-PVTZ
  Basis Set:
  @DF-RHF Final Energy:  -387.25970863527135
    Total Energy =                       -387.2597086352715223
  Basis Set: CC-PVTZ
  Basis Set:
  Charge       = 0
  Multiplicity = 1
  Basis Set: CC-PVTZ
  Basis Set:

    Orbital Energies (a.u.)
    -----------------------

    Doubly Occupied:

       1A    -20.550723     2A    -11.321565     3A    -11.233816
       4A    -11.231448     5A    -11.223985     6A    -11.219126
       7A    -11.217424     8A    -11.216498     9A    -11.209769
      10A     -1.406363    11A     -1.106520    12A     -1.071845
      13A     -1.015117    14A     -0.943693    15A     -0.876186
      16A     -0.822841    17A     -0.790366    18A     -0.783544
      19A     -0.666779    20A     -0.659736    21A     -0.635721
      22A     -0.631753    23A     -0.608870    24A     -0.597589
      25A     -0.573330    26A     -0.551114    27A     -0.540101
      28A     -0.528407    29A     -0.507265    30A     -0.499933
      31A     -0.491668    32A     -0.480842    33A     -0.466557
      34A     -0.460743    35A     -0.443981    36A     -0.411580

  @DF-RHF Final Energy:  -387.25970865566580

   => Energetics <=

    Nuclear Repulsion Energy =            438.0812948362157613
    One-Electron Energy =               -1392.6884054132369783
    Two-Electron Energy =                 567.3474019213555266
    DFT Exchange-Correlation Energy =       0.0000000000000000
    Empirical Dispersion Energy =           0.0000000000000000
    PCM Polarization Energy =               0.0000000000000000
    EFP Energy =                            0.0000000000000000
    Total Energy =                       -387.2597086556656905
    Molecular point group: c1
  Basis Set: CC-PVTZ
  Basis Set:

  -Total Gradient:
     Atom            X                  Y                   Z
    ------   -----------------  -----------------  -----------------
       1       -0.000015483378     0.000009591366    -0.000011466170
       2        0.002169917456    -0.001242881640     0.000029672027
       3       -0.002105303694     0.000843283497    -0.000684788036
       4       -0.001299855312     0.000781770099     0.000077173719
       5        0.000018964509     0.000009374589    -0.000028517080
       6        0.001238901014    -0.000384015464     0.000595959572
       7        0.000004983125    -0.000006693843     0.000001246635
       8       -0.000012389173    -0.000008237050     0.000027646458
       9        0.000004752680     0.000011263989     0.000004939178
      10       -0.000003136632    -0.000011167517    -0.000010526558
      11        0.000001244237    -0.000001276394     0.000000309269
      12       -0.000008278443    -0.000000284870     0.000002611827
      13       -0.000000543031    -0.000005938285     0.000003965540
      14        0.000004669072     0.000003862233    -0.000006437463
      15        0.000001013494     0.000005205432     0.000003698384
      16       -0.000001512369    -0.000004584873    -0.000001195155
      17        0.000002536733     0.000000230576    -0.000004035820
      18        0.000002531737    -0.000003510481    -0.000000957666
      19       -0.000001073707     0.000003839749     0.000001257906
      20       -0.000000165544     0.000000653328     0.000000119094
      21       -0.000000138794     0.000000147201     0.000000076086
      22       -0.000000968345    -0.000000373640    -0.000000851886
      23       -0.000000213235    -0.000000006285     0.000000070932
      24       -0.000001138418    -0.000000590462    -0.000000429473
      25        0.000000686021     0.000000338742     0.000000458681

  **** Optimization is complete! (in 8 steps) ****
    Final optimized geometry and variables:
    Molecular point group: c1

    Geometry (in Angstrom), charge = 0, multiplicity = 1:

    H           -3.112264449647    -0.955843391635     0.454227893209
    C           -3.112605442364    -0.952205302852    -0.643914946604
    C           -2.434718710367     0.230093294241    -1.291577854391
    O           -3.658972172860    -1.815896196992    -1.237397237408
    C           -1.319354047050     0.839976611194    -0.444459247177
    H           -2.067531483792    -0.081414174279    -2.261648353316
    H           -3.215823300230     0.966594875740    -1.463181974146
    C           -0.101381381592    -0.069637048202    -0.296045968887
    H           -1.013295456025     1.778223181544    -0.894536566545
    H           -1.709633884542     1.090847187640     0.538974887770
    C            1.007863938013     0.544358772751     0.553706968011
    H            0.287723004752    -0.303660321329    -1.283687213926
    H           -0.401760677153    -1.019084526966     0.141317178829
    C            2.229342236767    -0.363237865185     0.685686980379
    H            1.296620296064     1.496065450613     0.118873400630
    H            0.618782310327     0.766465356462     1.544865484681
    C            3.333998101442     0.175496193113     1.596358650704
    H            2.642366751065    -0.554913081586    -0.301987531691
    H            1.905998151290    -1.326674467210     1.070065689275
    C            4.025786349798     1.436322675987     1.083722160662
    H            4.080311902395    -0.602168587578     1.725288472165
    H            2.922851842776     0.366147848802     2.584215824852
    H            4.440472750285     1.277529765429     0.093369150085
    H            3.346269599236     2.278142822542     1.026634677989
    H            4.840396023610     1.720868482674     1.739736547400

  Mulliken Charges: (a.u.)
   Center  Symbol    Alpha    Beta     Spin     Total
       1     H     0.46186  0.46186  0.00000  0.07628
       2     C     2.90997  2.90997  0.00000  0.18006
       3     C     3.09064  3.09064  0.00000 -0.18128
       4     O     4.16544  4.16544  0.00000 -0.33088
       5     C     3.11568  3.11568  0.00000 -0.23136
       6     H     0.44082  0.44082  0.00000  0.11837
       7     H     0.43704  0.43704  0.00000  0.12592
       8     C     3.09084  3.09084  0.00000 -0.18169
       9     H     0.44292  0.44292  0.00000  0.11416
      10     H     0.45028  0.45028  0.00000  0.09944
      11     C     3.09281  3.09281  0.00000 -0.18561
      12     H     0.44982  0.44982  0.00000  0.10035
      13     H     0.44997  0.44997  0.00000  0.10006
      14     C     3.09564  3.09564  0.00000 -0.19129
      15     H     0.45110  0.45110  0.00000  0.09780
      16     H     0.45386  0.45386  0.00000  0.09228
      17     C     3.09072  3.09072  0.00000 -0.18144
      18     H     0.45300  0.45300  0.00000  0.09401
      19     H     0.44826  0.44826  0.00000  0.10347
      20     C     3.15269  3.15269  0.00000 -0.30537
      21     H     0.44758  0.44758  0.00000  0.10483
      22     H     0.45456  0.45456  0.00000  0.09087
      23     H     0.45450  0.45450  0.00000  0.09101
      24     H     0.45427  0.45427  0.00000  0.09147
      25     H     0.44573  0.44573  0.00000  0.10853

   Total alpha = 36.00000, Total beta = 36.00000, Total charge =  0.00000

*** Psi4 exiting successfully. Buy a developer a beer!
