  ==> Input File <==

--------------------------------------------------------------------------
set {
	reference rhf
	basis cc-pvtz
}

set_num_threads( 4 )
memory 2 gb

molecule MOL {
0 1

H	 -3.314020	 0.314797	 0.065542
C	 -2.691655	 0.015812	 -0.774787
O	 -1.401606	 -0.295183	 -0.366624
H	 -3.117983	 -0.868343	 -1.225789
H	 -2.696155	 0.819414	 -1.509013
C	 -0.718530	 0.758693	 0.228682
C	 0.718529	 0.758687	 -0.228709
H	 -1.176498	 1.708665	 -0.046615
H	 -0.748705	 0.673525	 1.312779
O	 1.401606	 -0.295166	 0.366636
H	 0.748705	 0.673477	 -1.312803
H	 1.176496	 1.708671	 0.046552
C	 2.714315	 -0.441627	 -0.061017
H	 2.765292	 -0.641548	 -1.128869
H	 3.305661	 0.447341	 0.150952
H	 3.143725	 -1.278506	 0.470147

	symmetry c1
}
set optking {
	frozen_dihedral = ("
		2 3 6 7
	")
}

ee = optimize('scf')
oeprop('DIPOLE', 'QUADRUPOLE', 'MULLIKEN_CHARGES')
f=open( 'psi4out.xyz', 'w' )
f.write( "16  " )
f.write( str(ee) + "\n" )
f.write( MOL.save_string_xyz() )
f.close()
--------------------------------------------------------------------------

    Molecular point group: c1
  Charge       = 0
  Multiplicity = 1
  Basis Set: CC-PVTZ
  Basis Set:
  @DF-RHF Final Energy:  -307.09449493971846
    Total Energy =                       -307.0944949397185724
    Molecular point group: c1
  Basis Set: CC-PVTZ
  Basis Set:
  Basis Set: CC-PVTZ
  Basis Set:
  @DF-RHF Final Energy:  -307.09469492957197
    Total Energy =                       -307.0946949295721424
  Basis Set: CC-PVTZ
  Basis Set:
  Basis Set: CC-PVTZ
  Basis Set:
  @DF-RHF Final Energy:  -307.09474708855709
    Total Energy =                       -307.0947470885571988
  Basis Set: CC-PVTZ
  Basis Set:
  Charge       = 0
  Multiplicity = 1
  Basis Set: CC-PVTZ
  Basis Set:

    Orbital Energies (a.u.)
    -----------------------

    Doubly Occupied:

       1A    -20.547496     2A    -20.545812     3A    -11.267646
       4A    -11.266961     5A    -11.263273     6A    -11.261383
       7A     -1.390098     8A     -1.372939     9A     -1.031514
      10A     -0.937977    11A     -0.894895    12A     -0.822483
      13A     -0.687898    14A     -0.679037    15A     -0.659366
      16A     -0.640452    17A     -0.627084    18A     -0.601639
      19A     -0.558151    20A     -0.529892    21A     -0.509321
      22A     -0.476877    23A     -0.472249    24A     -0.420099
      25A     -0.411046

  @DF-RHF Final Energy:  -307.09474816998159

   => Energetics <=

    Nuclear Repulsion Energy =            258.5268682100786464
    One-Electron Energy =                -931.4920539390624299
    Two-Electron Energy =                 365.8704375590020845
    DFT Exchange-Correlation Energy =       0.0000000000000000
    Empirical Dispersion Energy =           0.0000000000000000
    PCM Polarization Energy =               0.0000000000000000
    EFP Energy =                            0.0000000000000000
    Total Energy =                       -307.0947481699816990
    Molecular point group: c1
  Basis Set: CC-PVTZ
  Basis Set:

  -Total Gradient:
     Atom            X                  Y                   Z
    ------   -----------------  -----------------  -----------------
       1        0.000035127842     0.000003067199    -0.000001511844
       2        0.000705398056     0.000495285808    -0.001985549826
       3       -0.001299398365    -0.000346565928     0.002197491989
       4       -0.000032371257    -0.000003892177    -0.000009790592
       5        0.000034262391    -0.000000214199     0.000030209377
       6        0.000975309013    -0.001280457248     0.001260672389
       7       -0.000469901850     0.001269586361    -0.001500825136
       8        0.000005677949    -0.000023807836    -0.000009328544
       9        0.000037356467     0.000003463653    -0.000020733531
      10        0.000012891911    -0.000090413931     0.000031490896
      11       -0.000000626905    -0.000035427007     0.000033835172
      12        0.000011312085    -0.000011078790    -0.000005864257
      13       -0.000013937564     0.000022092298    -0.000031323784
      14        0.000006539612    -0.000003714275     0.000001286875
      15        0.000005172139    -0.000000155294     0.000002938946
      16       -0.000012811529     0.000002231364     0.000007001872

  **** Optimization is complete! (in 4 steps) ****
    Final optimized geometry and variables:
    Molecular point group: c1

    Geometry (in Angstrom), charge = 0, multiplicity = 1:

    H           -3.338898661424     0.236116667504     0.200221134908
    C           -2.704189351283    -0.079990170157    -0.624983382190
    O           -1.412415208958    -0.367590891887    -0.202896246956
    H           -3.118688071561    -0.982172374601    -1.051029847678
    H           -2.712373223830     0.699952004216    -1.383193075689
    C           -0.715887071300     0.693995348554     0.373728464742
    C            0.726305376469     0.690622359940    -0.072825579953
    H           -1.154112283080     1.643920179548     0.075595020583
    H           -0.764260767602     0.628628800392     1.456732046326
    O            1.395072935108    -0.386172544807     0.496036193869
    H            0.764137698610     0.635545208847    -1.158959513014
    H            1.192358035735     1.627926890378     0.233306676684
    C            2.710680688884    -0.530905246524     0.077298598692
    H            2.771080462557    -0.698210792424    -0.995756406238
    H            3.307233176447     0.346000493323     0.322579220009
    H            3.127417885564    -1.387513121579     0.586550850347

  Mulliken Charges: (a.u.)
   Center  Symbol    Alpha    Beta     Spin     Total
       1     H     0.47067  0.47067  0.00000  0.05865
       2     C     3.03016  3.03016  0.00000 -0.06033
       3     O     4.17323  4.17323  0.00000 -0.34646
       4     H     0.44821  0.44821  0.00000  0.10358
       5     H     0.47345  0.47345  0.00000  0.05309
       6     C     2.96387  2.96387  0.00000  0.07225
       7     C     2.95884  2.95884  0.00000  0.08232
       8     H     0.47696  0.47696  0.00000  0.04607
       9     H     0.46141  0.46141  0.00000  0.07718
      10     O     4.16903  4.16903  0.00000 -0.33806
      11     H     0.47383  0.47383  0.00000  0.05233
      12     H     0.47777  0.47777  0.00000  0.04446
      13     C     3.03184  3.03184  0.00000 -0.06368
      14     H     0.47079  0.47079  0.00000  0.05843
      15     H     0.47378  0.47378  0.00000  0.05244
      16     H     0.44615  0.44615  0.00000  0.10771

   Total alpha = 25.00000, Total beta = 25.00000, Total charge =  0.00000
