  ==> Input File <==

--------------------------------------------------------------------------
set {
	reference rhf
	basis 6-31G*
}

set_num_threads( 4 )
memory 2 gb

molecule MOL {
0 1

H	 -2.148721	 -0.186756	 -2.037748
O	 -2.221601	 -0.156094	 -1.094278
C	 -1.129437	 0.542214	 -0.558991
C	 0.135985	 -0.295880	 -0.603416
H	 -0.962854	 1.483389	 -1.075517
H	 -1.375460	 0.770018	 0.468641
O	 1.171513	 0.459272	 -0.058250
H	 0.365340	 -0.573644	 -1.634059
H	 -0.016041	 -1.216954	 -0.043867
C	 2.397842	 -0.198080	 -0.002151
H	 2.508049	 -0.905315	 -0.822092
H	 3.173794	 0.550865	 -0.078850
H	 2.517602	 -0.735921	 0.936026

	symmetry c1
}
set optking {
	frozen_dihedral = ("
		4 7 10 13
	")
}

ee = optimize('scf')
oeprop('DIPOLE', 'QUADRUPOLE', 'MULLIKEN_CHARGES')
f=open( 'psi4out.xyz', 'w' )
f.write( "13  " )
f.write( str(ee) + "\n" )
f.write( MOL.save_string_xyz() )
f.close()
--------------------------------------------------------------------------

    Molecular point group: c1
  Charge       = 0
  Multiplicity = 1
  Basis Set: 6-31G*
  Basis Set:
  @DF-RHF Final Energy:  -267.94865153912605
    Total Energy =                       -267.9486515391257626
    Molecular point group: c1
  Basis Set: 6-31G*
  Basis Set:
  Basis Set: 6-31G*
  Basis Set:
  @DF-RHF Final Energy:  -267.94874889346198
    Total Energy =                       -267.9487488934621524
  Basis Set: 6-31G*
  Basis Set:
  Basis Set: 6-31G*
  Basis Set:
  @DF-RHF Final Energy:  -267.94876580319578
    Total Energy =                       -267.9487658031957835
  Basis Set: 6-31G*
  Basis Set:
  Charge       = 0
  Multiplicity = 1
  Basis Set: 6-31G*
  Basis Set:

    Orbital Energies (a.u.)
    -----------------------

    Doubly Occupied:

       1A    -20.560628     2A    -20.559995     3A    -11.271078
       4A    -11.269982     5A    -11.268698     6A     -1.386453
       7A     -1.364734     8A     -1.018457     9A     -0.913503
      10A     -0.841631    11A     -0.708839    12A     -0.672846
      13A     -0.659950    14A     -0.635550    15A     -0.597017
      16A     -0.568081    17A     -0.547830    18A     -0.488916
      19A     -0.481959    20A     -0.438202    21A     -0.419256

  @DF-RHF Final Energy:  -267.94876606272544

   => Energetics <=

    Nuclear Repulsion Energy =            190.0519125659184567
    One-Electron Energy =                -742.6541438354925049
    Two-Electron Energy =                 284.6534652068485798
    DFT Exchange-Correlation Energy =       0.0000000000000000
    Empirical Dispersion Energy =           0.0000000000000000
    PCM Polarization Energy =               0.0000000000000000
    EFP Energy =                            0.0000000000000000
    Total Energy =                       -267.9487660627254968
    Molecular point group: c1
  Basis Set: 6-31G*
  Basis Set:

  -Total Gradient:
     Atom            X                  Y                   Z
    ------   -----------------  -----------------  -----------------
       1       -0.000018968309    -0.000009955117    -0.000009526972
       2       -0.000039595949     0.000003160300    -0.000046013973
       3        0.000002993389    -0.000026206104     0.000017610209
       4        0.000544813911     0.000855165452    -0.002185233099
       5       -0.000007647226     0.000004895804     0.000001884003
       6        0.000027252641     0.000002020094    -0.000001208700
       7       -0.000374627564    -0.000541115127     0.003534089418
       8        0.000010065288     0.000011738307     0.000008009791
       9       -0.000004610792     0.000006314469    -0.000008659410
      10       -0.001381208196    -0.002823052158    -0.002550150078
      11       -0.000010865390     0.000007295082    -0.000003470492
      12        0.000016267908     0.000004157293     0.000001213829
      13        0.001236130285     0.002505581706     0.001241455475

  **** Optimization is complete! (in 4 steps) ****
    Final optimized geometry and variables:
    Molecular point group: c1

    Geometry (in Angstrom), charge = 0, multiplicity = 1:

    H           -2.209998612538    -0.235424644014    -1.553428239419
    O           -2.281359130980    -0.206382833283    -0.609800227945
    C           -1.183631575633     0.483293855904    -0.074043889572
    C            0.075687113634    -0.363853452845    -0.118948501005
    H           -1.009391936061     1.422980387575    -0.590693206810
    H           -1.427807255821     0.713330394542     0.953485761384
    O            1.117457026651     0.389451430353     0.419173676000
    H            0.301225462502    -0.645214622994    -1.148790365630
    H           -0.084228821106    -1.281795623251     0.443368744316
    C            2.352683081292    -0.257061134106     0.480228893633
    H            2.485376290204    -0.954957153420    -0.341740684495
    H            3.125064300819     0.499119204447     0.419982924860
    H            2.470842094739    -0.784842960097     1.423120945857

  Mulliken Charges: (a.u.)
   Center  Symbol    Alpha    Beta     Spin     Total
       1     H     0.28129  0.28129  0.00000  0.43742
       2     O     4.37091  4.37091  0.00000 -0.74181
       3     C     3.00487  3.00487  0.00000 -0.00973
       4     C     2.99653  2.99653  0.00000  0.00694
       5     H     0.42232  0.42232  0.00000  0.15536
       6     H     0.40845  0.40845  0.00000  0.18311
       7     O     4.30981  4.30981  0.00000 -0.61961
       8     H     0.43705  0.43705  0.00000  0.12590
       9     H     0.42354  0.42354  0.00000  0.15292
      10     C     3.07821  3.07821  0.00000 -0.15642
      11     H     0.42923  0.42923  0.00000  0.14154
      12     H     0.41368  0.41368  0.00000  0.17263
      13     H     0.42412  0.42412  0.00000  0.15175

   Total alpha = 21.00000, Total beta = 21.00000, Total charge = -0.00000
