  ==> Input File <==

--------------------------------------------------------------------------
set {
	reference rhf
	basis 6-31G*
}

set_num_threads( 4 )
memory 2 gb

molecule MOL {
0 1

H	 -3.420663	 1.227371	 -1.044276
O	 -3.452007	 0.283848	 -0.965577
C	 -3.181085	 -0.079926	 0.364119
C	 -1.765924	 0.277073	 0.805136
H	 -3.327791	 -1.152017	 0.410903
H	 -3.905698	 0.375695	 1.036898
C	 -0.747380	 -0.833892	 0.546601
H	 -1.454042	 1.187946	 0.293274
H	 -1.788917	 0.518879	 1.866373
C	 0.673209	 -0.456859	 0.971983
H	 -0.758448	 -1.089232	 -0.508572
H	 -1.057862	 -1.730440	 1.080639
C	 1.686014	 -1.576038	 0.715566
H	 0.973404	 0.444318	 0.442660
H	 0.679035	 -0.204721	 2.031699
C	 3.107711	 -1.279656	 1.206575
H	 1.713990	 -1.798504	 -0.349996
H	 1.334275	 -2.482161	 1.204483
C	 3.808453	 -0.135112	 0.472147
H	 3.705037	 -2.181466	 1.095981
H	 3.082037	 -1.062557	 2.272601
H	 3.837879	 -0.318947	 -0.598590
H	 4.832576	 -0.026292	 0.815902
H	 3.310030	 0.815404	 0.631072

	symmetry c1
}
set optking {
	frozen_dihedral = ("
		7 4 3 2
	")
}

ee = optimize('scf')
oeprop('DIPOLE', 'QUADRUPOLE', 'MULLIKEN_CHARGES')
f=open( 'psi4out.xyz', 'w' )
f.write( "24  " )
f.write( str(ee) + "\n" )
f.write( MOL.save_string_xyz() )
f.close()
--------------------------------------------------------------------------

    Molecular point group: c1
  Charge       = 0
  Multiplicity = 1
  Basis Set: 6-31G*
  Basis Set:
  @DF-RHF Final Energy:  -349.24410091305975
    Total Energy =                       -349.2441009130599241
    Molecular point group: c1
  Basis Set: 6-31G*
  Basis Set:
  Basis Set: 6-31G*
  Basis Set:
  @DF-RHF Final Energy:  -349.24423279195821
    Total Energy =                       -349.2442327919580976
  Basis Set: 6-31G*
  Basis Set:
  Basis Set: 6-31G*
  Basis Set:
  @DF-RHF Final Energy:  -349.24427537532927
    Total Energy =                       -349.2442753753294369
  Basis Set: 6-31G*
  Basis Set:
  Basis Set: 6-31G*
  Basis Set:
  @DF-RHF Final Energy:  -349.24428194100528
    Total Energy =                       -349.2442819410050561
  Basis Set: 6-31G*
  Basis Set:
  Basis Set: 6-31G*
  Basis Set:
  @DF-RHF Final Energy:  -349.24428348314893
    Total Energy =                       -349.2442834831487062
  Basis Set: 6-31G*
  Basis Set:
  Charge       = 0
  Multiplicity = 1
  Basis Set: 6-31G*
  Basis Set:

    Orbital Energies (a.u.)
    -----------------------

    Doubly Occupied:

       1A    -20.551532     2A    -11.267294     3A    -11.217237
       4A    -11.214667     5A    -11.214338     6A    -11.213298
       7A    -11.212506     8A    -11.207630     9A     -1.358378
      10A     -1.089675    11A     -1.048751    12A     -0.984989
      13A     -0.914066    14A     -0.850616    15A     -0.804041
      16A     -0.777090    17A     -0.681716    18A     -0.649778
      19A     -0.623774    20A     -0.620434    21A     -0.595988
      22A     -0.583405    23A     -0.562920    24A     -0.535588
      25A     -0.517787    26A     -0.514978    27A     -0.493520
      28A     -0.478493    29A     -0.466199    30A     -0.459949
      31A     -0.456597    32A     -0.452188    33A     -0.416288

  @DF-RHF Final Energy:  -349.24428400237554

   => Energetics <=

    Nuclear Repulsion Energy =            382.3715201940394195
    One-Electron Energy =               -1231.1601922188249318
    Two-Electron Energy =                 499.5443880224098621
    DFT Exchange-Correlation Energy =       0.0000000000000000
    Empirical Dispersion Energy =           0.0000000000000000
    PCM Polarization Energy =               0.0000000000000000
    EFP Energy =                            0.0000000000000000
    Total Energy =                       -349.2442840023755934
    Molecular point group: c1
  Basis Set: 6-31G*
  Basis Set:

  -Total Gradient:
     Atom            X                  Y                   Z
    ------   -----------------  -----------------  -----------------
       1       -0.000013644723     0.000062782128    -0.000038134983
       2       -0.001368932492     0.003572490835     0.001433957932
       3        0.001669432269    -0.005487473176    -0.000436207638
       4        0.000489079901     0.003206893692    -0.004150668278
       5        0.000013043996    -0.000036293191    -0.000029823637
       6        0.000002603149     0.000030858990    -0.000030236484
       7       -0.000792152068    -0.001519238940     0.003212741448
       8        0.000082190991     0.000019468065    -0.000036392877
       9       -0.000078163982     0.000061506338     0.000003818515
      10       -0.000014340553     0.000049154537    -0.000026796004
      11       -0.000011784971     0.000030645221     0.000129150847
      12       -0.000036518199    -0.000021385821    -0.000016158584
      13       -0.000007763461     0.000017907318    -0.000002934563
      14       -0.000003160859    -0.000011604862    -0.000003644092
      15        0.000019480307     0.000019372288    -0.000017043937
      16       -0.000012943936     0.000011658981     0.000034620437
      17        0.000011311560     0.000027143243    -0.000006274959
      18        0.000001786630    -0.000016942603    -0.000024365332
      19        0.000016567962    -0.000006002576    -0.000004784419
      20        0.000001792471    -0.000007026709     0.000019325516
      21       -0.000003809574     0.000019479825    -0.000002477202
      22       -0.000004334132     0.000003043786    -0.000010163150
      23        0.000001113155    -0.000010889006    -0.000004857174
      24        0.000039146560    -0.000015548360     0.000007348622

  **** Optimization is complete! (in 6 steps) ****
    Final optimized geometry and variables:
    Molecular point group: c1

    Geometry (in Angstrom), charge = 0, multiplicity = 1:

    H           -3.367523223844     1.701379328956    -1.516947158140
    O           -3.393758590953     0.756435266411    -1.465458320265
    C           -3.150108452721     0.360926639218    -0.138704491501
    C           -1.737812103276     0.712368744697     0.340941306078
    H           -3.308451371817    -0.709369660442    -0.112208554253
    H           -3.890838545329     0.811400922791     0.519333266782
    C           -0.712079427464    -0.391298317400     0.075719513285
    H           -1.425475165914     1.639723597955    -0.135147521013
    H           -1.766271587039     0.913327232572     1.410367972519
    C            0.710185266211    -0.008676819594     0.488592705915
    H           -0.728526685399    -0.645499771969    -0.981803737046
    H           -1.015562358516    -1.288279221204     0.612354257511
    C            1.723355058279    -1.129504573786     0.240743356015
    H            1.005574543230     0.886440924290    -0.052983637878
    H            0.720012217960     0.255827950962     1.545361596229
    C            3.145994622699    -0.826870100050     0.725218636473
    H            1.748967099393    -1.362413257472    -0.822568081643
    H            1.373910803623    -2.031156729136     0.739706487205
    C            3.846556664449     0.305823557484    -0.027475196782
    H            3.742305816185    -1.730763352803     0.627344597326
    H            3.121950763874    -0.593776185869     1.787908199063
    H            3.872926234467     0.106563508250    -1.095475808601
    H            4.871710894255     0.417812475654     0.312134995724
    H            3.350084648375     1.259326174721     0.118940604523

  Mulliken Charges: (a.u.)
   Center  Symbol    Alpha    Beta     Spin     Total
       1     H     0.28335  0.28335  0.00000  0.43331
       2     O     4.36972  4.36972  0.00000 -0.73943
       3     C     2.99823  2.99823  0.00000  0.00353
       4     C     3.16462  3.16462  0.00000 -0.32924
       5     H     0.41443  0.41443  0.00000  0.17113
       6     H     0.42922  0.42922  0.00000  0.14156
       7     C     3.15594  3.15594  0.00000 -0.31189
       8     H     0.42431  0.42431  0.00000  0.15137
       9     H     0.42328  0.42328  0.00000  0.15344
      10     C     3.15404  3.15404  0.00000 -0.30808
      11     H     0.41428  0.41428  0.00000  0.17144
      12     H     0.42358  0.42358  0.00000  0.15283
      13     C     3.15254  3.15254  0.00000 -0.30508
      14     H     0.42144  0.42144  0.00000  0.15712
      15     H     0.42525  0.42525  0.00000  0.14949
      16     C     3.15235  3.15235  0.00000 -0.30470
      17     H     0.42315  0.42315  0.00000  0.15369
      18     H     0.42251  0.42251  0.00000  0.15497
      19     C     3.24106  3.24106  0.00000 -0.48213
      20     H     0.42099  0.42099  0.00000  0.15802
      21     H     0.42378  0.42378  0.00000  0.15244
      22     H     0.42193  0.42193  0.00000  0.15615
      23     H     0.41948  0.41948  0.00000  0.16104
      24     H     0.42049  0.42049  0.00000  0.15901

   Total alpha = 33.00000, Total beta = 33.00000, Total charge =  0.00000
