                              Psi4 1.0.54 Driver

  ==> Input File <==

--------------------------------------------------------------------------
set {
	reference rhf
	basis cc-pvtz
}

set_num_threads( 4 )
memory 2 gb

molecule MOL {
0 1

O	 -2.071633	 -1.227563	 -0.223463
C	 -1.652164	 -0.152425	 0.058082
C	 -0.327811	 0.006324	 0.778296
C	 -2.402515	 1.108629	 -0.298924
C	 0.843231	 -0.001575	 -0.211665
H	 -0.319484	 0.928173	 1.350354
H	 -0.227804	 -0.823091	 1.466705
C	 1.046676	 -1.361697	 -0.872655
H	 1.758313	 0.288071	 0.298652
H	 0.660506	 0.750491	 -0.971516
C	 2.202341	 -1.370979	 -1.867398
H	 1.223143	 -2.111877	 -0.106748
H	 0.131147	 -1.651872	 -1.379749
H	 3.139265	 -1.118399	 -1.382206
H	 2.038744	 -0.652427	 -2.663192
H	 2.318658	 -2.347743	 -2.322155
H	 -3.240910	 0.874416	 -0.936711
H	 -1.747554	 1.818823	 -0.790984
H	 -2.760419	 1.579708	 0.610998

	symmetry c1
}
set optking {
	frozen_dihedral = ("
		9 5 3 2
	")
}

ee,wfn = optimize('scf', return_wfn=True)
oeprop( wfn, 'DIPOLE', 'QUADRUPOLE', 'MULLIKEN_CHARGES')
f=open( 'psi4out.xyz', 'w' )
f.write( "19  " )
f.write( str(ee) + "\n" )
f.write( MOL.save_string_xyz() )
f.close()
--------------------------------------------------------------------------

    Molecular point group: c1
  Charge       = 0
  Multiplicity = 1
  Basis Set: CC-PVTZ
  Basis Set:
  @DF-RHF Final Energy:  -309.17520801308643
    Total Energy =                       -309.1752080130864897
    Molecular point group: c1
  Basis Set: CC-PVTZ
  Basis Set:
  Basis Set: CC-PVTZ
  Basis Set:
  @DF-RHF Final Energy:  -309.17579727960236
    Total Energy =                       -309.1757972796023637
  Basis Set: CC-PVTZ
  Basis Set:
  Basis Set: CC-PVTZ
  Basis Set:
  @DF-RHF Final Energy:  -309.17568868300805
    Total Energy =                       -309.1756886830078770
  Basis Set: CC-PVTZ
  Basis Set:
  Basis Set: CC-PVTZ
  Basis Set:
  @DF-RHF Final Energy:  -309.17585252459753
    Total Energy =                       -309.1758525245971896
  Basis Set: CC-PVTZ
  Basis Set:
  Basis Set: CC-PVTZ
  Basis Set:
  @DF-RHF Final Energy:  -309.17606037315375
    Total Energy =                       -309.1760603731532910
  Basis Set: CC-PVTZ
  Basis Set:
  Basis Set: CC-PVTZ
  Basis Set:
  @DF-RHF Final Energy:  -309.17609093047895
    Total Energy =                       -309.1760909304786082
  Basis Set: CC-PVTZ
  Basis Set:
  Basis Set: CC-PVTZ
  Basis Set:
  @DF-RHF Final Energy:  -309.17609906105673
    Total Energy =                       -309.1760990610569024
  Basis Set: CC-PVTZ
  Basis Set:
  Charge       = 0
  Multiplicity = 1
  Basis Set: CC-PVTZ
  Basis Set:

    Orbital Energies (a.u.)
    -----------------------

    Doubly Occupied:

       1A    -20.537715     2A    -11.319737     3A    -11.230245
       4A    -11.228659     5A    -11.226835     6A    -11.216861
       7A    -11.210424     8A     -1.397444     9A     -1.091518
      10A     -1.028477    11A     -0.983160    12A     -0.890464
      13A     -0.809119    14A     -0.733268    15A     -0.662238
      16A     -0.645029    17A     -0.623267    18A     -0.610707
      19A     -0.586823    20A     -0.575112    21A     -0.551503
      22A     -0.539464    23A     -0.518977    24A     -0.499896
      25A     -0.482246    26A     -0.472240    27A     -0.464382
      28A     -0.399839

  @DF-RHF Final Energy:  -309.17609984216864

   => Energetics <=

    Nuclear Repulsion Energy =            307.8219252411243474
    One-Electron Energy =               -1028.9247504916397702
    Two-Electron Energy =                 411.9267254083463285
    DFT Exchange-Correlation Energy =       0.0000000000000000
    Empirical Dispersion Energy =           0.0000000000000000
    PCM Polarization Energy =               0.0000000000000000
    EFP Energy =                            0.0000000000000000
    Total Energy =                       -309.1760998421691511
    Molecular point group: c1
  Basis Set: CC-PVTZ
  Basis Set:

  -Total Gradient:
     Atom            X                  Y                   Z
    ------   -----------------  -----------------  -----------------
       1       -0.000087143794    -0.000108323786    -0.000010029733
       2        0.000047343786     0.000356551897    -0.000055556400
       3        0.000022499722    -0.000311065518     0.000035526933
       4       -0.000054469422     0.000004826649     0.000044936198
       5        0.000107052267    -0.000356868074     0.000072017645
       6        0.000014809264    -0.000001109733    -0.000000689417
       7        0.000025606078     0.000004445862    -0.000026237984
       8        0.000007028720    -0.000006571948     0.000001694376
       9       -0.000064018638     0.000382503109    -0.000084967944
      10       -0.000020429885    -0.000007897302     0.000029220737
      11        0.000002558976     0.000006440419     0.000019407958
      12       -0.000003608257    -0.000015067790     0.000010285466
      13       -0.000003392356     0.000019276441     0.000001968386
      14        0.000004432833     0.000005264046    -0.000002314889
      15       -0.000002977608     0.000006488564    -0.000010986219
      16       -0.000004768193    -0.000005928017     0.000012181051
      17       -0.000007561581     0.000003877108    -0.000015859887
      18        0.000017918170    -0.000002046175    -0.000028434177
      19       -0.000000880083     0.000025204246     0.000007837900

  **** Optimization is complete! (in 8 steps) ****
    Final optimized geometry and variables:
    Molecular point group: c1

    Geometry (in Angstrom), charge = 0, multiplicity = 1:

    O           -1.883306388176    -0.786835659858     0.443637089468
    C           -1.331576706960     0.262889533562     0.519415257075
    C            0.034323516614     0.397127300719     1.163351328825
    C           -1.970794623468     1.525081504700    -0.013507052291
    C            1.182171037743     0.411987242703     0.141053993634
    H            0.062421949323     1.316940874606     1.738457415070
    H            0.159116295074    -0.433365017644     1.845616272855
    C            1.398609157886    -0.918278539435    -0.576329338850
    H            2.091322810228     0.687505634839     0.665702571954
    H            1.012936251055     1.196412132573    -0.591502295594
    C            2.559793186563    -0.867477733844    -1.563598640364
    H            1.583540372375    -1.692908682892     0.161743920433
    H            0.492821642549    -1.209250001023    -1.096122109919
    H            3.489475096984    -0.612932400215    -1.065273544028
    H            2.386362196909    -0.125583322316    -2.336290952445
    H            2.698032130131    -1.824980148381    -2.051640251732
    H           -2.842179231585     1.276983113877    -0.599794026353
    H           -1.272385926033     2.099107968392    -0.610340290512
    H           -2.267865673394     2.149363681467     0.823263552199

  Mulliken Charges: (a.u.)
   Center  Symbol    Alpha    Beta     Spin     Total
       1     O     4.17627  4.17627  0.00000 -0.35253
       2     C     2.85683  2.85683  0.00000  0.28634
       3     C     3.10640  3.10640  0.00000 -0.21280
       4     C     3.15447  3.15447  0.00000 -0.30894
       5     C     3.10864  3.10864  0.00000 -0.21728
       6     H     0.44136  0.44136  0.00000  0.11727
       7     H     0.43919  0.43919  0.00000  0.12161
       8     C     3.08060  3.08060  0.00000 -0.16119
       9     H     0.44450  0.44450  0.00000  0.11101
      10     H     0.45140  0.45140  0.00000  0.09721
      11     C     3.15001  3.15001  0.00000 -0.30001
      12     H     0.45153  0.45153  0.00000  0.09694
      13     H     0.44549  0.44549  0.00000  0.10903
      14     H     0.45556  0.45556  0.00000  0.08888
      15     H     0.45582  0.45582  0.00000  0.08836
      16     H     0.44609  0.44609  0.00000  0.10782
      17     H     0.43622  0.43622  0.00000  0.12756
      18     H     0.45108  0.45108  0.00000  0.09783
      19     H     0.44855  0.44855  0.00000  0.10290

   Total alpha = 28.00000, Total beta = 28.00000, Total charge =  0.00000

*** Psi4 exiting successfully. Buy a developer a beer!
