  ==> Input File <==

--------------------------------------------------------------------------
set {
	reference rhf
	basis 6-31G*
}

set_num_threads( 4 )
memory 2 gb

molecule MOL {
0 1

H	 -2.098997	 -0.674324	 -0.616650
O	 -2.035884	 -0.060112	 0.102722
C	 -0.955155	 0.788182	 -0.092531
C	 0.353668	 0.040312	 -0.004810
H	 -0.985057	 1.290372	 -1.054184
H	 -0.974469	 1.533190	 0.688632
F	 1.070298	 0.471682	 1.027146
F	 0.136669	 -1.253391	 0.169668
F	 1.091151	 0.185261	 -1.086780

	symmetry c1
}
set optking {
	frozen_dihedral = ("
		7 4 3 5
	")
}

ee = optimize('scf')
oeprop('DIPOLE', 'QUADRUPOLE', 'MULLIKEN_CHARGES')
f=open( 'psi4out.xyz', 'w' )
f.write( "9  " )
f.write( str(ee) + "\n" )
f.write( MOL.save_string_xyz() )
f.close()
--------------------------------------------------------------------------

    Molecular point group: c1
  Charge       = 0
  Multiplicity = 1
  Basis Set: 6-31G*
  Basis Set:
  @DF-RHF Final Energy:  -450.65417177208150
    Total Energy =                       -450.6541717720813267
    Molecular point group: c1
  Basis Set: 6-31G*
  Basis Set:
  Basis Set: 6-31G*
  Basis Set:
  @DF-RHF Final Energy:  -450.65485862441778
    Total Energy =                       -450.6548586244181251
  Basis Set: 6-31G*
  Basis Set:
  Basis Set: 6-31G*
  Basis Set:
  @DF-RHF Final Energy:  -450.65556714567521
    Total Energy =                       -450.6555671456749224
  Basis Set: 6-31G*
  Basis Set:
  Basis Set: 6-31G*
  Basis Set:
  @DF-RHF Final Energy:  -450.65561051445314
    Total Energy =                       -450.6556105144529738
  Basis Set: 6-31G*
  Basis Set:
  Basis Set: 6-31G*
  Basis Set:
  @DF-RHF Final Energy:  -450.65561421846320
    Total Energy =                       -450.6556142184630289
  Basis Set: 6-31G*
  Basis Set:
  Charge       = 0
  Multiplicity = 1
  Basis Set: 6-31G*
  Basis Set:

    Orbital Energies (a.u.)
    -----------------------

    Doubly Occupied:

       1A    -26.344245     2A    -26.339818     3A    -26.339223
       4A    -20.589590     5A    -11.501898     6A    -11.309631
       7A     -1.740312     8A     -1.639316     9A     -1.634497
      10A     -1.401450    11A     -1.042653    12A     -0.924045
      13A     -0.828765    14A     -0.827759    15A     -0.808081
      16A     -0.723638    17A     -0.712115    18A     -0.698301
      19A     -0.663982    20A     -0.657915    21A     -0.641177
      22A     -0.627045    23A     -0.612222    24A     -0.526024
      25A     -0.479767

  @DF-RHF Final Energy:  -450.65561452572558

   => Energetics <=

    Nuclear Repulsion Energy =            275.8934649085946376
    One-Electron Energy =               -1173.8712168086744896
    Two-Electron Energy =                 447.3221373743543836
    DFT Exchange-Correlation Energy =       0.0000000000000000
    Empirical Dispersion Energy =           0.0000000000000000
    PCM Polarization Energy =               0.0000000000000000
    EFP Energy =                            0.0000000000000000
    Total Energy =                       -450.6556145257254684
    Molecular point group: c1
  Basis Set: 6-31G*
  Basis Set:

  -Total Gradient:
     Atom            X                  Y                   Z
    ------   -----------------  -----------------  -----------------
       1       -0.000014082029     0.000005039777     0.000001602872
       2        0.000023172201    -0.000020862657    -0.000002337494
       3       -0.000922343417    -0.001855109579    -0.001491367911
       4       -0.000972108678    -0.001472600217     0.001705951599
       5        0.001003204587     0.001872895731     0.000948077505
       6        0.000007441905     0.000008959863    -0.000000175484
       7        0.000841051312     0.001342863543    -0.001122190539
       8       -0.000008661859     0.000085172083     0.000020829834
       9        0.000042325978     0.000033641453    -0.000060390381

  **** Optimization is complete! (in 6 steps) ****
    Final optimized geometry and variables:
    Molecular point group: c1

    Geometry (in Angstrom), charge = 0, multiplicity = 1:

    H           -2.124880870032    -0.696594644778    -0.577347029406
    O           -2.080037503708    -0.018001911686     0.082414838177
    C           -0.970227924881     0.786625051128    -0.121581945170
    C            0.357229441660     0.028015398504    -0.004255370777
    H           -0.981396466834     1.286883686514    -1.083678375135
    H           -0.986108093387     1.542877576792     0.648140994170
    F            1.070616294756     0.440178079706     1.029597706598
    F            0.178547554502    -1.273857811605     0.117465720293
    F            1.106318978737     0.221122722044    -1.083234917705

  Mulliken Charges: (a.u.)
   Center  Symbol    Alpha    Beta     Spin     Total
       1     H     0.27365  0.27365  0.00000  0.45269
       2     O     4.35855  4.35855  0.00000 -0.71709
       3     C     3.07212  3.07212  0.00000 -0.14425
       4     C     2.45391  2.45391  0.00000  1.09219
       5     H     0.40494  0.40494  0.00000  0.19012
       6     H     0.39117  0.39117  0.00000  0.21767
       7     F     4.68108  4.68108  0.00000 -0.36216
       8     F     4.67888  4.67888  0.00000 -0.35777
       9     F     4.68570  4.68570  0.00000 -0.37140

   Total alpha = 25.00000, Total beta = 25.00000, Total charge =  0.00000
