                              Psi4 1.0.54 Driver

  ==> Input File <==

--------------------------------------------------------------------------
set {
	reference rhf
	basis cc-pvtz
}

set_num_threads( 4 )
memory 2 gb

molecule MOL {
0 1

O	 -0.207832	 0.421413	 0.926788
C	 0.485107	 0.171416	 -0.000134
C	 1.606966	 -0.836201	 0.000174
O	 0.362348	 0.755078	 -1.179479
C	 2.988788	 -0.202529	 -0.000115
H	 1.465110	 -1.474645	 -0.864821
H	 1.465209	 -1.474077	 0.865596
H	 3.131767	 0.419673	 -0.873407
H	 3.750876	 -0.972315	 0.000098
H	 3.131883	 0.420264	 0.872742
C	 -0.657577	 1.732103	 -1.332656
C	 -0.593948	 2.247428	 -2.751416
H	 -0.497955	 2.524519	 -0.615060
H	 -1.615260	 1.279555	 -1.117322
H	 0.369523	 2.697288	 -2.955678
H	 -1.361418	 2.997310	 -2.902737
H	 -0.754206	 1.445272	 -3.460807

	symmetry c1
}
set optking {
	frozen_dihedral = ("
		4 2 3 6
	")
}

ee,wfn = optimize('scf', return_wfn=True)
oeprop( wfn, 'DIPOLE', 'QUADRUPOLE', 'MULLIKEN_CHARGES')
f=open( 'psi4out.xyz', 'w' )
f.write( "17  " )
f.write( str(ee) + "\n" )
f.write( MOL.save_string_xyz() )
f.close()
--------------------------------------------------------------------------

    Molecular point group: c1
  Charge       = 0
  Multiplicity = 1
  Basis Set: CC-PVTZ
  Basis Set:
  @DF-RHF Final Energy:  -345.03869131380998
    Total Energy =                       -345.0386913138103750
    Molecular point group: c1
  Basis Set: CC-PVTZ
  Basis Set:
  Basis Set: CC-PVTZ
  Basis Set:
  @DF-RHF Final Energy:  -345.03903760859947
    Total Energy =                       -345.0390376085993012
  Basis Set: CC-PVTZ
  Basis Set:
  Basis Set: CC-PVTZ
  Basis Set:
  @DF-RHF Final Energy:  -345.03791674023694
    Total Energy =                       -345.0379167402368239
  Basis Set: CC-PVTZ
  Basis Set:
  Basis Set: CC-PVTZ
  Basis Set:
  @DF-RHF Final Energy:  -345.03912146756159
    Total Energy =                       -345.0391214675619267
  Basis Set: CC-PVTZ
  Basis Set:
  Basis Set: CC-PVTZ
  Basis Set:
  @DF-RHF Final Energy:  -345.03913840680877
    Total Energy =                       -345.0391384068090019
  Basis Set: CC-PVTZ
  Basis Set:
  Charge       = 0
  Multiplicity = 1
  Basis Set: CC-PVTZ
  Basis Set:

    Orbital Energies (a.u.)
    -----------------------

    Doubly Occupied:

       1A    -20.594188     2A    -20.531532     3A    -11.362529
       4A    -11.282699     5A    -11.234745     6A    -11.224262
       7A    -11.220675     8A     -1.470216     9A     -1.363708
      10A     -1.073881    11A     -1.031682    12A     -0.908612
      13A     -0.856466    14A     -0.779501    15A     -0.695930
      16A     -0.683583    17A     -0.672203    18A     -0.619451
      19A     -0.597725    20A     -0.575308    21A     -0.553901
      22A     -0.542891    23A     -0.526796    24A     -0.507695
      25A     -0.506284    26A     -0.498390    27A     -0.455251
      28A     -0.434517

  @DF-RHF Final Energy:  -345.03913871461310

   => Energetics <=

    Nuclear Repulsion Energy =            317.3947318765794421
    One-Electron Energy =               -1099.2585007521449825
    Two-Electron Energy =                 436.8246301609525517
    DFT Exchange-Correlation Energy =       0.0000000000000000
    Empirical Dispersion Energy =           0.0000000000000000
    PCM Polarization Energy =               0.0000000000000000
    EFP Energy =                            0.0000000000000000
    Total Energy =                       -345.0391387146129318
    Molecular point group: c1
  Basis Set: CC-PVTZ
  Basis Set:

  -Total Gradient:
     Atom            X                  Y                   Z
    ------   -----------------  -----------------  -----------------
       1        0.000026182675    -0.000015639179    -0.000137552404
       2       -0.000053445503     0.000024036613    -0.000014895779
       3        0.000082738414     0.000063523975     0.000023856854
       4       -0.000015254952    -0.000046974744     0.000122624330
       5       -0.000055387448    -0.000048685710    -0.000010943154
       6       -0.000004411087    -0.000031290971     0.000016282914
       7        0.000006250528     0.000009162546    -0.000015298521
       8        0.000009057436     0.000004384792    -0.000006183311
       9        0.000004103498     0.000002318009    -0.000001613052
      10       -0.000009613137    -0.000005599739     0.000003140646
      11        0.000064318272     0.000076786252     0.000015653754
      12       -0.000017234566    -0.000016698688     0.000012326612
      13       -0.000023117096     0.000008479359    -0.000016617974
      14       -0.000010762937    -0.000017396212    -0.000003769540
      15       -0.000000138183    -0.000002723957     0.000013856159
      16       -0.000002150523    -0.000001137836     0.000001039124
      17       -0.000001135390    -0.000002544509    -0.000001906650

  **** Optimization is complete! (in 6 steps) ****
    Final optimized geometry and variables:
    Molecular point group: c1

    Geometry (in Angstrom), charge = 0, multiplicity = 1:

    O           -0.695060109977    -0.188878667397     1.594612826029
    C           -0.050654989024    -0.458428552693     0.638103139104
    C            1.073905396499    -1.461678549123     0.618275255201
    O           -0.231888685199     0.106350078217    -0.543075628370
    C            2.441987450231    -0.786668453601     0.499954872230
    H            0.920976739125    -2.130637191850    -0.219770361666
    H            1.009127049662    -2.032476277618     1.532603937089
    H            2.522003159121    -0.224755694727    -0.421114261457
    H            3.226093795570    -1.532953989496     0.510456839743
    H            2.613109983337    -0.110738663928     1.329271861080
    C           -1.245466067868     1.095461696165    -0.656408070120
    C           -1.258494459180     1.582517869100    -2.086429428800
    H           -1.033490796594     1.898889562270     0.034894025677
    H           -2.194604701903     0.660839248670    -0.376473262757
    H           -0.303392921079     2.015842593176    -2.355643513723
    H           -2.024327454035     2.339498737814    -2.207592724722
    H           -1.469909297259     0.769149197010    -2.769154057104

  Mulliken Charges: (a.u.)
   Center  Symbol    Alpha    Beta     Spin     Total
       1     O     4.20016  4.20016  0.00000 -0.40031
       2     C     2.80539  2.80539  0.00000  0.38922
       3     C     3.08359  3.08359  0.00000 -0.16717
       4     O     4.15480  4.15480  0.00000 -0.30960
       5     C     3.15128  3.15128  0.00000 -0.30257
       6     H     0.44714  0.44714  0.00000  0.10572
       7     H     0.43739  0.43739  0.00000  0.12522
       8     H     0.44720  0.44720  0.00000  0.10560
       9     H     0.44752  0.44752  0.00000  0.10497
      10     H     0.44840  0.44840  0.00000  0.10321
      11     C     2.97932  2.97932  0.00000  0.04135
      12     C     3.13343  3.13343  0.00000 -0.26687
      13     H     0.45453  0.45453  0.00000  0.09094
      14     H     0.45273  0.45273  0.00000  0.09454
      15     H     0.45158  0.45158  0.00000  0.09685
      16     H     0.45416  0.45416  0.00000  0.09169
      17     H     0.45139  0.45139  0.00000  0.09723

   Total alpha = 28.00000, Total beta = 28.00000, Total charge = -0.00000

*** Psi4 exiting successfully. Buy a developer a beer!
