  ==> Input File <==

--------------------------------------------------------------------------
set {
	reference rhf
	basis 6-31G*
}

set_num_threads( 1 )
memory 2 gb

molecule MOL {
0 1

H	 -0.526506	 -1.609403	 0.300340
N	 -0.626943	 -0.667432	 -0.000092
C	 -1.936801	 -0.217709	 -0.413296
C	 0.469286	 0.129090	 0.000148
H	 -2.298578	 -0.797387	 -1.255968
H	 -1.860823	 0.816592	 -0.706855
H	 -2.650974	 -0.301613	 0.399077
C	 1.788933	 -0.616240	 -0.000037
O	 0.411098	 1.327768	 -0.000049
H	 1.872803	 -1.245775	 -0.880381
H	 2.595421	 0.101576	 0.003713
H	 1.870096	 -1.252171	 0.875943

	symmetry c1
}
set optking {
	frozen_dihedral = ("
		4 2 3 5
	")
}

ee = energy('scf')
oeprop('DIPOLE', 'QUADRUPOLE', 'MULLIKEN_CHARGES')
f=open( 'psi4out.xyz', 'w' )
f.write( "12  " )
f.write( str(ee) + "\n" )
f.write( MOL.save_string_xyz() )
f.close()
--------------------------------------------------------------------------

    Molecular point group: c1

    Geometry (in Angstrom), charge = 0, multiplicity = 1:

       Center              X                  Y                   Z               Mass
    ------------   -----------------  -----------------  -----------------  -----------------
           H         -0.535362467279    -1.597239078998     0.385679890933     1.007825032070
           N         -0.635799467279    -0.655268078998     0.085247890933    14.003074004780
           C         -1.945657467279    -0.205545078998    -0.327956109067    12.000000000000
           C          0.460429532721     0.141253921002     0.085487890933    12.000000000000
           H         -2.307434467279    -0.785223078998    -1.170628109067     1.007825032070
           H         -1.869679467279     0.828755921002    -0.621515109067     1.007825032070
           H         -2.659830467279    -0.289449078998     0.484416890933     1.007825032070
           C          1.780076532721    -0.604076078998     0.085302890933    12.000000000000
           O          0.402241532721     1.339931921002     0.085290890933    15.994914619560
           H          1.863946532721    -1.233611078998    -0.795041109067     1.007825032070
           H          2.586564532721     0.113739921002     0.089052890933     1.007825032070
           H          1.861239532721    -1.240007078998     0.961282890933     1.007825032070

  Charge       = 0
  Multiplicity = 1
  Basis Set: 6-31G*
  Basis Set:

    Orbital Energies (a.u.)
    -----------------------

    Doubly Occupied:

       1A    -20.518532     2A    -15.578078     3A    -11.343508
       4A    -11.254701     5A    -11.229068     6A     -1.385113
       7A     -1.227336     8A     -1.014787     9A     -0.931991
      10A     -0.786150    11A     -0.688645    12A     -0.647794
      13A     -0.632772    14A     -0.585721    15A     -0.580430
      16A     -0.555802    17A     -0.545536    18A     -0.504463
      19A     -0.414008    20A     -0.382541

  @DF-RHF Final Energy:  -247.00104705298565

   => Energetics <=

    Nuclear Repulsion Energy =            181.1953252913040728
    One-Electron Energy =                -694.7786142851515478
    Two-Electron Energy =                 266.5822419408621045
    DFT Exchange-Correlation Energy =       0.0000000000000000
    Empirical Dispersion Energy =           0.0000000000000000
    PCM Polarization Energy =               0.0000000000000000
    EFP Energy =                            0.0000000000000000
    Total Energy =                       -247.0010470529853137

  Mulliken Charges: (a.u.)
   Center  Symbol    Alpha    Beta     Spin     Total
       1     H     0.31139  0.31139  0.00000  0.37722
       2     N     3.89152  3.89152  0.00000 -0.78305
       3     C     3.14077  3.14077  0.00000 -0.28153
       4     C     2.63452  2.63452  0.00000  0.73096
       5     H     0.41741  0.41741  0.00000  0.16519
       6     H     0.38859  0.38859  0.00000  0.22283
       7     H     0.41608  0.41608  0.00000  0.16785
       8     C     3.29242  3.29242  0.00000 -0.58485
       9     O     4.29762  4.29762  0.00000 -0.59523
      10     H     0.40582  0.40582  0.00000  0.18835
      11     H     0.39306  0.39306  0.00000  0.21388
      12     H     0.41081  0.41081  0.00000  0.17837

   Total alpha = 20.00000, Total beta = 20.00000, Total charge = -0.00000
