  ==> Input File <==

--------------------------------------------------------------------------
set {
	reference rhf
	basis cc-pvtz
}

set_num_threads( 4 )
memory 2 gb

molecule MOL {
0 1

H	 1.289669	 -2.201457	 0.517996
C	 0.336576	 -1.711191	 0.623282
O	 0.462329	 -0.453336	 -0.000137
H	 0.106420	 -1.603443	 1.675725
H	 -0.426483	 -2.310127	 0.142393
C	 -0.590565	 0.341382	 0.000062
O	 -1.693898	 -0.053880	 0.000252
H	 -0.340426	 1.403822	 0.000200

	symmetry c1
}
set optking {
	frozen_dihedral = ("
		2 3 6 7
	")
}

ee = optimize('scf')
oeprop('DIPOLE', 'QUADRUPOLE', 'MULLIKEN_CHARGES')
f=open( 'psi4out.xyz', 'w' )
f.write( "8  " )
f.write( str(ee) + "\n" )
f.write( MOL.save_string_xyz() )
f.close()
--------------------------------------------------------------------------

    Molecular point group: c1
  Charge       = 0
  Multiplicity = 1
  Basis Set: CC-PVTZ
  Basis Set:
  @DF-RHF Final Energy:  -227.87253048327605
    Total Energy =                       -227.8725304832759377
    Molecular point group: c1
  Basis Set: CC-PVTZ
  Basis Set:
  Basis Set: CC-PVTZ
  Basis Set:
  @DF-RHF Final Energy:  -227.86805619244439
    Total Energy =                       -227.8680561924443850
  Basis Set: CC-PVTZ
  Basis Set:
  Basis Set: CC-PVTZ
  Basis Set:
  @DF-RHF Final Energy:  -227.87308304866923
    Total Energy =                       -227.8730830486692014
  Basis Set: CC-PVTZ
  Basis Set:
  Basis Set: CC-PVTZ
  Basis Set:
  @DF-RHF Final Energy:  -227.87384183493435
    Total Energy =                       -227.8738418349342396
  Basis Set: CC-PVTZ
  Basis Set:
  Basis Set: CC-PVTZ
  Basis Set:
  @DF-RHF Final Energy:  -227.87385024514839
    Total Energy =                       -227.8738502451483896
  Basis Set: CC-PVTZ
  Basis Set:
  Basis Set: CC-PVTZ
  Basis Set:
  @DF-RHF Final Energy:  -227.87385184894057
    Total Energy =                       -227.8738518489405180
  Basis Set: CC-PVTZ
  Basis Set:
  Charge       = 0
  Multiplicity = 1
  Basis Set: CC-PVTZ
  Basis Set:

    Orbital Energies (a.u.)
    -----------------------

    Doubly Occupied:

       1A    -20.605113     2A    -20.551245     3A    -11.373232
       4A    -11.289032     5A     -1.479563     6A     -1.380750
       7A     -0.996972     8A     -0.821691     9A     -0.746246
      10A     -0.686089    11A     -0.680556    12A     -0.607652
      13A     -0.560970    14A     -0.532191    15A     -0.470787
      16A     -0.460238

  @DF-RHF Final Energy:  -227.87385195249192

   => Energetics <=

    Nuclear Repulsion Energy =            123.5694303775250091
    One-Electron Energy =                -556.4019083671190629
    Two-Electron Energy =                 204.9586260371021638
    DFT Exchange-Correlation Energy =       0.0000000000000000
    Empirical Dispersion Energy =           0.0000000000000000
    PCM Polarization Energy =               0.0000000000000000
    EFP Energy =                            0.0000000000000000
    Total Energy =                       -227.8738519524918900
    Molecular point group: c1
  Basis Set: CC-PVTZ
  Basis Set:

  -Total Gradient:
     Atom            X                  Y                   Z
    ------   -----------------  -----------------  -----------------
       1       -0.000000470501     0.000012681634    -0.000004167613
       2        0.002412959959     0.002784756136     0.006148159599
       3       -0.003831145489    -0.004178113676    -0.014110520842
       4        0.000004619798     0.000001265692     0.000001486100
       5        0.000003625901     0.000005064656    -0.000001678853
       6        0.001798865398     0.001304158863     0.017416933485
       7       -0.000392583982     0.000064263796    -0.009444282401
       8        0.000004128914     0.000005922901    -0.000005929475

  **** Optimization is complete! (in 7 steps) ****
    Final optimized geometry and variables:
    Molecular point group: c1

    Geometry (in Angstrom), charge = 0, multiplicity = 1:

    H            1.701298562032    -1.686996631803     0.370904742265
    C            0.721574084093    -1.242554391345     0.426555687561
    O            0.829165752748     0.024390210903    -0.200515985190
    H            0.427465149100    -1.122191334307     1.459519156396
    H            0.000721080970    -1.865289643185    -0.080973840693
    C           -0.221079657283     0.818902528681    -0.149728543088
    O           -1.344152478949     0.470982411494    -0.102269167887
    H            0.084426872182     1.856904759080    -0.240163337112

  Mulliken Charges: (a.u.)
   Center  Symbol    Alpha    Beta     Spin     Total
       1     H     0.44433  0.44433  0.00000  0.11134
       2     C     3.02714  3.02714  0.00000 -0.05428
       3     O     4.14412  4.14412  0.00000 -0.28825
       4     H     0.45887  0.45887  0.00000  0.08226
       5     H     0.44923  0.44923  0.00000  0.10153
       6     C     2.83549  2.83549  0.00000  0.32902
       7     O     4.18829  4.18829  0.00000 -0.37657
       8     H     0.45253  0.45253  0.00000  0.09495

   Total alpha = 16.00000, Total beta = 16.00000, Total charge =  0.00000
