                              Psi4 1.0.54 Driver

  ==> Input File <==

--------------------------------------------------------------------------
set {
	reference rhf
	basis cc-pvtz
}

set_num_threads( 4 )
memory 2 gb

molecule MOL {
0 1

H	 -4.340537	 -0.784487	 0.000000
O	 -3.958786	 0.074640	 0.000000
C	 -2.613554	 0.009900	 0.000000
C	 -1.943925	 0.592280	 1.063299
C	 -1.897918	 -0.607161	 -1.007962
H	 -2.509190	 1.068254	 1.839693
C	 -0.568144	 0.555261	 1.113802
H	 -2.410353	 -1.061188	 -1.836115
C	 -0.516371	 -0.643444	 -0.955705
H	 -0.051966	 1.006320	 1.937133
C	 0.142939	 -0.063166	 0.103097
H	 0.034395	 -1.123012	 -1.739525
Br	 2.039257	 -0.111479	 0.177399

	symmetry c1
}
set optking {
	frozen_dihedral = ("
		4 3 2 1
	")
}

ee,wfn = optimize('scf', return_wfn=True)
oeprop( wfn, 'DIPOLE', 'QUADRUPOLE', 'MULLIKEN_CHARGES')
f=open( 'psi4out.xyz', 'w' )
f.write( "13  " )
f.write( str(ee) + "\n" )
f.write( MOL.save_string_xyz() )
f.close()
--------------------------------------------------------------------------

    Molecular point group: c1
  Charge       = 0
  Multiplicity = 1
  Basis Set: CC-PVTZ
  Basis Set:
  @DF-RHF Final Energy: -2877.54329803556084
    Total Energy =                      -2877.5432980355571999
    Molecular point group: c1
  Basis Set: CC-PVTZ
  Basis Set:
  Basis Set: CC-PVTZ
  Basis Set:
  @DF-RHF Final Energy: -2877.54364413789244
    Total Energy =                      -2877.5436441378901691
  Basis Set: CC-PVTZ
  Basis Set:
  Basis Set: CC-PVTZ
  Basis Set:
  @DF-RHF Final Energy: -2877.54368270231180
    Total Energy =                      -2877.5436827023113437
  Basis Set: CC-PVTZ
  Basis Set:
  Basis Set: CC-PVTZ
  Basis Set:
  @DF-RHF Final Energy: -2877.54368700633631
    Total Energy =                      -2877.5436870063376773
  Basis Set: CC-PVTZ
  Basis Set:
  Charge       = 0
  Multiplicity = 1
  Basis Set: CC-PVTZ
  Basis Set:

    Orbital Energies (a.u.)
    -----------------------

    Doubly Occupied:

       1A   -490.020437     2A    -65.160768     3A    -58.515993
       4A    -58.514626     5A    -58.514614     6A    -20.585571
       7A    -11.304983     8A    -11.292699     9A    -11.252742
      10A    -11.251781    11A    -11.242927    12A    -11.240284
      13A     -9.834570    14A     -7.446193    15A     -7.439413
      16A     -7.439381    17A     -3.189885    18A     -3.186338
      19A     -3.186204    20A     -3.177563    21A     -3.177559
      22A     -1.414185    23A     -1.180647    24A     -1.067568
      25A     -1.041945    26A     -0.970607    27A     -0.863833
      28A     -0.826825    29A     -0.754276    30A     -0.681602
      31A     -0.659907    32A     -0.645059    33A     -0.610434
      34A     -0.601468    35A     -0.553363    36A     -0.530431
      37A     -0.502602    38A     -0.494036    39A     -0.433046
      40A     -0.415305    41A     -0.359310    42A     -0.326628

  @DF-RHF Final Energy: -2877.54368789738874

   => Energetics <=

    Nuclear Repulsion Energy =            525.2188661434170172
    One-Electron Energy =               -5041.7098950787958529
    Two-Electron Energy =                1638.9473410379887355
    DFT Exchange-Correlation Energy =       0.0000000000000000
    Empirical Dispersion Energy =           0.0000000000000000
    PCM Polarization Energy =               0.0000000000000000
    EFP Energy =                            0.0000000000000000
    Total Energy =                      -2877.5436878973905550
    Molecular point group: c1
  Basis Set: CC-PVTZ
  Basis Set:

  -Total Gradient:
     Atom            X                  Y                   Z
    ------   -----------------  -----------------  -----------------
       1       -0.000076594674    -0.000007736634     0.002077603446
       2       -0.000119907811    -0.000608165816    -0.002198185879
       3        0.000411410212     0.001845332052    -0.000763952558
       4       -0.000097748557    -0.001267755768     0.000831590478
       5       -0.000168087307     0.000025989937     0.000053527160
       6        0.000009668940    -0.000000458376    -0.000016135288
       7       -0.000094289533     0.000022288761     0.000049228427
       8       -0.000009588358     0.000003070251    -0.000010161945
       9        0.000135833429     0.000036218496     0.000085337701
      10        0.000024516774    -0.000007897704    -0.000012313504
      11        0.000023744578    -0.000057171938    -0.000123463986
      12       -0.000012473041     0.000007668205     0.000008310772
      13       -0.000026486272     0.000008618560     0.000018615122

  **** Optimization is complete! (in 5 steps) ****
    Final optimized geometry and variables:
    Molecular point group: c1

    Geometry (in Angstrom), charge = 0, multiplicity = 1:

    H           -4.357196912375    -0.630153209207    -0.191048000592
    O           -3.959541739918     0.222428669006    -0.174011774044
    C           -2.602982844175     0.122573168856    -0.121767707708
    C           -1.935300910819     0.674829217994     0.953443203157
    C           -1.892152423973    -0.494511207151    -1.133181087570
    H           -2.498867015208     1.151593831994     1.730780683806
    C           -0.556895465024     0.617583047948     1.015767715040
    H           -2.414443445663    -0.909917020578    -1.973670651734
    C           -0.513968596953    -0.564353357272    -1.068450977890
    H           -0.038187452931     1.049086473746     1.847773557320
    C            0.145494870785    -0.005642482623     0.005554525339
    H            0.037150182499    -1.043412513636    -1.852167132536
    BR           2.039402973037    -0.093484868232     0.093877762759

  Mulliken Charges: (a.u.)
   Center  Symbol    Alpha    Beta     Spin     Total
       1     H     0.38511  0.38511  0.00000  0.22979
       2     O     4.18561  4.18561  0.00000 -0.37123
       3     C     2.87766  2.87766  0.00000  0.24469
       4     C     3.09080  3.09080  0.00000 -0.18160
       5     C     3.10324  3.10324  0.00000 -0.20648
       6     H     0.41298  0.41298  0.00000  0.17404
       7     C     3.08524  3.08524  0.00000 -0.17048
       8     H     0.41772  0.41772  0.00000  0.16455
       9     C     3.08782  3.08782  0.00000 -0.17564
      10     H     0.41019  0.41019  0.00000  0.17963
      11     C     2.96864  2.96864  0.00000  0.06273
      12     H     0.41032  0.41032  0.00000  0.17937
      13    BR    17.56468 17.56468  0.00000 -0.12936

   Total alpha = 42.00000, Total beta = 42.00000, Total charge =  0.00000

*** Psi4 exiting successfully. Buy a developer a beer!
