  ==> Input File <==

--------------------------------------------------------------------------
set {
	reference rhf
	basis 6-31G*
}

set_num_threads( 1 )
memory 2 gb

molecule MOL {
0 1

H	 -3.642552	 1.211029	 -1.003538
O	 -3.452007	 0.283848	 -0.965577
C	 -3.181085	 -0.079926	 0.364119
C	 -1.765924	 0.277073	 0.805136
H	 -3.327791	 -1.152017	 0.410903
H	 -3.905698	 0.375695	 1.036898
C	 -0.677594	 -0.417312	 -0.014550
H	 -1.637766	 1.358238	 0.744969
H	 -1.659588	 0.017670	 1.857098
C	 0.738335	 -0.034840	 0.421385
H	 -0.814977	 -0.178223	 -1.064632
H	 -0.802730	 -1.495410	 0.071702
C	 1.822265	 -0.738362	 -0.399735
H	 0.853533	 1.043532	 0.342250
H	 0.871597	 -0.279636	 1.474438
C	 3.258060	 -0.455774	 0.057203
H	 1.718003	 -0.459167	 -1.447053
H	 1.651028	 -1.811884	 -0.354513
C	 3.709143	 0.994797	 -0.123830
H	 3.930637	 -1.101717	 -0.501982
H	 3.365259	 -0.739518	 1.102287
H	 3.601178	 1.310569	 -1.158127
H	 4.753787	 1.110486	 0.148516
H	 3.135362	 1.678896	 0.492569

	symmetry c1
}
set optking {
	frozen_dihedral = ("
		20 16 13 17,
		17 13 10 7,
		13 10 7 11,
		11 7 4 3,
		7 4 3 2
	")
}

ee = energy('scf')
oeprop('DIPOLE', 'QUADRUPOLE', 'MULLIKEN_CHARGES')
f=open( 'psi4out.xyz', 'w' )
f.write( "24  " )
f.write( str(ee) + "\n" )
f.write( MOL.save_string_xyz() )
f.close()
--------------------------------------------------------------------------

    Molecular point group: c1

    Geometry (in Angstrom), charge = 0, multiplicity = 1:

       Center              X                  Y                   Z               Mass
    ------------   -----------------  -----------------  -----------------  -----------------
           H         -3.640626611450     1.211171159673    -1.003891402276     1.007825032070
           O         -3.450081611450     0.283990159673    -0.965930402276    15.994914619560
           C         -3.179159611450    -0.079783840327     0.363765597724    12.000000000000
           C         -1.763998611450     0.277215159673     0.804782597724    12.000000000000
           H         -3.325865611450    -1.151874840327     0.410549597724     1.007825032070
           H         -3.903772611450     0.375837159673     1.036544597724     1.007825032070
           C         -0.675668611450    -0.417169840327    -0.014903402276    12.000000000000
           H         -1.635840611450     1.358380159673     0.744615597724     1.007825032070
           H         -1.657662611450     0.017812159673     1.856744597724     1.007825032070
           C          0.740260388550    -0.034697840327     0.421031597724    12.000000000000
           H         -0.813051611450    -0.178080840327    -1.064985402276     1.007825032070
           H         -0.800804611450    -1.495267840327     0.071348597724     1.007825032070
           C          1.824190388550    -0.738219840327    -0.400088402276    12.000000000000
           H          0.855458388550     1.043674159673     0.341896597724     1.007825032070
           H          0.873522388550    -0.279493840327     1.474084597724     1.007825032070
           C          3.259985388550    -0.455631840327     0.056849597724    12.000000000000
           H          1.719928388550    -0.459024840327    -1.447406402276     1.007825032070
           H          1.652953388550    -1.811741840327    -0.354866402276     1.007825032070
           C          3.711068388550     0.994939159673    -0.124183402276    12.000000000000
           H          3.932562388550    -1.101574840327    -0.502335402276     1.007825032070
           H          3.367184388550    -0.739375840327     1.101933597724     1.007825032070
           H          3.603103388550     1.310711159673    -1.158480402276     1.007825032070
           H          4.755712388550     1.110628159673     0.148162597724     1.007825032070
           H          3.137287388550     1.679038159673     0.492215597724     1.007825032070

  Charge       = 0
  Multiplicity = 1
  Basis Set: 6-31G*
  Basis Set:

    Orbital Energies (a.u.)
    -----------------------

    Doubly Occupied:

       1A    -20.553567     2A    -11.267855     3A    -11.215273
       4A    -11.213195     5A    -11.211071     6A    -11.210400
       7A    -11.209240     8A    -11.206570     9A     -1.360172
      10A     -1.087184    11A     -1.047180    12A     -0.984766
      13A     -0.913943    14A     -0.848681    15A     -0.798565
      16A     -0.775107    17A     -0.685308    18A     -0.652162
      19A     -0.624079    20A     -0.616671    21A     -0.592457
      22A     -0.583481    23A     -0.557101    24A     -0.540070
      25A     -0.515548    26A     -0.506374    27A     -0.498551
      28A     -0.473281    29A     -0.468264    30A     -0.456082
      31A     -0.454960    32A     -0.448239    33A     -0.418626

  @DF-RHF Final Energy:  -349.24730419196470

   => Energetics <=

    Nuclear Repulsion Energy =            384.2688684558101500
    One-Electron Energy =               -1235.0441113440983827
    Two-Electron Energy =                 501.5279386963237584
    DFT Exchange-Correlation Energy =       0.0000000000000000
    Empirical Dispersion Energy =           0.0000000000000000
    PCM Polarization Energy =               0.0000000000000000
    EFP Energy =                            0.0000000000000000
    Total Energy =                       -349.2473041919644174

  Mulliken Charges: (a.u.)
   Center  Symbol    Alpha    Beta     Spin     Total
       1     H     0.28244  0.28244  0.00000  0.43512
       2     O     4.36834  4.36834  0.00000 -0.73667
       3     C     2.99986  2.99986  0.00000  0.00029
       4     C     3.16366  3.16366  0.00000 -0.32731
       5     H     0.41683  0.41683  0.00000  0.16633
       6     H     0.42850  0.42850  0.00000  0.14300
       7     C     3.15269  3.15269  0.00000 -0.30539
       8     H     0.42770  0.42770  0.00000  0.14461
       9     H     0.42392  0.42392  0.00000  0.15215
      10     C     3.15359  3.15359  0.00000 -0.30717
      11     H     0.41047  0.41047  0.00000  0.17907
      12     H     0.42444  0.42444  0.00000  0.15113
      13     C     3.15222  3.15222  0.00000 -0.30443
      14     H     0.42275  0.42275  0.00000  0.15449
      15     H     0.42582  0.42582  0.00000  0.14835
      16     C     3.15225  3.15225  0.00000 -0.30450
      17     H     0.42356  0.42356  0.00000  0.15288
      18     H     0.42228  0.42228  0.00000  0.15544
      19     C     3.24099  3.24099  0.00000 -0.48197
      20     H     0.42125  0.42125  0.00000  0.15751
      21     H     0.42391  0.42391  0.00000  0.15218
      22     H     0.42227  0.42227  0.00000  0.15547
      23     H     0.41974  0.41974  0.00000  0.16052
      24     H     0.42053  0.42053  0.00000  0.15893

   Total alpha = 33.00000, Total beta = 33.00000, Total charge = -0.00000
