  ==> Input File <==

--------------------------------------------------------------------------
set {
	reference rhf
	basis 6-31G*
}

set_num_threads( 4 )
memory 2 gb

molecule MOL {
0 1

H	 -1.712329	 2.357129	 -0.730862
C	 -0.692478	 1.991241	 -0.756460
C	 -0.603454	 0.661669	 0.000000
H	 -0.049771	 2.737790	 -0.305866
H	 -0.398794	 1.868916	 -1.791944
C	 0.763625	 0.112519	 0.000000
H	 -0.912158	 0.785675	 1.031452
H	 -1.258969	 -0.077694	 -0.445209
N	 1.813038	 -0.320305	 0.000000

	symmetry c1
}
set optking {
	frozen_dihedral = ("
		7 3 6 9
	")
}

ee = optimize('scf')
oeprop('DIPOLE', 'QUADRUPOLE', 'MULLIKEN_CHARGES')
f=open( 'psi4out.xyz', 'w' )
f.write( "9  " )
f.write( str(ee) + "\n" )
f.write( MOL.save_string_xyz() )
f.close()
--------------------------------------------------------------------------

    Molecular point group: c1
  Charge       = 0
  Multiplicity = 1
  Basis Set: 6-31G*
  Basis Set:
  @DF-RHF Final Energy:  -170.96241570416089
    Total Energy =                       -170.9624157041608896
    Molecular point group: c1
  Basis Set: 6-31G*
  Basis Set:
  Basis Set: 6-31G*
  Basis Set:
  @DF-RHF Final Energy:  -170.67365471899865
    Total Energy =                       -170.6736547189985913
  Basis Set: 6-31G*
  Basis Set:
  Basis Set: 6-31G*
  Basis Set:
  @DF-RHF Final Energy:  -170.75679417924403
    Total Energy =                       -170.7567941792439115
  Basis Set: 6-31G*
  Basis Set:
  Basis Set: 6-31G*
  Basis Set:
  @DF-RHF Final Energy:  -170.93249989491107
    Total Energy =                       -170.9324998949109045
  Basis Set: 6-31G*
  Basis Set:
  @DF-RHF Final Energy:  -170.75194444810174
    Total Energy =                       -170.7519444481017103
  @DF-RHF Final Energy:  -170.90485170017988
    Total Energy =                       -170.9048517001797904
  @DF-RHF Final Energy:  -170.72342273822858
    Total Energy =                       -170.7234227382286633
  @DF-RHF Final Energy:  -170.94107735305607
    Total Energy =                       -170.9410773530560164
  @DF-RHF Final Energy:  -170.78261837713370
    Total Energy =                       -170.7826183771337583
  @DF-RHF Final Energy:  -170.89821252486320
    Total Energy =                       -170.8982125248631974
  @DF-RHF Final Energy:  -170.95349789316583
    Total Energy =                       -170.9534978931658316
  @DF-RHF Final Energy:  -170.87355655825203
    Total Energy =                       -170.8735565582521190
  @DF-RHF Final Energy:  -170.93341486401619
    Total Energy =                       -170.9334148640162994
  @DF-RHF Final Energy:  -170.71256140780645
    Total Energy =                       -170.7125614078063904
  @DF-RHF Final Energy:  -170.89953543400421
    Total Energy =                       -170.8995354340042354
  @DF-RHF Final Energy:  -170.95039855822762
    Total Energy =                       -170.9503985582275618
  @DF-RHF Final Energy:  -170.96016185456952
    Total Energy =                       -170.9601618545695203
  @DF-RHF Final Energy:  -170.96197765779954
    Total Energy =                       -170.9619776577995651
  @DF-RHF Final Energy:  -170.96237700579607
    Total Energy =                       -170.9623770057960996
  @DF-RHF Final Energy:  -170.96188295963066
    Total Energy =                       -170.9618829596306853
  @DF-RHF Final Energy:  -170.96216403280715
    Total Energy =                       -170.9621640328070953
  @DF-RHF Final Energy:  -170.96216798773560
    Total Energy =                       -170.9621679877357110
  @DF-RHF Final Energy:  -170.96197751952050
    Total Energy =                       -170.9619775195204170
  @DF-RHF Final Energy:  -170.96233670635280
    Total Energy =                       -170.9623367063527439
  @DF-RHF Final Energy:  -170.95051124715715
    Total Energy =                       -170.9505112471571522
  @DF-RHF Final Energy:  -170.96042851714856
    Total Energy =                       -170.9604285171485287
  @DF-RHF Final Energy:  -170.96057031361514
    Total Energy =                       -170.9605703136151078
  @DF-RHF Final Energy:  -170.96169159718676
    Total Energy =                       -170.9616915971867854
  @DF-RHF Final Energy:  -170.96187613759110
    Total Energy =                       -170.9618761375911049
  @DF-RHF Final Energy:  -170.96212395448970
    Total Energy =                       -170.9621239544896696
  @DF-RHF Final Energy:  -170.96207629182948
    Total Energy =                       -170.9620762918294758
  @DF-RHF Final Energy:  -170.96234502360562
    Total Energy =                       -170.9623450236055646
  @DF-RHF Final Energy:  -170.96209449940159
    Total Energy =                       -170.9620944994015304
  @DF-RHF Final Energy:  -170.96219838832488
    Total Energy =                       -170.9621983883247651
  @DF-RHF Final Energy:  -170.96231157171695
    Total Energy =                       -170.9623115717169242
  @DF-RHF Final Energy:  -170.95224351247421
    Total Energy =                       -170.9522435124744391
  Basis Set: 6-31G*
  Basis Set:
  @DF-RHF Final Energy:  -170.95883313620510
    Total Energy =                       -170.9588331362050440
  Basis Set: 6-31G*
  Basis Set:
  Basis Set: 6-31G*
  Basis Set:
  @DF-RHF Final Energy:  -170.94687272552284
    Total Energy =                       -170.9468727255229510
  Basis Set: 6-31G*
  Basis Set:
  Basis Set: 6-31G*
  Basis Set:
  @DF-RHF Final Energy:  -170.95486279671292
    Total Energy =                       -170.9548627967129732
  Basis Set: 6-31G*
  Basis Set:
  Charge       = 0
  Multiplicity = 1
  Basis Set: 6-31G*
  Basis Set:

    Orbital Energies (a.u.)
    -----------------------

    Doubly Occupied:

       1A    -15.570370     2A    -11.284116     3A    -11.271267
       4A    -11.246132     5A     -1.221902     6A     -1.080789
       7A     -0.910222     8A     -0.700585     9A     -0.658276
      10A     -0.586286    11A     -0.561392    12A     -0.543174
      13A     -0.536724    14A     -0.457451    15A     -0.454659

  @DF-RHF Final Energy:  -170.95888945523512

   => Energetics <=

    Nuclear Repulsion Energy =            103.1020446092809806
    One-Electron Energy =                -433.9551771218856970
    Two-Electron Energy =                 159.8942430573695503
    DFT Exchange-Correlation Energy =       0.0000000000000000
    Empirical Dispersion Energy =           0.0000000000000000
    PCM Polarization Energy =               0.0000000000000000
    EFP Energy =                            0.0000000000000000
    Total Energy =                       -170.9588894552351519
    Molecular point group: c1
  Basis Set: 6-31G*
  Basis Set:

  -Total Gradient:
     Atom            X                  Y                   Z
    ------   -----------------  -----------------  -----------------
       1       -0.001301632802    -0.000579032083     0.000699215052
       2        0.005623553909     0.004287678279     0.005075942340
       3       -0.000446923963    -0.010097074157     0.003818862661
       4       -0.000083673161     0.002395924695    -0.000983938703
       5        0.000401514997    -0.002001909350    -0.000497779191
       6       -0.015914674731     0.014415198737    -0.026738310147
       7       -0.004412223330     0.004312093510     0.001567981610
       8        0.001557749307    -0.002754255428     0.002625272008
       9        0.014576309774    -0.009978624202     0.014432754369

    Molecular point group: c1

    Geometry (in Angstrom), charge = 0, multiplicity = 1:

    H           -1.979557128001     1.705578154725    -0.446867456830
    C           -0.970912203588     1.315915572450    -0.536377515862
    C           -0.879382337187    -0.033499319780     0.190429218316
    H           -0.284693141717     2.048186520690    -0.125225319099
    H           -0.747214543727     1.188883303371    -1.589897285359
    C            0.467405038571    -0.622155980499     0.152285695792
    H           -1.127727375207     0.114874170485     1.238920091797
    H           -1.574478362729    -0.765909296067    -0.203999516664
    N            1.596296229349    -0.874687809497     0.247077181832

  Mulliken Charges: (a.u.)
   Center  Symbol    Alpha    Beta     Spin     Total
       1     H     0.40929  0.40929  0.00000  0.18142
       2     C     3.24527  3.24527  0.00000 -0.49055
       3     C     3.18662  3.18662  0.00000 -0.37323
       4     H     0.40452  0.40452  0.00000  0.19096
       5     H     0.40730  0.40730  0.00000  0.18540
       6     C     2.85328  2.85328  0.00000  0.29344
       7     H     0.38647  0.38647  0.00000  0.22706
       8     H     0.38859  0.38859  0.00000  0.22281
       9     N     3.71865  3.71865  0.00000 -0.43731

   Total alpha = 15.00000, Total beta = 15.00000, Total charge = -0.00000
