  ==> Input File <==

--------------------------------------------------------------------------
set {
	reference rhf
	basis 6-31G*
}

set_num_threads( 4 )
memory 2 gb

molecule MOL {
0 1

H	 -1.070890	 -1.366565	 0.180696
O	 -1.422729	 -0.573567	 -0.196946
C	 -0.731407	 0.539437	 0.309156
C	 0.680193	 0.672443	 -0.251532
H	 -1.319765	 1.404033	 0.030086
H	 -0.700012	 0.506517	 1.397677
C	 0.903712	 1.956143	 -1.051444
H	 1.385563	 0.628121	 0.573171
H	 0.877373	 -0.189117	 -0.885862
H	 0.785825	 2.837478	 -0.428110
H	 1.906295	 1.988250	 -1.464678
H	 0.203891	 2.032327	 -1.880124

	symmetry c1
}
set optking {
	frozen_dihedral = ("
		8 4 3 2
	")
}

ee = optimize('scf')
oeprop('DIPOLE', 'QUADRUPOLE', 'MULLIKEN_CHARGES')
f=open( 'psi4out.xyz', 'w' )
f.write( "12  " )
f.write( str(ee) + "\n" )
f.write( MOL.save_string_xyz() )
f.close()
--------------------------------------------------------------------------

    Molecular point group: c1
  Charge       = 0
  Multiplicity = 1
  Basis Set: 6-31G*
  Basis Set:
  @DF-RHF Final Energy:  -193.10342308759923
    Total Energy =                       -193.1034230875994240
    Molecular point group: c1
  Basis Set: 6-31G*
  Basis Set:
  Basis Set: 6-31G*
  Basis Set:
  @DF-RHF Final Energy:  -193.10382891079314
    Total Energy =                       -193.1038289107931405
  Basis Set: 6-31G*
  Basis Set:
  Basis Set: 6-31G*
  Basis Set:
  @DF-RHF Final Energy:  -193.10391669054749
    Total Energy =                       -193.1039166905474929
  Basis Set: 6-31G*
  Basis Set:
  Charge       = 0
  Multiplicity = 1
  Basis Set: 6-31G*
  Basis Set:

    Orbital Energies (a.u.)
    -----------------------

    Doubly Occupied:

       1A    -20.552145     2A    -11.267755     3A    -11.218930
       4A    -11.213632     5A     -1.358633     6A     -1.048668
       7A     -0.917201     8A     -0.819422     9A     -0.686107
      10A     -0.626365    11A     -0.616834    12A     -0.578310
      13A     -0.533281    14A     -0.515538    15A     -0.488807
      16A     -0.465173    17A     -0.426891

  @DF-RHF Final Energy:  -193.10391742243607

   => Energetics <=

    Nuclear Repulsion Energy =            130.9850871427678669
    One-Electron Energy =                -521.5106252902075994
    Two-Electron Energy =                 197.4216207250035779
    DFT Exchange-Correlation Energy =       0.0000000000000000
    Empirical Dispersion Energy =           0.0000000000000000
    PCM Polarization Energy =               0.0000000000000000
    EFP Energy =                            0.0000000000000000
    Total Energy =                       -193.1039174224361830
    Molecular point group: c1
  Basis Set: 6-31G*
  Basis Set:

  -Total Gradient:
     Atom            X                  Y                   Z
    ------   -----------------  -----------------  -----------------
       1        0.000049382773     0.000064530937     0.000033554637
       2       -0.000125833396     0.000093254258    -0.000069031813
       3       -0.000040459463    -0.000136961567     0.000132892931
       4        0.000177925017    -0.000002360523    -0.000087678928
       5       -0.000059530113    -0.000088508360    -0.000030521946
       6       -0.000070016613     0.000001222618    -0.000015613138
       7        0.000059337237    -0.000045146579    -0.000058131241
       8        0.000019763960     0.000069010993     0.000002475440
       9        0.000015448357     0.000034560662     0.000039704391
      10        0.000019269899    -0.000008236467     0.000023425641
      11        0.000009905396    -0.000017889178    -0.000047932733
      12       -0.000055193051     0.000036523206     0.000076856758

  **** Optimization is complete! (in 4 steps) ****
    Final optimized geometry and variables:
    Molecular point group: c1

    Geometry (in Angstrom), charge = 0, multiplicity = 1:

    H           -0.854967509096    -1.972323067465     0.409659293997
    O           -1.267372989887    -1.175164482713     0.107785840678
    C           -0.561377618937    -0.067951984419     0.608676454054
    C            0.866253709749     0.055499702692     0.038545258303
    H           -1.153498879896     0.794307700867     0.330838563726
    H           -0.538671130771    -0.100067603184     1.695692892745
    C            1.088043601352     1.334361233904    -0.769994262665
    H            1.597021992556     0.009483732330     0.841923869560
    H            1.049287382679    -0.804720853326    -0.598300824138
    H            0.940875400087     2.217948071378    -0.155053815568
    H            2.095621642949     1.376073085422    -1.171199683002
    H            0.393204016172     1.390268641465    -1.602368083559

  Mulliken Charges: (a.u.)
   Center  Symbol    Alpha    Beta     Spin     Total
       1     H     0.28359  0.28359  0.00000  0.43282
       2     O     4.36949  4.36949  0.00000 -0.73899
       3     C     2.99729  2.99729  0.00000  0.00542
       4     C     3.17218  3.17218  0.00000 -0.34436
       5     H     0.41314  0.41314  0.00000  0.17372
       6     H     0.42903  0.42903  0.00000  0.14195
       7     C     3.24385  3.24385  0.00000 -0.48771
       8     H     0.42118  0.42118  0.00000  0.15765
       9     H     0.41469  0.41469  0.00000  0.17061
      10     H     0.42133  0.42133  0.00000  0.15734
      11     H     0.41865  0.41865  0.00000  0.16270
      12     H     0.41557  0.41557  0.00000  0.16885

   Total alpha = 17.00000, Total beta = 17.00000, Total charge =  0.00000
