  ==> Input File <==

--------------------------------------------------------------------------
set {
	reference rhf
	basis 6-31G*
}

set_num_threads( 4 )
memory 2 gb

molecule MOL {
0 1

H	 -0.821032	 -1.655889	 0.000000
O	 -1.037828	 -0.728600	 0.000000
C	 0.100509	 -0.036935	 0.000000
C	 0.703975	 0.046480	 -1.372871
O	 0.553253	 0.441883	 0.987410
H	 0.898682	 -0.952046	 -1.746704
H	 1.621874	 0.612903	 -1.330715
H	 0.003724	 0.520869	 -2.050602

	symmetry c1
}
set optking {
	frozen_dihedral = ("
		4 3 2 1
	")
}

ee = optimize('scf')
oeprop('DIPOLE', 'QUADRUPOLE', 'MULLIKEN_CHARGES')
f=open( 'psi4out.xyz', 'w' )
f.write( "8  " )
f.write( str(ee) + "\n" )
f.write( MOL.save_string_xyz() )
f.close()
--------------------------------------------------------------------------

    Molecular point group: c1
  Charge       = 0
  Multiplicity = 1
  Basis Set: 6-31G*
  Basis Set:
  @DF-RHF Final Energy:  -227.78652759766740
    Total Energy =                       -227.7865275976673445
    Molecular point group: c1
  Basis Set: 6-31G*
  Basis Set:
  Basis Set: 6-31G*
  Basis Set:
  @DF-RHF Final Energy:  -227.78772098295860
    Total Energy =                       -227.7877209829584899
  Basis Set: 6-31G*
  Basis Set:
  Basis Set: 6-31G*
  Basis Set:
  @DF-RHF Final Energy:  -227.78698750084354
    Total Energy =                       -227.7869875008435940
  Basis Set: 6-31G*
  Basis Set:
  Basis Set: 6-31G*
  Basis Set:
  @DF-RHF Final Energy:  -227.78838277877276
    Total Energy =                       -227.7883827787727853
  Basis Set: 6-31G*
  Basis Set:
  Basis Set: 6-31G*
  Basis Set:
  @DF-RHF Final Energy:  -227.78839626376657
    Total Energy =                       -227.7883962637665718
  Basis Set: 6-31G*
  Basis Set:
  Basis Set: 6-31G*
  Basis Set:
  @DF-RHF Final Energy:  -227.78839959196478
    Total Energy =                       -227.7883995919647191
  Basis Set: 6-31G*
  Basis Set:
  Basis Set: 6-31G*
  Basis Set:
  @DF-RHF Final Energy:  -227.78840075712515
    Total Energy =                       -227.7884007571251459
  Basis Set: 6-31G*
  Basis Set:
  Charge       = 0
  Multiplicity = 1
  Basis Set: 6-31G*
  Basis Set:

    Orbital Energies (a.u.)
    -----------------------

    Doubly Occupied:

       1A    -20.597421     2A    -20.563763     3A    -11.386121
       4A    -11.244213     5A     -1.462369     6A     -1.370340
       7A     -1.023140     8A     -0.827528     9A     -0.710693
      10A     -0.667899    11A     -0.661275    12A     -0.593138
      13A     -0.576674    14A     -0.510294    15A     -0.500163
      16A     -0.450151

  @DF-RHF Final Energy:  -227.78840098042696

   => Energetics <=

    Nuclear Repulsion Energy =            121.6869844794970987
    One-Electron Energy =                -552.6604047298040996
    Two-Electron Energy =                 203.1850192698800015
    DFT Exchange-Correlation Energy =       0.0000000000000000
    Empirical Dispersion Energy =           0.0000000000000000
    PCM Polarization Energy =               0.0000000000000000
    EFP Energy =                            0.0000000000000000
    Total Energy =                       -227.7884009804270136
    Molecular point group: c1
  Basis Set: 6-31G*
  Basis Set:

  -Total Gradient:
     Atom            X                  Y                   Z
    ------   -----------------  -----------------  -----------------
       1        0.000050388979     0.000000476139     0.001597014422
       2       -0.000401922062     0.000324682845    -0.002088054979
       3        0.000917703447    -0.001157624901     0.000689303206
       4       -0.000548770219     0.000866889362    -0.000178901516
       5       -0.000026888085    -0.000026153682    -0.000021072534
       6        0.000001852124    -0.000004513041     0.000011405277
       7        0.000005662772    -0.000000178896    -0.000011607257
       8        0.000001973045    -0.000003577828     0.000001913379

  **** Optimization is complete! (in 8 steps) ****
    Final optimized geometry and variables:
    Molecular point group: c1

    Geometry (in Angstrom), charge = 0, multiplicity = 1:

    H           -0.941554366550    -1.601485927313     0.132772211457
    O           -1.104047576273    -0.665926769191     0.128550749145
    C            0.054188812210     0.048683637611     0.095198087102
    C            0.663063918143     0.151030575343    -1.278283015544
    O            0.474408467839     0.584348082222     1.056984936782
    H            0.845940532184    -0.837347751439    -1.687762283724
    H            1.587658393699     0.707207228868    -1.235632906999
    H           -0.039420373859     0.648376492932    -1.937899117229

  Mulliken Charges: (a.u.)
   Center  Symbol    Alpha    Beta     Spin     Total
       1     H     0.26680  0.26680  0.00000  0.46641
       2     O     4.36292  4.36292  0.00000 -0.72584
       3     C     2.64325  2.64325  0.00000  0.71349
       4     C     3.28627  3.28627  0.00000 -0.57254
       5     O     4.24022  4.24022  0.00000 -0.48044
       6     H     0.41045  0.41045  0.00000  0.17909
       7     H     0.39488  0.39488  0.00000  0.21024
       8     H     0.39520  0.39520  0.00000  0.20960

   Total alpha = 16.00000, Total beta = 16.00000, Total charge =  0.00000
