  ==> Input File <==

--------------------------------------------------------------------------
set {
	reference rhf
	basis cc-pvtz
}

set_num_threads( 4 )
memory 2 gb

molecule MOL {
0 1

H	 -0.000342	 -0.223902	 -3.352295
C	 -0.027146	 0.371068	 -2.446756
C	 0.024493	 -0.518541	 -1.216015
H	 -0.932586	 0.964979	 -2.449855
H	 0.819708	 1.049865	 -2.473332
N	 -0.042516	 0.263377	 -0.000000
H	 -0.822211	 -1.197105	 -1.225584
H	 0.921114	 -1.142847	 -1.255206
C	 0.024493	 -0.518541	 1.216015
H	 0.682568	 0.950412	 -0.000000
C	 -1.356776	 -0.727258	 1.813783
H	 0.461253	 -1.481432	 0.972031
H	 0.679609	 -0.062610	 1.963124
H	 -2.008626	 -1.220691	 1.103728
H	 -1.299779	 -1.333338	 2.710515
H	 -1.811809	 0.220388	 2.084975

	symmetry c1
}
set optking {
	frozen_dihedral = ("
		12 9 6 3
	")
}

ee = optimize('scf')
oeprop('DIPOLE', 'QUADRUPOLE', 'MULLIKEN_CHARGES')
f=open( 'psi4out.xyz', 'w' )
f.write( "16  " )
f.write( str(ee) + "\n" )
f.write( MOL.save_string_xyz() )
f.close()
--------------------------------------------------------------------------

    Molecular point group: c1
  Charge       = 0
  Multiplicity = 1
  Basis Set: CC-PVTZ
  Basis Set:
  @DF-RHF Final Energy:  -212.39031694582181
    Total Energy =                       -212.3903169458218372
    Molecular point group: c1
  Basis Set: CC-PVTZ
  Basis Set:
  Basis Set: CC-PVTZ
  Basis Set:
  @DF-RHF Final Energy:  -212.39108222125131
    Total Energy =                       -212.3910822212511675
  Basis Set: CC-PVTZ
  Basis Set:
  Basis Set: CC-PVTZ
  Basis Set:
  @DF-RHF Final Energy:  -212.39123700154468
    Total Energy =                       -212.3912370015444253
  Basis Set: CC-PVTZ
  Basis Set:
  Basis Set: CC-PVTZ
  Basis Set:
  @DF-RHF Final Energy:  -212.39123966521115
    Total Energy =                       -212.3912396652110601
  Basis Set: CC-PVTZ
  Basis Set:
  Charge       = 0
  Multiplicity = 1
  Basis Set: CC-PVTZ
  Basis Set:

    Orbital Energies (a.u.)
    -----------------------

    Doubly Occupied:

       1A    -15.528073     2A    -11.239796     3A    -11.239619
       4A    -11.206514     5A    -11.200080     6A     -1.204483
       7A     -1.025714     8A     -0.965460     9A     -0.840901
      10A     -0.808128    11A     -0.665520    12A     -0.627424
      13A     -0.612961    14A     -0.574304    15A     -0.545551
      16A     -0.528108    17A     -0.505706    18A     -0.494147
      19A     -0.482048    20A     -0.468387    21A     -0.360645

  @DF-RHF Final Energy:  -212.39123991444421

   => Energetics <=

    Nuclear Repulsion Energy =            190.3697965624033372
    One-Electron Energy =                -663.2749314052593945
    Two-Electron Energy =                 260.5138949284116165
    DFT Exchange-Correlation Energy =       0.0000000000000000
    Empirical Dispersion Energy =           0.0000000000000000
    PCM Polarization Energy =               0.0000000000000000
    EFP Energy =                            0.0000000000000000
    Total Energy =                       -212.3912399144444407
    Molecular point group: c1
  Basis Set: CC-PVTZ
  Basis Set:

  -Total Gradient:
     Atom            X                  Y                   Z
    ------   -----------------  -----------------  -----------------
       1        0.000000769031     0.000000269886    -0.000006343575
       2        0.000003704747    -0.000003687005    -0.000001450478
       3        0.001981880403     0.000189537850     0.000072094162
       4        0.000002011553    -0.000003627919     0.000003416406
       5       -0.000001035406    -0.000002510268     0.000002291186
       6       -0.003437849127    -0.000521957448    -0.000181806308
       7       -0.000001700696    -0.000005712994    -0.000009943416
       8        0.000001752783    -0.000003258421    -0.000005968465
       9        0.003811072237     0.001289983375     0.000627521331
      10       -0.000011328680     0.000014116709    -0.000002541404
      11        0.000017433720    -0.000003338999     0.000013076559
      12       -0.002371175460    -0.000935835123    -0.000512480944
      13        0.000003330761    -0.000006897684     0.000012703750
      14        0.000000658445    -0.000002669172    -0.000004594995
      15       -0.000002176471    -0.000000782504    -0.000000953495
      16        0.000002652160    -0.000003630283    -0.000005020311

  **** Optimization is complete! (in 5 steps) ****
    Final optimized geometry and variables:
    Molecular point group: c1

    Geometry (in Angstrom), charge = 0, multiplicity = 1:

    H            0.279010491496     0.029381573509    -3.233096569381
    C            0.236609412840     0.611821878559    -2.319923930719
    C            0.315484302512    -0.291314521849    -1.100842981210
    H           -0.684666422918     1.180677772726    -2.314145078723
    H            1.064238805849     1.314297626608    -2.338125902114
    N            0.242482419765     0.476719441858     0.125441253953
    H           -0.516111385347    -0.987891380298    -1.117165707553
    H            1.224869223464    -0.894895986635    -1.151903284170
    C            0.288519179760    -0.310622252271     1.349455713200
    H            0.970417265470     1.156910550177     0.129025771256
    C           -1.094488099234    -0.489258172401     1.962852900942
    H            0.715109424013    -1.295159650108     1.162156721580
    H            0.934907734540     0.182697895192     2.066282375678
    H           -1.765354232003    -0.980145633411     1.266828261648
    H           -1.044117185406    -1.093736109812     2.862939816176
    H           -1.524590830772     0.471969432938     2.215673246161

  Mulliken Charges: (a.u.)
   Center  Symbol    Alpha    Beta     Spin     Total
       1     H     0.45431  0.45431  0.00000  0.09137
       2     C     3.14350  3.14350  0.00000 -0.28700
       3     C     3.02395  3.02395  0.00000 -0.04790
       4     H     0.44947  0.44947  0.00000  0.10106
       5     H     0.45948  0.45948  0.00000  0.08104
       6     N     3.63831  3.63831  0.00000 -0.27662
       7     H     0.45813  0.45813  0.00000  0.08374
       8     H     0.47162  0.47162  0.00000  0.05677
       9     C     3.03695  3.03695  0.00000 -0.07390
      10     H     0.44398  0.44398  0.00000  0.11205
      11     C     3.12921  3.12921  0.00000 -0.25841
      12     H     0.46740  0.46740  0.00000  0.06521
      13     H     0.45448  0.45448  0.00000  0.09104
      14     H     0.45692  0.45692  0.00000  0.08615
      15     H     0.45812  0.45812  0.00000  0.08377
      16     H     0.45418  0.45418  0.00000  0.09163

   Total alpha = 21.00000, Total beta = 21.00000, Total charge = -0.00000
