  ==> Input File <==

--------------------------------------------------------------------------
set {
	reference rhf
	basis 6-31G*
}

set_num_threads( 4 )
memory 2 gb

molecule MOL {
0 1

H	 -2.693057	 0.547913	 0.616906
C	 -2.516837	 0.141987	 -0.371788
C	 -1.259937	 -0.719708	 -0.392877
H	 -2.427195	 0.976532	 -1.056463
H	 -3.382166	 -0.445836	 -0.659790
C	 -0.000005	 0.033229	 -0.000001
H	 -1.100824	 -1.145970	 -1.381502
H	 -1.364361	 -1.570904	 0.277164
C	 1.290528	 -0.768786	 0.000276
O	 -0.022752	 1.189728	 0.291851
C	 2.545731	 0.095645	 -0.000061
H	 1.275672	 -1.427874	 -0.865626
H	 1.275566	 -1.427086	 0.866768
H	 2.577157	 0.734767	 -0.874036
H	 3.433520	 -0.528139	 0.000137
H	 2.577172	 0.735117	 0.873581

	symmetry c1
}
set optking {
	frozen_dihedral = ("
		3 6 9 12
	")
}

ee = optimize('scf')
oeprop('DIPOLE', 'QUADRUPOLE', 'MULLIKEN_CHARGES')
f=open( 'psi4out.xyz', 'w' )
f.write( "16  " )
f.write( str(ee) + "\n" )
f.write( MOL.save_string_xyz() )
f.close()
--------------------------------------------------------------------------

    Molecular point group: c1
  Charge       = 0
  Multiplicity = 1
  Basis Set: 6-31G*
  Basis Set:
  @DF-RHF Final Energy:  -270.03301723003290
    Total Energy =                       -270.0330172300330105
    Molecular point group: c1
  Basis Set: 6-31G*
  Basis Set:
  Basis Set: 6-31G*
  Basis Set:
  @DF-RHF Final Energy:  -270.03314120758830
    Total Energy =                       -270.0331412075882440
  Basis Set: 6-31G*
  Basis Set:
  Basis Set: 6-31G*
  Basis Set:
  @DF-RHF Final Energy:  -270.03230403036878
    Total Energy =                       -270.0323040303689481
  Basis Set: 6-31G*
  Basis Set:
  Basis Set: 6-31G*
  Basis Set:
  @DF-RHF Final Energy:  -270.03322340953588
    Total Energy =                       -270.0332234095357080
  Basis Set: 6-31G*
  Basis Set:
  Basis Set: 6-31G*
  Basis Set:
  @DF-RHF Final Energy:  -270.03323507053648
    Total Energy =                       -270.0332350705366480
  Basis Set: 6-31G*
  Basis Set:
  Charge       = 0
  Multiplicity = 1
  Basis Set: 6-31G*
  Basis Set:

    Orbital Energies (a.u.)
    -----------------------

    Doubly Occupied:

       1A    -20.550611     2A    -11.323954     3A    -11.234148
       4A    -11.233988     5A    -11.214284     6A    -11.213729
       7A     -1.396169     8A     -1.068443     9A     -1.036336
      10A     -0.916000    11A     -0.846287    12A     -0.724735
      13A     -0.667542    14A     -0.646046    15A     -0.618731
      16A     -0.606820    17A     -0.560404    18A     -0.528280
      19A     -0.524461    20A     -0.510657    21A     -0.503287
      22A     -0.493726    23A     -0.482767    24A     -0.398916

  @DF-RHF Final Energy:  -270.03323546511740

   => Energetics <=

    Nuclear Repulsion Energy =            239.9345198749417136
    One-Electron Energy =                -841.3348698829404384
    Two-Electron Energy =                 331.3671145428811542
    DFT Exchange-Correlation Energy =       0.0000000000000000
    Empirical Dispersion Energy =           0.0000000000000000
    PCM Polarization Energy =               0.0000000000000000
    EFP Energy =                            0.0000000000000000
    Total Energy =                       -270.0332354651175137
    Molecular point group: c1
  Basis Set: 6-31G*
  Basis Set:

  -Total Gradient:
     Atom            X                  Y                   Z
    ------   -----------------  -----------------  -----------------
       1       -0.000006287478     0.000006933229    -0.000002524958
       2       -0.000013656498    -0.000004373839     0.000028403619
       3        0.000106503825     0.000110853666    -0.000558824343
       4        0.000007804865    -0.000010400576     0.000000237718
       5       -0.000003761929    -0.000000394736     0.000000247466
       6       -0.000215174223    -0.000275975160     0.000855161027
       7        0.000001897038    -0.000016650325    -0.000002376084
       8       -0.000002541310     0.000017915064     0.000000656313
       9        0.000445191365     0.000636753954    -0.000741291406
      10        0.000003896883     0.000011041594     0.000000843923
      11        0.000003200239    -0.000001786593    -0.000002663609
      12       -0.000327899415    -0.000461892609     0.000410169750
      13        0.000000577180    -0.000009183341     0.000012781821
      14        0.000001028936    -0.000002705703     0.000004766057
      15        0.000000817626     0.000000706024    -0.000002633879
      16       -0.000001597107    -0.000000840651    -0.000002953416

  **** Optimization is complete! (in 6 steps) ****
    Final optimized geometry and variables:
    Molecular point group: c1

    Geometry (in Angstrom), charge = 0, multiplicity = 1:

    H           -2.681028304832     0.443483356142     0.811309938029
    C           -2.537112203899     0.106783062651    -0.208665705123
    C           -1.264364823815    -0.721685264400    -0.336806251082
    H           -2.492199860179     0.985352599730    -0.839767089167
    H           -3.401656650092    -0.481178001345    -0.498699908810
    C           -0.002733763759     0.037203092247     0.035225855771
    H           -1.138108787212    -1.074915330676    -1.359049354421
    H           -1.319465234215    -1.619158974229     0.275962535755
    C            1.274440490438    -0.781369117325     0.119279546670
    O           -0.012959084895     1.210424651150     0.251842967198
    C            2.542853676431     0.064100132876     0.129329289050
    H            1.286469754377    -1.502393202994    -0.694340563649
    H            1.207755612377    -1.374724714638     1.030667178741
    H            2.632362363001     0.642406970971    -0.783324375013
    H            3.419170076340    -0.569572898316     0.216831548648
    H            2.536589602451     0.759345843608     0.958749530739

  Mulliken Charges: (a.u.)
   Center  Symbol    Alpha    Beta     Spin     Total
       1     H     0.41269  0.41269  0.00000  0.17462
       2     C     3.23528  3.23528  0.00000 -0.47057
       3     C     3.20616  3.20616  0.00000 -0.41232
       4     H     0.40837  0.40837  0.00000  0.18325
       5     H     0.41994  0.41994  0.00000  0.16011
       6     C     2.73427  2.73427  0.00000  0.53147
       7     H     0.40748  0.40748  0.00000  0.18504
       8     H     0.41065  0.41065  0.00000  0.17871
       9     C     3.20560  3.20560  0.00000 -0.41120
      10     O     4.26503  4.26503  0.00000 -0.53005
      11     C     3.23600  3.23600  0.00000 -0.47200
      12     H     0.41171  0.41171  0.00000  0.17657
      13     H     0.40649  0.40649  0.00000  0.18702
      14     H     0.41429  0.41429  0.00000  0.17141
      15     H     0.41961  0.41961  0.00000  0.16079
      16     H     0.40643  0.40643  0.00000  0.18714

   Total alpha = 24.00000, Total beta = 24.00000, Total charge =  0.00000
