                              Psi4 1.0.54 Driver

  ==> Input File <==

--------------------------------------------------------------------------
set {
	reference rhf
	basis cc-pvtz
}

set_num_threads( 4 )
memory 2 gb

molecule MOL {
0 1

H	 2.017043	 -1.291835	 0.842951
O	 2.012307	 -0.863440	 0.000222
C	 1.050374	 0.054877	 0.000135
C	 -0.318151	 -0.570512	 0.000144
O	 1.286319	 1.213453	 -0.000040
C	 -1.454884	 0.441630	 -0.000560
H	 -0.371613	 -1.223646	 -0.864985
H	 -0.371920	 -1.222758	 0.865929
C	 -2.822577	 -0.232186	 0.000063
H	 -1.359760	 1.084704	 -0.867077
H	 -1.359641	 1.085996	 0.864983
H	 -2.954352	 -0.858985	 -0.875745
H	 -3.615886	 0.505352	 0.000019
H	 -2.953878	 -0.858359	 0.876394

	symmetry c1
}
set optking {
	frozen_dihedral = ("
		1 2 3 5
	")
}

ee,wfn = optimize('scf', return_wfn=True)
oeprop( wfn, 'DIPOLE', 'QUADRUPOLE', 'MULLIKEN_CHARGES')
f=open( 'psi4out.xyz', 'w' )
f.write( "14  " )
f.write( str(ee) + "\n" )
f.write( MOL.save_string_xyz() )
f.close()
--------------------------------------------------------------------------

    Molecular point group: c1
  Charge       = 0
  Multiplicity = 1
  Basis Set: CC-PVTZ
  Basis Set:
  @DF-RHF Final Energy:  -305.98020407592031
    Total Energy =                       -305.9802040759204260
    Molecular point group: c1
  Basis Set: CC-PVTZ
  Basis Set:
  Basis Set: CC-PVTZ
  Basis Set:
  @DF-RHF Final Energy:  -305.98157390346046
    Total Energy =                       -305.9815739034604576
  Basis Set: CC-PVTZ
  Basis Set:
  Basis Set: CC-PVTZ
  Basis Set:
  @DF-RHF Final Energy:  -305.98081716526053
    Total Energy =                       -305.9808171652605324
  Basis Set: CC-PVTZ
  Basis Set:
  Basis Set: CC-PVTZ
  Basis Set:
  @DF-RHF Final Energy:  -305.98178493393948
    Total Energy =                       -305.9817849339398208
  Basis Set: CC-PVTZ
  Basis Set:
  Basis Set: CC-PVTZ
  Basis Set:
  @DF-RHF Final Energy:  -305.98180567114292
    Total Energy =                       -305.9818056711429222
  Basis Set: CC-PVTZ
  Basis Set:
  Charge       = 0
  Multiplicity = 1
  Basis Set: CC-PVTZ
  Basis Set:

    Orbital Energies (a.u.)
    -----------------------

    Doubly Occupied:

       1A    -20.588418     2A    -20.549550     3A    -11.374408
       4A    -11.244548     5A    -11.226771     6A    -11.218331
       7A     -1.464274     8A     -1.372018     9A     -1.085921
      10A     -0.978022    11A     -0.853028    12A     -0.805455
      13A     -0.716973    14A     -0.676148    15A     -0.665708
      16A     -0.632338    17A     -0.581449    18A     -0.564023
      19A     -0.546941    20A     -0.509586    21A     -0.498953
      22A     -0.486299    23A     -0.485423    24A     -0.447347

  @DF-RHF Final Energy:  -305.98180627539557

   => Energetics <=

    Nuclear Repulsion Energy =            239.7366815755438836
    One-Electron Energy =                -892.2931113699740990
    Two-Electron Energy =                 346.5746235190346169
    DFT Exchange-Correlation Energy =       0.0000000000000000
    Empirical Dispersion Energy =           0.0000000000000000
    PCM Polarization Energy =               0.0000000000000000
    EFP Energy =                            0.0000000000000000
    Total Energy =                       -305.9818062753955701
    Molecular point group: c1
  Basis Set: CC-PVTZ
  Basis Set:

  -Total Gradient:
     Atom            X                  Y                   Z
    ------   -----------------  -----------------  -----------------
       1        0.002347685990     0.002585796136     0.000996465606
       2       -0.002981403997    -0.003165852127     0.000139773915
       3        0.000499486770     0.000391401505    -0.004288443218
       4        0.000073723505     0.000022314222    -0.000052320602
       5        0.000099185316     0.000178346948     0.003165509618
       6        0.000001080102     0.000010574829     0.000014165718
       7       -0.000014089223    -0.000010774913     0.000020504920
       8       -0.000002843813    -0.000001156326     0.000014100113
       9       -0.000015033521     0.000004567135    -0.000001574196
      10       -0.000000103707    -0.000004246311     0.000003498673
      11        0.000001698298    -0.000010797692    -0.000012619191
      12        0.000000792555     0.000001943093     0.000001555537
      13       -0.000010893765    -0.000003736352     0.000000331138
      14        0.000000715490     0.000001619852    -0.000000948031

  **** Optimization is complete! (in 6 steps) ****
    Final optimized geometry and variables:
    Molecular point group: c1

    Geometry (in Angstrom), charge = 0, multiplicity = 1:

    H            2.148517581901    -1.287386433457     0.807685966035
    O            2.057789848764    -0.864015339595    -0.029443498315
    C            1.056303528636     0.052126622914    -0.028406064484
    C           -0.323402929548    -0.554213976120     0.012184762451
    O            1.287969072384     1.200999367644    -0.085934665337
    C           -1.453082636318     0.465549018719     0.022609679704
    H           -0.399409615649    -1.218597189221    -0.842966655487
    H           -0.374822767333    -1.198927697030     0.886642647474
    C           -2.826472786063    -0.195833497951     0.057180884616
    H           -1.367870289768     1.096727096943    -0.853298567300
    H           -1.335914013787     1.119976739369     0.878163490008
    H           -2.979986616543    -0.831884113859    -0.808264333739
    H           -3.613094527876     0.548717764280     0.062661857471
    H           -2.947630405832    -0.809995635683     0.943602464948

  Mulliken Charges: (a.u.)
   Center  Symbol    Alpha    Beta     Spin     Total
       1     H     0.38968  0.38968  0.00000  0.22064
       2     O     4.16890  4.16890  0.00000 -0.33781
       3     C     2.80197  2.80197  0.00000  0.39605
       4     C     3.11430  3.11430  0.00000 -0.22861
       5     O     4.16059  4.16059  0.00000 -0.32118
       6     C     3.08109  3.08109  0.00000 -0.16219
       7     H     0.43643  0.43643  0.00000  0.12714
       8     H     0.45078  0.45078  0.00000  0.09843
       9     C     3.15019  3.15019  0.00000 -0.30038
      10     H     0.44365  0.44365  0.00000  0.11269
      11     H     0.44673  0.44673  0.00000  0.10655
      12     H     0.45484  0.45484  0.00000  0.09032
      13     H     0.44448  0.44448  0.00000  0.11105
      14     H     0.45635  0.45635  0.00000  0.08730

   Total alpha = 24.00000, Total beta = 24.00000, Total charge = -0.00000

*** Psi4 exiting successfully. Buy a developer a beer!
