                              Psi4 1.0.54 Driver

  ==> Input File <==

--------------------------------------------------------------------------
set {
	reference rhf
	basis cc-pvtz
}

set_num_threads( 4 )
memory 2 gb

molecule MOL {
0 1

H	 -1.835082	 1.385983	 0.000069
C	 -1.300516	 0.441153	 -0.000028
O	 -0.006604	 0.654344	 -0.000106
O	 -1.828920	 -0.612308	 0.000113
C	 0.852093	 -0.482521	 -0.000161
C	 2.277246	 0.016082	 0.032022
H	 0.654479	 -1.069404	 -0.885867
H	 0.623294	 -1.093076	 0.861719
H	 2.490953	 0.628820	 -0.834495
H	 2.958071	 -0.826729	 0.032765
H	 2.459607	 0.605056	 0.921867

	symmetry c1
}
set optking {
	frozen_dihedral = ("
		7 5 3 2
	")
}

ee,wfn = optimize('scf', return_wfn=True)
oeprop( wfn, 'DIPOLE', 'QUADRUPOLE', 'MULLIKEN_CHARGES')
f=open( 'psi4out.xyz', 'w' )
f.write( "11  " )
f.write( str(ee) + "\n" )
f.write( MOL.save_string_xyz() )
f.close()
--------------------------------------------------------------------------

    Molecular point group: c1
  Charge       = 0
  Multiplicity = 1
  Basis Set: CC-PVTZ
  Basis Set:
  @DF-RHF Final Energy:  -266.93189195075075
    Total Energy =                       -266.9318919507508667
    Molecular point group: c1
  Basis Set: CC-PVTZ
  Basis Set:
  Basis Set: CC-PVTZ
  Basis Set:
  @DF-RHF Final Energy:  -266.93189156217352
    Total Energy =                       -266.9318915621735755
  Basis Set: CC-PVTZ
  Basis Set:
  Basis Set: CC-PVTZ
  Basis Set:
  @DF-RHF Final Energy:  -266.93188696020604
    Total Energy =                       -266.9318869602060431
  Basis Set: CC-PVTZ
  Basis Set:
  Charge       = 0
  Multiplicity = 1
  Basis Set: CC-PVTZ
  Basis Set:

    Orbital Energies (a.u.)
    -----------------------

    Doubly Occupied:

       1A    -20.605708     2A    -20.545764     3A    -11.370124
       4A    -11.290021     5A    -11.225135     6A     -1.479598
       7A     -1.377440     8A     -1.053889     9A     -0.903801
      10A     -0.806086    11A     -0.740635    12A     -0.693524
      13A     -0.682537    14A     -0.593502    15A     -0.578608
      16A     -0.558128    17A     -0.519347    18A     -0.516074
      19A     -0.463793    20A     -0.458250

  @DF-RHF Final Energy:  -266.93189230238846

   => Energetics <=

    Nuclear Repulsion Energy =            179.6493052801255885
    One-Electron Energy =                -720.2384693909253883
    Two-Electron Energy =                 273.6572718084113376
    DFT Exchange-Correlation Energy =       0.0000000000000000
    Empirical Dispersion Energy =           0.0000000000000000
    PCM Polarization Energy =               0.0000000000000000
    EFP Energy =                            0.0000000000000000
    Total Energy =                       -266.9318923023885191
    Molecular point group: c1
  Basis Set: CC-PVTZ
  Basis Set:

  -Total Gradient:
     Atom            X                  Y                   Z
    ------   -----------------  -----------------  -----------------
       1       -0.000008191527     0.000011418501    -0.000024521984
       2        0.000014851221     0.000000351095     0.000190306036
       3        0.000003510905     0.000029360177    -0.000212121247
       4       -0.000000004840    -0.000006128641    -0.000036141458
       5       -0.000084039499    -0.000091780995     0.000171784532
       6       -0.000011280496    -0.000002713212    -0.000017017163
       7        0.000079427212     0.000069455608    -0.000067969702
       8        0.000007415412    -0.000008715472    -0.000002877400
       9        0.000006075004     0.000002195988    -0.000000524523
      10        0.000001237237    -0.000000093192    -0.000000734622
      11       -0.000009000631    -0.000003349858    -0.000000182470

  **** Optimization is complete! (in 4 steps) ****
    Final optimized geometry and variables:
    Molecular point group: c1

    Geometry (in Angstrom), charge = 0, multiplicity = 1:

    H           -1.835636160198     1.385305883731    -0.003521002828
    C           -1.300672934488     0.440723311360    -0.005513059671
    O           -0.006781326506     0.654310996888    -0.005710194316
    O           -1.828557565995    -0.613012056381    -0.007831223814
    C            0.852275622447    -0.482164347715    -0.005502237170
    C            2.277247521299     0.017106981316     0.024268772112
    H            0.654532172414    -1.069159388426    -0.891252962778
    H            0.624987377163    -1.092598132709     0.856717543996
    H            2.489174511017     0.630255416284    -0.842400267873
    H            2.958504734715    -0.825372565381     0.023541907671
    H            2.460791331710     0.605866055281     0.914020054780

  Mulliken Charges: (a.u.)
   Center  Symbol    Alpha    Beta     Spin     Total
       1     H     0.44777  0.44777  0.00000  0.10447
       2     C     2.84643  2.84643  0.00000  0.30714
       3     O     4.14419  4.14419  0.00000 -0.28838
       4     O     4.19490  4.19490  0.00000 -0.38980
       5     C     2.97236  2.97236  0.00000  0.05529
       6     C     3.13325  3.13325  0.00000 -0.26650
       7     H     0.45329  0.45329  0.00000  0.09341
       8     H     0.45290  0.45290  0.00000  0.09420
       9     H     0.45033  0.45033  0.00000  0.09935
      10     H     0.45423  0.45423  0.00000  0.09154
      11     H     0.45036  0.45036  0.00000  0.09928

   Total alpha = 20.00000, Total beta = 20.00000, Total charge =  0.00000

*** Psi4 exiting successfully. Buy a developer a beer!
