                              Psi4 1.0.54 Driver

  ==> Input File <==

--------------------------------------------------------------------------
set {
	reference rhf
	basis cc-pvtz
}

set_num_threads( 4 )
memory 2 gb

molecule MOL {
0 1

O	 -2.817697	 1.304178	 0.001046
C	 -2.664672	 0.129869	 0.003507
C	 -3.797908	 -0.860100	 -0.001145
O	 -1.481217	 -0.452708	 0.001092
H	 -4.408836	 -0.679689	 -0.875387
H	 -3.443486	 -1.878443	 -0.002770
H	 -4.412123	 -0.683688	 0.871605
C	 -0.332055	 0.384012	 -0.000250
C	 0.892252	 -0.506059	 -0.000295
H	 -0.360822	 1.020205	 -0.874146
H	 -0.359817	 1.021310	 0.872861
C	 0.568228	 -1.928846	 0.445852
H	 1.641574	 -0.073726	 0.654895
H	 1.318273	 -0.518466	 -0.998302
C	 1.788427	 -2.845462	 0.453236
H	 0.132659	 -1.906227	 1.441717
H	 -0.190748	 -2.350063	 -0.208752
C	 1.464840	 -4.267643	 0.897873
H	 2.546898	 -2.426502	 1.108407
H	 2.224457	 -2.868988	 -0.541456
H	 1.058415	 -4.280414	 1.903607
H	 2.351024	 -4.891460	 0.891802
H	 0.733221	 -4.726213	 0.241138

	symmetry c1
}
set optking {
	frozen_dihedral = ("
		13 9 8 10
	")
}

ee,wfn = optimize('scf', return_wfn=True)
oeprop( wfn, 'DIPOLE', 'QUADRUPOLE', 'MULLIKEN_CHARGES')
f=open( 'psi4out.xyz', 'w' )
f.write( "23  " )
f.write( str(ee) + "\n" )
f.write( MOL.save_string_xyz() )
f.close()
--------------------------------------------------------------------------

    Molecular point group: c1
  Charge       = 0
  Multiplicity = 1
  Basis Set: CC-PVTZ
  Basis Set:
  @DF-RHF Final Energy:  -423.12492049771510
    Total Energy =                       -423.1249204977152658
    Molecular point group: c1
  Basis Set: CC-PVTZ
  Basis Set:
  Basis Set: CC-PVTZ
  Basis Set:
  @DF-RHF Final Energy:  -423.12534631542462
    Total Energy =                       -423.1253463154243946
  Basis Set: CC-PVTZ
  Basis Set:
  Basis Set: CC-PVTZ
  Basis Set:
  @DF-RHF Final Energy:  -423.12735877549920
    Total Energy =                       -423.1273587754990331
  Basis Set: CC-PVTZ
  Basis Set:
  Basis Set: CC-PVTZ
  Basis Set:
  @DF-RHF Final Energy:  -423.12732447194298
    Total Energy =                       -423.1273244719432114
  Basis Set: CC-PVTZ
  Basis Set:
  Basis Set: CC-PVTZ
  Basis Set:
  @DF-RHF Final Energy:  -423.12749883357566
    Total Energy =                       -423.1274988335751459
  Basis Set: CC-PVTZ
  Basis Set:
  Basis Set: CC-PVTZ
  Basis Set:
  @DF-RHF Final Energy:  -423.12757610144212
    Total Energy =                       -423.1275761014421732
  Basis Set: CC-PVTZ
  Basis Set:
  Basis Set: CC-PVTZ
  Basis Set:
  @DF-RHF Final Energy:  -423.12757980385220
    Total Energy =                       -423.1275798038516314
  Basis Set: CC-PVTZ
  Basis Set:
  Charge       = 0
  Multiplicity = 1
  Basis Set: CC-PVTZ
  Basis Set:

    Orbital Energies (a.u.)
    -----------------------

    Doubly Occupied:

       1A    -20.595051     2A    -20.529453     3A    -11.366358
       4A    -11.281152     5A    -11.230907     6A    -11.224238
       7A    -11.216558     8A    -11.215340     9A    -11.209051
      10A     -1.470829    11A     -1.363661    12A     -1.090279
      13A     -1.040804    14A     -1.002144    15A     -0.931975
      16A     -0.844339    17A     -0.807612    18A     -0.763571
      19A     -0.693518    20A     -0.690141    21A     -0.668825
      22A     -0.645327    23A     -0.607472    24A     -0.589330
      25A     -0.580500    26A     -0.568064    27A     -0.560319
      28A     -0.530237    29A     -0.525900    30A     -0.515974
      31A     -0.491963    32A     -0.473145    33A     -0.469219
      34A     -0.458917    35A     -0.448375    36A     -0.440380

  @DF-RHF Final Energy:  -423.12757987548326

   => Energetics <=

    Nuclear Repulsion Energy =            461.1206893292803102
    One-Electron Energy =               -1490.2146842780580300
    Two-Electron Energy =                 605.9664150732944563
    DFT Exchange-Correlation Energy =       0.0000000000000000
    Empirical Dispersion Energy =           0.0000000000000000
    PCM Polarization Energy =               0.0000000000000000
    EFP Energy =                            0.0000000000000000
    Total Energy =                       -423.1275798754832067
    Molecular point group: c1
  Basis Set: CC-PVTZ
  Basis Set:

  -Total Gradient:
     Atom            X                  Y                   Z
    ------   -----------------  -----------------  -----------------
       1       -0.000022600108     0.000007129278    -0.000004077559
       2        0.000006934981     0.000018588207    -0.000006356969
       3        0.000009592644     0.000005587770     0.000002534807
       4        0.000034068409    -0.000016597749    -0.000015349679
       5        0.000003106297     0.000003264473     0.000000178660
       6        0.000003714095    -0.000001465546     0.000000002796
       7        0.000002056206    -0.000000315219     0.000003557652
       8        0.003305130278     0.004159912479     0.004586396797
       9        0.001936265458     0.002488961080    -0.005786849690
      10       -0.003055223692    -0.003810056642    -0.002937351583
      11        0.000009563589     0.000002392316    -0.000010638165
      12       -0.000001307727     0.000004826821    -0.000001056998
      13       -0.002230979325    -0.002858094439     0.004173111578
      14       -0.000001057742    -0.000002392204     0.000006837282
      15        0.000003344836    -0.000003693923    -0.000006086008
      16        0.000001291415     0.000002616525    -0.000003414488
      17       -0.000004746593    -0.000001733380    -0.000003603306
      18        0.000000451106     0.000000851242     0.000001499426
      19       -0.000002314746     0.000002653838    -0.000000388219
      20        0.000003571862    -0.000002036697    -0.000001491868
      21       -0.000000726699    -0.000001016090     0.000002856195
      22        0.000000289681     0.000000637409     0.000000306257
      23       -0.000000424222    -0.000000019547    -0.000000616919

  **** Optimization is complete! (in 8 steps) ****
    Final optimized geometry and variables:
    Molecular point group: c1

    Geometry (in Angstrom), charge = 0, multiplicity = 1:

    O           -2.020850303880     2.426266846660    -0.222689786669
    C           -1.957807729329     1.244189573657    -0.265049150679
    C           -3.164318978560     0.347644668984    -0.342435915992
    O           -0.824719296598     0.570836040582    -0.248944239308
    H           -3.729323295298     0.607017203358    -1.227711138396
    H           -2.891429983281    -0.695198511315    -0.371698620859
    H           -3.792090857172     0.541227285442     0.517005966615
    C            0.386014251074     1.320500368694    -0.177671314131
    C            1.587432800361     0.368700502289    -0.188182324581
    H            0.400883324469     1.970963738181    -1.039204715179
    H            0.360132706312     1.925262487216     0.715869111934
    C            1.301151304120    -1.059935136361     0.278302980898
    H            2.328574057163     0.779683649566     0.489495423790
    H            2.027394223885     0.340004377916    -1.178017696622
    C            2.569438124697    -1.905450187907     0.355645386140
    H            0.824709435661    -1.035872849262     1.254227587907
    H            0.593958714782    -1.532166709133    -0.392658614940
    C            2.302565816162    -3.338323296378     0.804359645083
    H            3.274243684590    -1.440283698153     1.039561034421
    H            3.053692878206    -1.918123031226    -0.617242727484
    H            1.848427751525    -3.361582678643     1.789402017712
    H            3.220477655000    -3.912956805815     0.850130034680
    H            1.629691552130    -3.843716607774     0.119706706553

  Mulliken Charges: (a.u.)
   Center  Symbol    Alpha    Beta     Spin     Total
       1     O     4.20369  4.20369  0.00000 -0.40739
       2     C     2.81468  2.81468  0.00000  0.37064
       3     C     3.13987  3.13987  0.00000 -0.27975
       4     O     4.14407  4.14407  0.00000 -0.28813
       5     H     0.44194  0.44194  0.00000  0.11613
       6     H     0.44215  0.44215  0.00000  0.11569
       7     H     0.44192  0.44192  0.00000  0.11615
       8     C     2.98537  2.98537  0.00000  0.02926
       9     C     3.10425  3.10425  0.00000 -0.20850
      10     H     0.44772  0.44772  0.00000  0.10455
      11     H     0.44971  0.44971  0.00000  0.10058
      12     C     3.07798  3.07798  0.00000 -0.15595
      13     H     0.45159  0.45159  0.00000  0.09682
      14     H     0.44873  0.44873  0.00000  0.10254
      15     C     3.08701  3.08701  0.00000 -0.17401
      16     H     0.45332  0.45332  0.00000  0.09337
      17     H     0.44846  0.44846  0.00000  0.10307
      18     C     3.14985  3.14985  0.00000 -0.29970
      19     H     0.45496  0.45496  0.00000  0.09008
      20     H     0.45467  0.45467  0.00000  0.09067
      21     H     0.45495  0.45495  0.00000  0.09009
      22     H     0.44810  0.44810  0.00000  0.10380
      23     H     0.45501  0.45501  0.00000  0.08998

   Total alpha = 36.00000, Total beta = 36.00000, Total charge =  0.00000

*** Psi4 exiting successfully. Buy a developer a beer!
