                              Psi4 1.0.54 Driver

  ==> Input File <==

--------------------------------------------------------------------------
set {
	reference rhf
	basis cc-pvtz
}

set_num_threads( 4 )
memory 2 gb

molecule MOL {
0 1

H	 2.384361	 -0.943326	 -1.613623
O	 1.733825	 -1.176876	 -0.968648
C	 0.762502	 -0.269129	 -1.002517
C	 -0.318151	 -0.570512	 0.000144
O	 0.784924	 0.649123	 -1.747016
C	 -1.454884	 0.441630	 -0.000560
H	 -0.681352	 -1.571058	 -0.211715
H	 0.156555	 -0.629155	 0.974369
C	 -2.822577	 -0.232186	 0.000063
H	 -1.359760	 1.084704	 -0.867077
H	 -1.359641	 1.085996	 0.864983
H	 -2.954352	 -0.858985	 -0.875745
H	 -3.615886	 0.505352	 0.000019
H	 -2.953878	 -0.858359	 0.876394

	symmetry c1
}
set optking {
	frozen_dihedral = ("
		7 4 6 10
	")
}

ee,wfn = optimize('scf', return_wfn=True)
oeprop( wfn, 'DIPOLE', 'QUADRUPOLE', 'MULLIKEN_CHARGES')
f=open( 'psi4out.xyz', 'w' )
f.write( "14  " )
f.write( str(ee) + "\n" )
f.write( MOL.save_string_xyz() )
f.close()
--------------------------------------------------------------------------

    Molecular point group: c1
  Charge       = 0
  Multiplicity = 1
  Basis Set: CC-PVTZ
  Basis Set:
  @DF-RHF Final Energy:  -305.99645092884163
    Total Energy =                       -305.9964509288416821
    Molecular point group: c1
  Basis Set: CC-PVTZ
  Basis Set:
  Basis Set: CC-PVTZ
  Basis Set:
  @DF-RHF Final Energy:  -305.99674249705282
    Total Energy =                       -305.9967424970529351
  Basis Set: CC-PVTZ
  Basis Set:
  Basis Set: CC-PVTZ
  Basis Set:
  @DF-RHF Final Energy:  -305.99668661787445
    Total Energy =                       -305.9966866178745022
  Basis Set: CC-PVTZ
  Basis Set:
  Basis Set: CC-PVTZ
  Basis Set:
  @DF-RHF Final Energy:  -305.99682727594563
    Total Energy =                       -305.9968272759458614
  Basis Set: CC-PVTZ
  Basis Set:
  Basis Set: CC-PVTZ
  Basis Set:
  @DF-RHF Final Energy:  -305.99682865122315
    Total Energy =                       -305.9968286512232680
  Basis Set: CC-PVTZ
  Basis Set:
  Charge       = 0
  Multiplicity = 1
  Basis Set: CC-PVTZ
  Basis Set:

    Orbital Energies (a.u.)
    -----------------------

    Doubly Occupied:

       1A    -20.604690     2A    -20.541811     3A    -11.375011
       4A    -11.239716     5A    -11.222359     6A    -11.214864
       7A     -1.478722     8A     -1.370137     9A     -1.081414
      10A     -0.981231    11A     -0.859951    12A     -0.792503
      13A     -0.705299    14A     -0.695337    15A     -0.663962
      16A     -0.615967    17A     -0.598417    18A     -0.571363
      19A     -0.553458    20A     -0.500510    21A     -0.491842
      22A     -0.485620    23A     -0.477768    24A     -0.449840

  @DF-RHF Final Energy:  -305.99682928945640

   => Energetics <=

    Nuclear Repulsion Energy =            240.5947414517556808
    One-Electron Energy =                -894.0395586081742749
    Two-Electron Energy =                 347.4479878669618529
    DFT Exchange-Correlation Energy =       0.0000000000000000
    Empirical Dispersion Energy =           0.0000000000000000
    PCM Polarization Energy =               0.0000000000000000
    EFP Energy =                            0.0000000000000000
    Total Energy =                       -305.9968292894567412
    Molecular point group: c1
  Basis Set: CC-PVTZ
  Basis Set:

  -Total Gradient:
     Atom            X                  Y                   Z
    ------   -----------------  -----------------  -----------------
       1       -0.000008591581     0.000001108443     0.000006632599
       2        0.000005484460     0.000001699934    -0.000016327554
       3       -0.000004003142     0.000013337394     0.000003153521
       4        0.000877002802     0.000848688337    -0.002760765138
       5       -0.000000100966    -0.000017347592     0.000019287925
       6       -0.001789880929    -0.002007811247    -0.001075053537
       7       -0.000442565132    -0.000401105731     0.002442456672
       8        0.000011460957     0.000007480031     0.000004292700
       9       -0.000005923164     0.000004163436     0.000004242981
      10        0.001360438864     0.001545155655     0.001379201397
      11       -0.000008949667    -0.000005563042    -0.000007124141
      12        0.000006809367     0.000006918303     0.000000776942
      13       -0.000007973375     0.000004162977     0.000001638791
      14        0.000006791506    -0.000000886894    -0.000002413160

  **** Optimization is complete! (in 6 steps) ****
    Final optimized geometry and variables:
    Molecular point group: c1

    Geometry (in Angstrom), charge = 0, multiplicity = 1:

    H            2.617204471643    -0.789862621083    -0.823625962964
    O            1.919866224764    -1.007328212228    -0.223572004959
    C            0.972510108365    -0.079512861264    -0.326136738107
    C           -0.176470847433    -0.363419204234     0.604820039763
    O            1.067880636209     0.834352596708    -1.070091295319
    C           -1.309116853483     0.669583522781     0.570500317238
    H           -0.536864768257    -1.359496462451     0.371294513388
    H            0.249788052314    -0.452782827742     1.597920275850
    C           -2.694766211074     0.033922782131     0.546060371282
    H           -1.174112252484     1.317092944296    -0.284068258417
    H           -1.227114837721     1.311648724742     1.440368874456
    H           -2.830482002905    -0.571854870843    -0.343559258218
    H           -3.468003634601     0.792753770310     0.551212644965
    H           -2.852879252291    -0.604862941701     1.408901371705

  Mulliken Charges: (a.u.)
   Center  Symbol    Alpha    Beta     Spin     Total
       1     H     0.38248  0.38248  0.00000  0.23505
       2     O     4.16014  4.16014  0.00000 -0.32027
       3     C     2.80093  2.80093  0.00000  0.39813
       4     C     3.11276  3.11276  0.00000 -0.22552
       5     O     4.19051  4.19051  0.00000 -0.38102
       6     C     3.08788  3.08788  0.00000 -0.17575
       7     H     0.43782  0.43782  0.00000  0.12436
       8     H     0.43445  0.43445  0.00000  0.13111
       9     C     3.14882  3.14882  0.00000 -0.29765
      10     H     0.43557  0.43557  0.00000  0.12886
      11     H     0.45224  0.45224  0.00000  0.09553
      12     H     0.45416  0.45416  0.00000  0.09169
      13     H     0.44701  0.44701  0.00000  0.10598
      14     H     0.45525  0.45525  0.00000  0.08950

   Total alpha = 24.00000, Total beta = 24.00000, Total charge =  0.00000

*** Psi4 exiting successfully. Buy a developer a beer!
