  ==> Input File <==

--------------------------------------------------------------------------
set {
	reference rhf
	basis cc-pvtz
}

set_num_threads( 4 )
memory 2 gb

molecule MOL {
0 1

H	 -2.816458	 -0.841657	 -0.064679
N	 -1.878861	 -0.711874	 0.250184
C	 -1.341419	 0.551458	 -0.220231
H	 -1.333674	 -1.468530	 -0.105118
C	 0.082190	 0.731516	 0.254705
H	 -1.357065	 0.652078	 -1.304747
H	 -1.939897	 1.357530	 0.189797
O	 0.857964	 1.188856	 -0.811467
H	 0.110727	 1.449577	 1.073086
H	 0.468330	 -0.217337	 0.620084
C	 2.209042	 1.330140	 -0.521906
H	 2.704104	 1.689453	 -1.412520
H	 2.370950	 2.046628	 0.280668
H	 2.654947	 0.381825	 -0.231337

	symmetry c1
}
set optking {
	frozen_dihedral = ("
		8 5 3 6
	")
}

ee = optimize('scf')
oeprop('DIPOLE', 'QUADRUPOLE', 'MULLIKEN_CHARGES')
f=open( 'psi4out.xyz', 'w' )
f.write( "14  " )
f.write( str(ee) + "\n" )
f.write( MOL.save_string_xyz() )
f.close()
--------------------------------------------------------------------------

    Molecular point group: c1
  Charge       = 0
  Multiplicity = 1
  Basis Set: CC-PVTZ
  Basis Set:
  @DF-RHF Final Energy:  -248.21898808039921
    Total Energy =                       -248.2189880803991855
    Molecular point group: c1
  Basis Set: CC-PVTZ
  Basis Set:
  Basis Set: CC-PVTZ
  Basis Set:
  @DF-RHF Final Energy:  -248.21972598508313
    Total Energy =                       -248.2197259850830733
  Basis Set: CC-PVTZ
  Basis Set:
  Basis Set: CC-PVTZ
  Basis Set:
  @DF-RHF Final Energy:  -248.21988487408834
    Total Energy =                       -248.2198848740884500
  Basis Set: CC-PVTZ
  Basis Set:
  Basis Set: CC-PVTZ
  Basis Set:
  @DF-RHF Final Energy:  -248.21990695433891
    Total Energy =                       -248.2199069543389669
  Basis Set: CC-PVTZ
  Basis Set:
  Charge       = 0
  Multiplicity = 1
  Basis Set: CC-PVTZ
  Basis Set:

    Orbital Energies (a.u.)
    -----------------------

    Doubly Occupied:

       1A    -20.548730     2A    -15.531432     3A    -11.262973
       4A    -11.262185     5A    -11.239927     6A     -1.382567
       7A     -1.180962     8A     -0.997974     9A     -0.901008
      10A     -0.824213    11A     -0.687548    12A     -0.665653
      13A     -0.654695    14A     -0.620343    15A     -0.589050
      16A     -0.564683    17A     -0.517267    18A     -0.498559
      19A     -0.471925    20A     -0.417445    21A     -0.387509

  @DF-RHF Final Energy:  -248.21990791939720

   => Energetics <=

    Nuclear Repulsion Energy =            191.0839788420028071
    One-Electron Energy =                -716.1944770437233956
    Two-Electron Energy =                 276.8905902823234442
    DFT Exchange-Correlation Energy =       0.0000000000000000
    Empirical Dispersion Energy =           0.0000000000000000
    PCM Polarization Energy =               0.0000000000000000
    EFP Energy =                            0.0000000000000000
    Total Energy =                       -248.2199079193971443
    Molecular point group: c1
  Basis Set: CC-PVTZ
  Basis Set:

  -Total Gradient:
     Atom            X                  Y                   Z
    ------   -----------------  -----------------  -----------------
       1       -0.000035335059    -0.000010476419    -0.000018195723
       2        0.000048108604     0.000011403934     0.000018236744
       3        0.000682564165    -0.004405808391    -0.000542363259
       4       -0.000003357034    -0.000057963507    -0.000022014163
       5       -0.000682988982     0.003736155491     0.000860814844
       6       -0.000467631944     0.003069938495     0.000315003270
       7       -0.000001137337     0.000032728977    -0.000013917848
       8        0.000482030182    -0.002350486185    -0.000633489125
       9        0.000000889546    -0.000001130415    -0.000009633179
      10        0.000023395004    -0.000013580634     0.000001962994
      11       -0.000013320649     0.000008700812     0.000070089459
      12       -0.000045432431    -0.000017945706    -0.000012000317
      13        0.000009432313     0.000007789869    -0.000001501344
      14        0.000002783619    -0.000009326316    -0.000012992353

  **** Optimization is complete! (in 5 steps) ****
    Final optimized geometry and variables:
    Molecular point group: c1

    Geometry (in Angstrom), charge = 0, multiplicity = 1:

    H           -2.886380067143    -1.354189816204     0.300561374146
    N           -1.906190148249    -1.311786041512     0.481138796715
    C           -1.340117793339    -0.067419860642    -0.011302045424
    H           -1.487664473664    -2.097824174521     0.028821327032
    C            0.106125006284     0.100119438967     0.455742588511
    H           -1.350783365170     0.037314837878    -1.092507836321
    H           -1.943699620456     0.743455805970     0.378194572629
    O            0.885965334617     0.552082550972    -0.609098553228
    H            0.168591708815     0.794930013183     1.289958418066
    H            0.482948554243    -0.857700101704     0.808553109455
    C            2.216715061929     0.779207701144    -0.285337523555
    H            2.723261714985     1.112758670814    -1.179496516435
    H            2.316750535116     1.545784769221     0.480081413616
    H            2.700230050933    -0.127306870816     0.073146823615

  Mulliken Charges: (a.u.)
   Center  Symbol    Alpha    Beta     Spin     Total
       1     H     0.42787  0.42787  0.00000  0.14426
       2     N     3.69328  3.69328  0.00000 -0.38657
       3     C     3.03463  3.03463  0.00000 -0.06926
       4     H     0.42820  0.42820  0.00000  0.14360
       5     C     2.96145  2.96145  0.00000  0.07710
       6     H     0.45778  0.45778  0.00000  0.08444
       7     H     0.45743  0.45743  0.00000  0.08514
       8     O     4.17344  4.17344  0.00000 -0.34689
       9     H     0.47323  0.47323  0.00000  0.05354
      10     H     0.47266  0.47266  0.00000  0.05468
      11     C     3.02859  3.02859  0.00000 -0.05717
      12     H     0.44733  0.44733  0.00000  0.10534
      13     H     0.47148  0.47148  0.00000  0.05703
      14     H     0.47263  0.47263  0.00000  0.05475

   Total alpha = 21.00000, Total beta = 21.00000, Total charge = -0.00000
