                              Psi4 1.0.54 Driver

  ==> Input File <==

--------------------------------------------------------------------------
set {
	reference rhf
	basis cc-pvtz
}

set_num_threads( 4 )
memory 2 gb

molecule MOL {
0 1

H	 -3.034039	 -0.667848	 0.004703
O	 -2.240597	 -1.171748	 0.000934
C	 -1.159675	 -0.364500	 0.000370
C	 -0.116622	 -0.523525	 0.889845
C	 -1.127796	 0.652976	 -0.940789
H	 -0.140191	 -1.310366	 1.621545
C	 0.957633	 0.347326	 0.828037
H	 -1.955608	 0.750656	 -1.616157
C	 -0.054687	 1.519001	 -1.002553
H	 1.769653	 0.228640	 1.520358
C	 0.995433	 1.359855	 -0.103716
C	 -0.008960	 2.610832	 -2.041523
H	 1.834899	 2.028207	 -0.136339
H	 0.339086	 3.541988	 -1.611831
H	 -0.984351	 2.782464	 -2.476150
H	 0.671284	 2.346258	 -2.843964

	symmetry c1
}
set optking {
	frozen_dihedral = ("
		5 3 2 1
	")
}

ee,wfn = optimize('scf', return_wfn=True)
oeprop( wfn, 'DIPOLE', 'QUADRUPOLE', 'MULLIKEN_CHARGES')
f=open( 'psi4out.xyz', 'w' )
f.write( "16  " )
f.write( str(ee) + "\n" )
f.write( MOL.save_string_xyz() )
f.close()
--------------------------------------------------------------------------

    Molecular point group: c1
  Charge       = 0
  Multiplicity = 1
  Basis Set: CC-PVTZ
  Basis Set:
  @DF-RHF Final Energy:  -344.71646738654329
    Total Energy =                       -344.7164673865430586
    Molecular point group: c1
  Basis Set: CC-PVTZ
  Basis Set:
  Basis Set: CC-PVTZ
  Basis Set:
  @DF-RHF Final Energy:  -344.71788731978825
    Total Energy =                       -344.7178873197880762
  Basis Set: CC-PVTZ
  Basis Set:
  Basis Set: CC-PVTZ
  Basis Set:
  @DF-RHF Final Energy:  -344.71798422155922
    Total Energy =                       -344.7179842215589360
  Basis Set: CC-PVTZ
  Basis Set:
  Basis Set: CC-PVTZ
  Basis Set:
  @DF-RHF Final Energy:  -344.71799373114123
    Total Energy =                       -344.7179937311414051
  Basis Set: CC-PVTZ
  Basis Set:
  Basis Set: CC-PVTZ
  Basis Set:
  @DF-RHF Final Energy:  -344.71799635724915
    Total Energy =                       -344.7179963572492056
  Basis Set: CC-PVTZ
  Basis Set:
  Charge       = 0
  Multiplicity = 1
  Basis Set: CC-PVTZ
  Basis Set:

    Orbital Energies (a.u.)
    -----------------------

    Doubly Occupied:

       1A    -20.574914     2A    -11.290098     3A    -11.241610
       4A    -11.230811     5A    -11.221662     6A    -11.219839
       7A    -11.216326     8A    -11.216251     9A     -1.403245
      10A     -1.154830    11A     -1.047366    12A     -1.006951
      13A     -0.940312    14A     -0.838928    15A     -0.804418
      16A     -0.728424    17A     -0.681622    18A     -0.654459
      19A     -0.616737    20A     -0.595469    21A     -0.579306
      22A     -0.570059    23A     -0.557083    24A     -0.526944
      25A     -0.505381    26A     -0.485112    27A     -0.470142
      28A     -0.334178    29A     -0.316620

  @DF-RHF Final Energy:  -344.71799683329641

   => Energetics <=

    Nuclear Repulsion Energy =            346.0783430142212183
    One-Electron Energy =               -1153.5344758020523841
    Two-Electron Energy =                 462.7381359545343003
    DFT Exchange-Correlation Energy =       0.0000000000000000
    Empirical Dispersion Energy =           0.0000000000000000
    PCM Polarization Energy =               0.0000000000000000
    EFP Energy =                            0.0000000000000000
    Total Energy =                       -344.7179968332968656
    Molecular point group: c1
  Basis Set: CC-PVTZ
  Basis Set:

  -Total Gradient:
     Atom            X                  Y                   Z
    ------   -----------------  -----------------  -----------------
       1        0.000025673078     0.000101637907     0.002597829090
       2        0.000456422912    -0.000741974259    -0.003870789979
       3       -0.001420762158     0.001795729154     0.002501299554
       4        0.000050558416     0.000020534845     0.000004808606
       5        0.000895928194    -0.001149799380    -0.001218185971
       6       -0.000019827386    -0.000009787492    -0.000005701413
       7       -0.000011388255     0.000003847054     0.000001566852
       8        0.000014137591     0.000002499895     0.000004851268
       9        0.000005792911    -0.000012933263    -0.000035434842
      10       -0.000002052056     0.000001359030    -0.000000072024
      11        0.000007839504    -0.000023343497     0.000013116140
      12        0.000006452024    -0.000004158297     0.000011052537
      13       -0.000003960427     0.000006819707    -0.000010824065
      14       -0.000008284159     0.000008142665     0.000009331264
      15       -0.000005685818    -0.000000097414    -0.000012753945
      16        0.000009155626     0.000001523342     0.000009906929

  **** Optimization is complete! (in 6 steps) ****
    Final optimized geometry and variables:
    Molecular point group: c1

    Geometry (in Angstrom), charge = 0, multiplicity = 1:

    H           -2.635166368823    -1.299408588361     0.347928657716
    O           -1.813098555273    -1.756054596829     0.357896843653
    C           -0.774388293008    -0.878974888142     0.315783191009
    C            0.269738365946    -1.053337733078     1.198996947823
    C           -0.729555301258     0.129406940165    -0.632179720927
    H            0.222939613661    -1.844751834925     1.920484176475
    C            1.353698190642    -0.198281692731     1.131189270053
    H           -1.543601193620     0.229916471212    -1.326535436427
    C            0.349581600491     0.993359022059    -0.694650344009
    H            2.169260563929    -0.325445919294     1.817729351233
    C            1.395628120199     0.819738427056     0.200992200373
    C            0.406313768140     2.081736887680    -1.737196174340
    H            2.242551477442     1.479045318026     0.167360275782
    H            0.764270409779     3.010562627042    -1.310617004960
    H           -0.567716588685     2.263854930698    -2.171348219752
    H            1.082048069984     1.808757808753    -2.540533065259

  Mulliken Charges: (a.u.)
   Center  Symbol    Alpha    Beta     Spin     Total
       1     H     0.38605  0.38605  0.00000  0.22789
       2     O     4.18573  4.18573  0.00000 -0.37147
       3     C     2.85274  2.85274  0.00000  0.29451
       4     C     3.12322  3.12322  0.00000 -0.24645
       5     C     3.15231  3.15231  0.00000 -0.30463
       6     H     0.41735  0.41735  0.00000  0.16529
       7     C     3.05409  3.05409  0.00000 -0.10818
       8     H     0.42728  0.42728  0.00000  0.14544
       9     C     2.94541  2.94541  0.00000  0.10919
      10     H     0.42267  0.42267  0.00000  0.15466
      11     C     3.11311  3.11311  0.00000 -0.22623
      12     C     3.14676  3.14676  0.00000 -0.29353
      13     H     0.42738  0.42738  0.00000  0.14523
      14     H     0.44773  0.44773  0.00000  0.10454
      15     H     0.45193  0.45193  0.00000  0.09614
      16     H     0.44621  0.44621  0.00000  0.10758

   Total alpha = 29.00000, Total beta = 29.00000, Total charge =  0.00000

*** Psi4 exiting successfully. Buy a developer a beer!
