                              Psi4 1.0.54 Driver

  ==> Input File <==

--------------------------------------------------------------------------
set {
	reference rhf
	basis cc-pvtz
}

set_num_threads( 4 )
memory 2 gb

molecule MOL {
0 1

H	 0.497307	 1.838133	 0.668848
C	 1.218990	 1.070822	 0.412791
N	 0.526300	 -0.128137	 0.000000
H	 1.809789	 0.867628	 1.296934
H	 1.880281	 1.481122	 -0.353316
C	 -0.247113	 0.037112	 -1.209233
H	 1.176723	 -0.875205	 -0.111797
H	 -0.996493	 -0.743733	 -1.271440
H	 0.397975	 -0.057351	 -2.073512
H	 -0.763794	 0.997171	 -1.271673

	symmetry c1
}
set optking {
	frozen_dihedral = ("
		2 3 6 8
	")
}

ee,wfn = optimize('scf', return_wfn=True)
oeprop( wfn, 'DIPOLE', 'QUADRUPOLE', 'MULLIKEN_CHARGES')
f=open( 'psi4out.xyz', 'w' )
f.write( "10  " )
f.write( str(ee) + "\n" )
f.write( MOL.save_string_xyz() )
f.close()
--------------------------------------------------------------------------

    Molecular point group: c1
  Charge       = 0
  Multiplicity = 1
  Basis Set: CC-PVTZ
  Basis Set:
  @DF-RHF Final Energy:  -134.29002103770028
    Total Energy =                       -134.2900210377002850
    Molecular point group: c1
  Basis Set: CC-PVTZ
  Basis Set:
  Basis Set: CC-PVTZ
  Basis Set:
  @DF-RHF Final Energy:  -134.29148929415663
    Total Energy =                       -134.2914892941567189
  Basis Set: CC-PVTZ
  Basis Set:
  Basis Set: CC-PVTZ
  Basis Set:
  @DF-RHF Final Energy:  -134.29166146582375
    Total Energy =                       -134.2916614658237222
  Basis Set: CC-PVTZ
  Basis Set:
  Basis Set: CC-PVTZ
  Basis Set:
  @DF-RHF Final Energy:  -134.29166913202704
    Total Energy =                       -134.2916691320269820
  Basis Set: CC-PVTZ
  Basis Set:
  Charge       = 0
  Multiplicity = 1
  Basis Set: CC-PVTZ
  Basis Set:

    Orbital Energies (a.u.)
    -----------------------

    Doubly Occupied:

       1A    -15.530797     2A    -11.234338     3A    -11.233860
       4A     -1.198995     5A     -0.948033     6A     -0.855391
       7A     -0.662232     8A     -0.611156     9A     -0.591234
      10A     -0.541161    11A     -0.511928    12A     -0.507299
      13A     -0.360822

  @DF-RHF Final Energy:  -134.29167002145257

   => Energetics <=

    Nuclear Repulsion Energy =             84.6722476669023933
    One-Electron Energy =                -348.3533476326272194
    Two-Electron Energy =                 129.3894299442722797
    DFT Exchange-Correlation Energy =       0.0000000000000000
    Empirical Dispersion Energy =           0.0000000000000000
    PCM Polarization Energy =               0.0000000000000000
    EFP Energy =                            0.0000000000000000
    Total Energy =                       -134.2916700214525179
    Molecular point group: c1
  Basis Set: CC-PVTZ
  Basis Set:

  -Total Gradient:
     Atom            X                  Y                   Z
    ------   -----------------  -----------------  -----------------
       1       -0.000004532954    -0.000013367686    -0.000001326785
       2       -0.002068605589     0.000851071664     0.001423893840
       3        0.002399237056    -0.000633268089    -0.001544240029
       4       -0.000005639669    -0.000004820168    -0.000003501101
       5       -0.000008108003    -0.000019336577     0.000003712103
       6        0.001952422671    -0.002319289422    -0.001579731374
       7       -0.000023523680     0.000030772485    -0.000015464763
       8       -0.002198944332     0.002092949898     0.001650917836
       9       -0.000018470644    -0.000001860478     0.000049729383
      10       -0.000023834857     0.000017148376     0.000016010891

  **** Optimization is complete! (in 5 steps) ****
    Final optimized geometry and variables:
    Molecular point group: c1

    Geometry (in Angstrom), charge = 0, multiplicity = 1:

    H            0.007634391643     1.525374251822     0.922346417914
    C            0.718302219603     0.743117163328     0.683350389759
    N            0.008400739689    -0.451371984891     0.288865634972
    H            1.299231980171     0.543725868904     1.575027577849
    H            1.395142683336     1.131414566878    -0.081046613842
    C           -0.759236823252    -0.315564163125    -0.929003488861
    H            0.630324077701    -1.227056472135     0.228382943093
    H           -1.519565429920    -1.085216345496    -0.981943985274
    H           -0.159887779386    -0.341236000927    -1.839406137964
    H           -1.282201430408     0.633714263729    -0.912011147937

  Mulliken Charges: (a.u.)
   Center  Symbol    Alpha    Beta     Spin     Total
       1     H     0.45680  0.45680  0.00000  0.08640
       2     C     3.07987  3.07987  0.00000 -0.15975
       3     N     3.63212  3.63212  0.00000 -0.26424
       4     H     0.45278  0.45278  0.00000  0.09443
       5     H     0.47587  0.47587  0.00000  0.04827
       6     C     3.08186  3.08186  0.00000 -0.16372
       7     H     0.43960  0.43960  0.00000  0.12080
       8     H     0.45227  0.45227  0.00000  0.09545
       9     H     0.46974  0.46974  0.00000  0.06053
      10     H     0.45909  0.45909  0.00000  0.08183

   Total alpha = 13.00000, Total beta = 13.00000, Total charge =  0.00000

*** Psi4 exiting successfully. Buy a developer a beer!
