  ==> Input File <==

--------------------------------------------------------------------------
set {
	reference rhf
	basis 6-31G*
}

set_num_threads( 1 )
memory 2 gb

molecule MOL {
0 1

H	 -0.019958	 -0.711943	 -1.839328
C	 -0.563379	 -1.194424	 -1.029360
O	 -1.392607	 -0.295399	 -0.366433
H	 -1.190290	 -1.972239	 -1.443037
H	 0.158668	 -1.648189	 -0.351737
C	 -0.719715	 0.768384	 0.229244
C	 0.719720	 0.768376	 -0.229267
H	 -1.185038	 1.714362	 -0.050570
H	 -0.750528	 0.687237	 1.313896
O	 1.392611	 -0.295398	 0.366430
H	 0.750534	 0.687200	 -1.313918
H	 1.185043	 1.714359	 0.050526
C	 2.706965	 -0.449871	 -0.062409
H	 2.756559	 -0.644779	 -1.131878
H	 3.305899	 0.433456	 0.155466
H	 3.125548	 -1.294566	 0.467107

	symmetry c1
}
set optking {
	frozen_dihedral = ("
		3 6 7 11,
		7 10 13 14
	")
}

ee = energy('scf')
oeprop('DIPOLE', 'QUADRUPOLE', 'MULLIKEN_CHARGES')
f=open( 'psi4out.xyz', 'w' )
f.write( "16  " )
f.write( str(ee) + "\n" )
f.write( MOL.save_string_xyz() )
f.close()
--------------------------------------------------------------------------

    Molecular point group: c1

    Geometry (in Angstrom), charge = 0, multiplicity = 1:

       Center              X                  Y                   Z               Mass
    ------------   -----------------  -----------------  -----------------  -----------------
           H         -0.396598215112    -0.581115637671    -1.647501463026     1.007825032070
           C         -0.940019215112    -1.063596637671    -0.837533463026    12.000000000000
           O         -1.769247215112    -0.164571637671    -0.174606463026    15.994914619560
           H         -1.566930215112    -1.841411637671    -1.251210463026     1.007825032070
           H         -0.217972215112    -1.517361637671    -0.159910463026     1.007825032070
           C         -1.096355215112     0.899211362329     0.421070536974    12.000000000000
           C          0.343079784888     0.899203362329    -0.037440463026    12.000000000000
           H         -1.561678215112     1.845189362329     0.141256536974     1.007825032070
           H         -1.127168215112     0.818064362329     1.505722536974     1.007825032070
           O          1.015970784888    -0.164570637671     0.558256536974    15.994914619560
           H          0.373893784888     0.818027362329    -1.122091463026     1.007825032070
           H          0.808402784888     1.845186362329     0.242352536974     1.007825032070
           C          2.330324784888    -0.319043637671     0.129417536974    12.000000000000
           H          2.379918784888    -0.513951637671    -0.940051463026     1.007825032070
           H          2.929258784888     0.564283362329     0.347292536974     1.007825032070
           H          2.748907784888    -1.163738637671     0.658933536974     1.007825032070

  Charge       = 0
  Multiplicity = 1
  Basis Set: 6-31G*
  Basis Set:

    Orbital Energies (a.u.)
    -----------------------

    Doubly Occupied:

       1A    -20.567009     2A    -20.545726     3A    -11.275678
       4A    -11.274285     5A    -11.267995     6A    -11.244187
       7A     -1.403431     8A     -1.369233     9A     -1.028300
      10A     -0.953555    11A     -0.901046    12A     -0.812147
      13A     -0.712521    14A     -0.691168    15A     -0.657349
      16A     -0.633374    17A     -0.616836    18A     -0.592904
      19A     -0.556944    20A     -0.543052    21A     -0.521183
      22A     -0.498290    23A     -0.449486    24A     -0.425413
      25A     -0.393199

  @DF-RHF Final Energy:  -306.94614664293630

   => Energetics <=

    Nuclear Repulsion Energy =            273.5270205985432881
    One-Electron Energy =                -961.0776748212326765
    Two-Electron Energy =                 380.6045075797535446
    DFT Exchange-Correlation Energy =       0.0000000000000000
    Empirical Dispersion Energy =           0.0000000000000000
    PCM Polarization Energy =               0.0000000000000000
    EFP Energy =                            0.0000000000000000
    Total Energy =                       -306.9461466429359007

  Mulliken Charges: (a.u.)
   Center  Symbol    Alpha    Beta     Spin     Total
       1     H     0.43753  0.43753  0.00000  0.12494
       2     C     3.09297  3.09297  0.00000 -0.18594
       3     O     4.31101  4.31101  0.00000 -0.62202
       4     H     0.41490  0.41490  0.00000  0.17019
       5     H     0.39839  0.39839  0.00000  0.20322
       6     C     2.97331  2.97331  0.00000  0.05339
       7     C     3.04362  3.04362  0.00000 -0.08724
       8     H     0.42300  0.42300  0.00000  0.15401
       9     H     0.41846  0.41846  0.00000  0.16308
      10     O     4.30154  4.30154  0.00000 -0.60307
      11     H     0.41877  0.41877  0.00000  0.16246
      12     H     0.41993  0.41993  0.00000  0.16014
      13     C     3.08276  3.08276  0.00000 -0.16552
      14     H     0.42878  0.42878  0.00000  0.14244
      15     H     0.42581  0.42581  0.00000  0.14838
      16     H     0.40922  0.40922  0.00000  0.18155

   Total alpha = 25.00000, Total beta = 25.00000, Total charge = -0.00000
