  ==> Input File <==

--------------------------------------------------------------------------
set {
	reference rhf
	basis cc-pvtz
}

set_num_threads( 4 )
memory 2 gb

molecule MOL {
0 1

H	 -2.265000	 -1.312000	 -0.371000
C	 -1.257000	 -1.274000	 0.027000
C	 -0.581000	 0.000000	 -0.463000
H	 -0.725000	 -2.155000	 -0.315000
H	 -1.307000	 -1.293000	 1.107000
C	 -1.257000	 1.275000	 0.028000
N	 0.841000	 -0.000000	 0.014000
H	 -0.492000	 0.000000	 -1.538000
H	 -2.264000	 1.313000	 -0.370000
H	 -0.725000	 2.155000	 -0.314000
H	 -1.306000	 1.293000	 1.108000
O	 1.699000	 0.000000	 -0.813000
O	 1.022000	 -0.001000	 1.194000

	symmetry c1
}
ee = optimize('scf')
oeprop('DIPOLE', 'QUADRUPOLE', 'MULLIKEN_CHARGES')
f=open( 'psi4out.xyz', 'w' )
f.write( "13  " )
f.write( str(ee) + "\n" )
f.write( MOL.save_string_xyz() )
f.close()
--------------------------------------------------------------------------

    Molecular point group: c1
  Charge       = 0
  Multiplicity = 1
  Basis Set: CC-PVTZ
  Basis Set:
  @DF-RHF Final Energy:  -321.86439288800386
    Total Energy =                       -321.8643928880040335
    Molecular point group: c1
  Basis Set: CC-PVTZ
  Basis Set:
  Basis Set: CC-PVTZ
  Basis Set:
  @DF-RHF Final Energy:  -321.86454123298017
    Total Energy =                       -321.8645412329802866
  Basis Set: CC-PVTZ
  Basis Set:
  Basis Set: CC-PVTZ
  Basis Set:
  @DF-RHF Final Energy:  -321.85154480575159
    Total Energy =                       -321.8515448057513026
  Basis Set: CC-PVTZ
  Basis Set:
  Basis Set: CC-PVTZ
  Basis Set:
  @DF-RHF Final Energy:  -321.86424750371526
    Total Energy =                       -321.8642475037151485
  Basis Set: CC-PVTZ
  Basis Set:
  Basis Set: CC-PVTZ
  Basis Set:
  @DF-RHF Final Energy:  -321.86462699723450
    Total Energy =                       -321.8646269972343248
  Basis Set: CC-PVTZ
  Basis Set:
  Basis Set: CC-PVTZ
  Basis Set:
  @DF-RHF Final Energy:  -321.86462915798307
    Total Energy =                       -321.8646291579832450
  Basis Set: CC-PVTZ
  Basis Set:
  Charge       = 0
  Multiplicity = 1
  Basis Set: CC-PVTZ
  Basis Set:

    Orbital Energies (a.u.)
    -----------------------

    Doubly Occupied:

       1A    -20.590676     2A    -20.587580     3A    -15.832561
       4A    -11.304102     5A    -11.243230     6A    -11.243214
       7A     -1.633893     8A     -1.418187     9A     -1.142662
      10A     -0.974368    11A     -0.957248    12A     -0.816691
      13A     -0.751245    14A     -0.733135    15A     -0.726622
      16A     -0.650793    17A     -0.595283    18A     -0.588831
      19A     -0.570780    20A     -0.529760    21A     -0.522949
      22A     -0.485764    23A     -0.469562    24A     -0.452322

  @DF-RHF Final Energy:  -321.86463060742301

   => Energetics <=

    Nuclear Repulsion Energy =            257.3269592048150116
    One-Electron Energy =                -948.7402553470719795
    Two-Electron Energy =                 369.5486655348340719
    DFT Exchange-Correlation Energy =       0.0000000000000000
    Empirical Dispersion Energy =           0.0000000000000000
    PCM Polarization Energy =               0.0000000000000000
    EFP Energy =                            0.0000000000000000
    Total Energy =                       -321.8646306074228960
    Molecular point group: c1
  Basis Set: CC-PVTZ
  Basis Set:

  -Total Gradient:
     Atom            X                  Y                   Z
    ------   -----------------  -----------------  -----------------
       1        0.000002992288     0.000002989973    -0.000001581147
       2       -0.000007086410    -0.000006068152     0.000000538474
       3        0.000049994633     0.000007177094     0.000030654639
       4        0.000001728449    -0.000003369042    -0.000001410946
       5        0.000002505421     0.000002797506    -0.000002725482
       6       -0.000014728895     0.000005982380    -0.000001587747
       7        0.000008700744    -0.000031297399    -0.000043917951
       8       -0.000003226224     0.000000676855     0.000000728281
       9       -0.000002845857     0.000002577921    -0.000000765170
      10        0.000000930882     0.000003132165    -0.000000181344
      11        0.000003662939    -0.000003190606    -0.000006672697
      12       -0.000033625619     0.000009291522     0.000017647715
      13       -0.000009002352     0.000009299784     0.000009273374

  **** Optimization is complete! (in 7 steps) ****
    Final optimized geometry and variables:
    Molecular point group: c1

    Geometry (in Angstrom), charge = 0, multiplicity = 1:

    H           -2.362938360146    -1.308999696201    -0.383250080434
    C           -1.359344019291    -1.272456868275     0.020747936258
    C           -0.684081471329     0.000126611182    -0.464917518255
    H           -0.825834421263    -2.151141446003    -0.318536642329
    H           -1.416275833141    -1.292398761135     1.099455373530
    C           -1.359088460165     1.272668481937     0.021258582521
    N            0.742439182439    -0.000108562599     0.007332569696
    H           -0.596913630838     0.000345243158    -1.538145458423
    H           -2.362695743976     1.309620223787    -0.382685481267
    H           -0.825391987607     2.151373900450    -0.317673592169
    H           -1.415982300785     1.292180534055     1.099973085914
    O            1.589871377037     0.000420420764    -0.820617741583
    O            0.930711092293    -0.000640875499     1.178163479334

  Mulliken Charges: (a.u.)
   Center  Symbol    Alpha    Beta     Spin     Total
       1     H     0.44909  0.44909  0.00000  0.10181
       2     C     3.14435  3.14435  0.00000 -0.28871
       3     C     3.00760  3.00760  0.00000 -0.01520
       4     H     0.44078  0.44078  0.00000  0.11844
       5     H     0.43874  0.43874  0.00000  0.12253
       6     C     3.14435  3.14435  0.00000 -0.28870
       7     N     3.27555  3.27555  0.00000  0.44890
       8     H     0.42467  0.42467  0.00000  0.15067
       9     H     0.44909  0.44909  0.00000  0.10182
      10     H     0.44078  0.44078  0.00000  0.11844
      11     H     0.43874  0.43874  0.00000  0.12252
      12     O     4.16830  4.16830  0.00000 -0.33660
      13     O     4.17795  4.17795  0.00000 -0.35591

   Total alpha = 24.00000, Total beta = 24.00000, Total charge =  0.00000
