  ==> Input File <==

--------------------------------------------------------------------------
set {
	reference rhf
	basis 6-31G*
}

set_num_threads( 4 )
memory 2 gb

molecule MOL {
0 1

O	 -2.042549	 -1.228399	 -0.269030
C	 -1.653912	 -0.146171	 0.050137
C	 -0.332303	 0.024011	 0.778412
C	 -2.438579	 1.106236	 -0.272369
C	 0.640195	 0.885441	 -0.042599
H	 -0.490354	 0.473358	 1.754880
H	 0.092248	 -0.963064	 0.924568
C	 1.997004	 1.056785	 0.642047
H	 0.202436	 1.866052	 -0.221072
H	 0.775070	 0.423123	 -1.015847
C	 2.969124	 1.905556	 -0.176351
H	 1.853809	 1.511711	 1.619781
H	 2.433794	 0.077049	 0.820654
H	 2.574684	 2.903922	 -0.342889
H	 3.157250	 1.458229	 -1.147922
H	 3.922880	 2.007469	 0.331576
H	 -3.277823	 0.863061	 -0.908988
H	 -1.806773	 1.843019	 -0.759671
H	 -2.802853	 1.554979	 0.648059

	symmetry c1
}
set optking {
	frozen_dihedral = ("
		5 3 2 4
	")
}

ee = optimize('scf')
oeprop('DIPOLE', 'QUADRUPOLE', 'MULLIKEN_CHARGES')
f=open( 'psi4out.xyz', 'w' )
f.write( "19  " )
f.write( str(ee) + "\n" )
f.write( MOL.save_string_xyz() )
f.close()
--------------------------------------------------------------------------

    Molecular point group: c1
  Charge       = 0
  Multiplicity = 1
  Basis Set: 6-31G*
  Basis Set:
  @DF-RHF Final Energy:  -309.06302628192236
    Total Energy =                       -309.0630262819221343
    Molecular point group: c1
  Basis Set: 6-31G*
  Basis Set:
  Basis Set: 6-31G*
  Basis Set:
  @DF-RHF Final Energy:  -309.06396056095178
    Total Energy =                       -309.0639605609518412
  Basis Set: 6-31G*
  Basis Set:
  Basis Set: 6-31G*
  Basis Set:
  @DF-RHF Final Energy:  -309.06346421254068
    Total Energy =                       -309.0634642125409073
  Basis Set: 6-31G*
  Basis Set:
  Basis Set: 6-31G*
  Basis Set:
  @DF-RHF Final Energy:  -309.06443200847588
    Total Energy =                       -309.0644320084757624
  Basis Set: 6-31G*
  Basis Set:
  @DF-RHF Final Energy:  -309.06418602081061
    Total Energy =                       -309.0641860208106664
  @DF-RHF Final Energy:  -309.06450631273793
    Total Energy =                       -309.0645063127375920
  Basis Set: 6-31G*
  Basis Set:
  @DF-RHF Final Energy:  -309.06465024109815
    Total Energy =                       -309.0646502410984340
  Basis Set: 6-31G*
  Basis Set:
  Basis Set: 6-31G*
  Basis Set:
  @DF-RHF Final Energy:  -309.06467365230282
    Total Energy =                       -309.0646736523027585
  Basis Set: 6-31G*
  Basis Set:
  Basis Set: 6-31G*
  Basis Set:
  @DF-RHF Final Energy:  -309.06468427423164
    Total Energy =                       -309.0646842742315812
  Basis Set: 6-31G*
  Basis Set:
  Charge       = 0
  Multiplicity = 1
  Basis Set: 6-31G*
  Basis Set:

    Orbital Energies (a.u.)
    -----------------------

    Doubly Occupied:

       1A    -20.547968     2A    -11.324503     3A    -11.233358
       4A    -11.229906     5A    -11.227488     6A    -11.226881
       7A    -11.216957     8A     -1.393241     9A     -1.094265
      10A     -1.029192    11A     -0.982156    12A     -0.893844
      13A     -0.809704    14A     -0.733024    15A     -0.664263
      16A     -0.645596    17A     -0.625646    18A     -0.613448
      19A     -0.582305    20A     -0.575032    21A     -0.554725
      22A     -0.533965    23A     -0.509557    24A     -0.503231
      25A     -0.485378    26A     -0.477873    27A     -0.471258
      28A     -0.397109

  @DF-RHF Final Energy:  -309.06468503531562

   => Energetics <=

    Nuclear Repulsion Energy =            301.1337563211853876
    One-Electron Energy =               -1015.2331442840871887
    Two-Electron Energy =                 405.0347029275862951
    DFT Exchange-Correlation Energy =       0.0000000000000000
    Empirical Dispersion Energy =           0.0000000000000000
    PCM Polarization Energy =               0.0000000000000000
    EFP Energy =                            0.0000000000000000
    Total Energy =                       -309.0646850353155060
    Molecular point group: c1
  Basis Set: 6-31G*
  Basis Set:

  -Total Gradient:
     Atom            X                  Y                   Z
    ------   -----------------  -----------------  -----------------
       1        0.000014207281     0.000064886212     0.000015658568
       2       -0.000107553885    -0.000029036284     0.000072410301
       3        0.000083363268    -0.000046949559    -0.000064206993
       4        0.000009664467    -0.000018400788    -0.000043054518
       5       -0.000023788077     0.000030076839     0.000032040531
       6       -0.000001003739    -0.000000855145    -0.000000521258
       7        0.000017407684     0.000002745144    -0.000002547242
       8        0.000001535238     0.000004075988     0.000005830641
       9        0.000005115455    -0.000007696840     0.000003069755
      10       -0.000004462207    -0.000002071777    -0.000000849225
      11       -0.000000338085    -0.000000280508     0.000002353258
      12       -0.000000071860     0.000000213779     0.000001736273
      13        0.000000968324     0.000003193546    -0.000001096348
      14        0.000002445755     0.000006000043     0.000001589348
      15       -0.000004995066     0.000000466274     0.000001485652
      16        0.000001703704    -0.000002030509    -0.000001751366
      17       -0.000014409144     0.000017706492    -0.000012471513
      18        0.000005621322    -0.000006425040     0.000000567086
      19        0.000014589566    -0.000015617860    -0.000010242949

  **** Optimization is complete! (in 10 steps) ****
    Final optimized geometry and variables:
    Molecular point group: c1

    Geometry (in Angstrom), charge = 0, multiplicity = 1:

    O           -1.922295357024    -1.766987542162    -0.369909071429
    C           -1.543425207427    -0.678340044972    -0.061047668042
    C           -0.214131932212    -0.477605659261     0.643566367932
    C           -2.374306673338     0.551721168354    -0.367232505593
    C            0.771758538503     0.404723533459    -0.135624468833
    H           -0.406625971468    -0.028610694330     1.616588054143
    H            0.209067236026    -1.460670570610     0.810681648899
    C            2.130017260225     0.513219854310     0.559948484854
    H            0.358127735316     1.401700451966    -0.265030095684
    H            0.910897165597    -0.006259252927    -1.133344125353
    C            3.119670671560     1.390204445517    -0.205764095594
    H            1.989696605298     0.914491223996     1.561294889377
    H            2.549296735922    -0.482079591319     0.684738347473
    H            2.743600625129     2.403398503510    -0.315882803025
    H            3.304306080466     0.996024222026    -1.200870855179
    H            4.073050358383     1.445874876226     0.309837087149
    H           -3.385125873540     0.251308846815    -0.606276274013
    H           -1.955828161772     1.073490993728    -1.223128446319
    H           -2.381177228301     1.246382763914     0.466386609415

  Mulliken Charges: (a.u.)
   Center  Symbol    Alpha    Beta     Spin     Total
       1     O     4.26068  4.26068  0.00000 -0.52135
       2     C     2.73378  2.73378  0.00000  0.53245
       3     C     3.20486  3.20486  0.00000 -0.40972
       4     C     3.29020  3.29020  0.00000 -0.58039
       5     C     3.16388  3.16388  0.00000 -0.32775
       6     H     0.41276  0.41276  0.00000  0.17447
       7     H     0.39927  0.39927  0.00000  0.20145
       8     C     3.15168  3.15168  0.00000 -0.30335
       9     H     0.41910  0.41910  0.00000  0.16180
      10     H     0.41402  0.41402  0.00000  0.17197
      11     C     3.24035  3.24035  0.00000 -0.48069
      12     H     0.42136  0.42136  0.00000  0.15729
      13     H     0.41820  0.41820  0.00000  0.16360
      14     H     0.42120  0.42120  0.00000  0.15760
      15     H     0.41956  0.41956  0.00000  0.16087
      16     H     0.41672  0.41672  0.00000  0.16656
      17     H     0.39613  0.39613  0.00000  0.20774
      18     H     0.40411  0.40411  0.00000  0.19179
      19     H     0.41217  0.41217  0.00000  0.17566

   Total alpha = 28.00000, Total beta = 28.00000, Total charge =  0.00000
