                              Psi4 1.0.54 Driver

  ==> Input File <==

--------------------------------------------------------------------------
set {
	reference rhf
	basis cc-pvtz
}

set_num_threads( 4 )
memory 2 gb

molecule MOL {
0 1

H	 -0.606995	 4.063460	 -0.678793
O	 -0.783735	 3.209963	 -0.328992
C	 0.344014	 2.385645	 -0.472861
C	 0.027642	 1.012027	 0.090274
H	 1.189702	 2.804127	 0.067001
H	 0.630206	 2.313737	 -1.518512
C	 -1.138737	 0.285728	 -0.581921
H	 -0.190057	 1.125523	 1.147266
H	 0.927536	 0.406084	 0.017896
C	 -1.933983	 -0.631436	 0.343653
H	 -0.763151	 -0.285569	 -1.422081
H	 -1.808359	 1.035291	 -0.992333
H	 -2.789188	 -1.049673	 -0.174718
H	 -1.335629	 -1.461368	 0.700418
H	 -2.305435	 -0.092167	 1.209725

	symmetry c1
}
set optking {
	frozen_dihedral = ("
		8 4 7 11
	")
}

ee,wfn = optimize('scf', return_wfn=True)
oeprop( wfn, 'DIPOLE', 'QUADRUPOLE', 'MULLIKEN_CHARGES')
f=open( 'psi4out.xyz', 'w' )
f.write( "15  " )
f.write( str(ee) + "\n" )
f.write( MOL.save_string_xyz() )
f.close()
--------------------------------------------------------------------------

    Molecular point group: c1
  Charge       = 0
  Multiplicity = 1
  Basis Set: CC-PVTZ
  Basis Set:
  @DF-RHF Final Energy:  -232.23584365857380
    Total Energy =                       -232.2358436585737991
    Molecular point group: c1
  Basis Set: CC-PVTZ
  Basis Set:
  Basis Set: CC-PVTZ
  Basis Set:
  @DF-RHF Final Energy:  -232.23660015994759
    Total Energy =                       -232.2366001599474430
  Basis Set: CC-PVTZ
  Basis Set:
  Basis Set: CC-PVTZ
  Basis Set:
  @DF-RHF Final Energy:  -232.23676472381769
    Total Energy =                       -232.2367647238179416
  Basis Set: CC-PVTZ
  Basis Set:
  Basis Set: CC-PVTZ
  Basis Set:
  @DF-RHF Final Energy:  -232.23677300449327
    Total Energy =                       -232.2367730044932728
  Basis Set: CC-PVTZ
  Basis Set:
  Basis Set: CC-PVTZ
  Basis Set:
  @DF-RHF Final Energy:  -232.23677537855440
    Total Energy =                       -232.2367753785545119
  Basis Set: CC-PVTZ
  Basis Set:
  Charge       = 0
  Multiplicity = 1
  Basis Set: CC-PVTZ
  Basis Set:

    Orbital Energies (a.u.)
    -----------------------

    Doubly Occupied:

       1A    -20.546657     2A    -11.266455     3A    -11.210419
       4A    -11.207468     5A    -11.202081     6A     -1.364555
       7A     -1.064966     8A     -0.974956     9A     -0.856560
      10A     -0.787698    11A     -0.708911    12A     -0.636282
      13A     -0.613607    14A     -0.595751    15A     -0.547565
      16A     -0.525677    17A     -0.515808    18A     -0.476696
      19A     -0.463655    20A     -0.458450    21A     -0.432971

  @DF-RHF Final Energy:  -232.23677553556877

   => Energetics <=

    Nuclear Repulsion Energy =            189.1515151409338387
    One-Electron Energy =                -689.8622059633244135
    Two-Electron Energy =                 268.4739152868218071
    DFT Exchange-Correlation Energy =       0.0000000000000000
    Empirical Dispersion Energy =           0.0000000000000000
    PCM Polarization Energy =               0.0000000000000000
    EFP Energy =                            0.0000000000000000
    Total Energy =                       -232.2367755355687677
    Molecular point group: c1
  Basis Set: CC-PVTZ
  Basis Set:

  -Total Gradient:
     Atom            X                  Y                   Z
    ------   -----------------  -----------------  -----------------
       1       -0.000000083709    -0.000001771711     0.000010008322
       2       -0.000005732873     0.000011291543    -0.000004834111
       3       -0.000001532139    -0.000007673498    -0.000008288444
       4       -0.002044941132     0.003628785589    -0.000374348261
       5       -0.000000434535     0.000001950480    -0.000000493345
       6        0.000006639051    -0.000002014113    -0.000009245632
       7       -0.000229366807     0.002952687288    -0.002742637380
       8        0.001736683914    -0.003482523783     0.000763546618
       9       -0.000001816127    -0.000007517522    -0.000005753505
      10       -0.000010054204    -0.000008160523     0.000008270081
      11        0.000533263660    -0.003093299679     0.002359194007
      12        0.000010744464    -0.000001826008     0.000003407469
      13        0.000007381917     0.000008848599     0.000003848186
      14        0.000001311285     0.000001759346    -0.000003767637
      15       -0.000002062765    -0.000000536009     0.000001093633

  **** Optimization is complete! (in 6 steps) ****
    Final optimized geometry and variables:
    Molecular point group: c1

    Geometry (in Angstrom), charge = 0, multiplicity = 1:

    H            0.117969052771     2.766609171590    -0.508950023915
    O           -0.051340911197     1.938485285162    -0.099732245973
    C            1.027786251584     1.065041783867    -0.309991787155
    C            0.694895964996    -0.284173292170     0.293577875786
    H            1.928241278169     1.460272952238     0.153033204029
    H            1.225778143042     0.955112267224    -1.374661939114
    C           -0.462605411548    -1.013450775620    -0.398576545388
    H            0.481799144105    -0.161445918057     1.350597528382
    H            1.588652578264    -0.901018441792     0.246323820905
    C           -1.189552500986    -1.978722960258     0.534314648233
    H           -0.073427647204    -1.584831457618    -1.236221950138
    H           -1.168453603712    -0.292508909950    -0.790520887418
    H           -1.970740975862    -2.517463683227     0.010054407505
    H           -0.505964167231    -2.711949202798     0.951061723122
    H           -1.648757090771    -1.448312267428     1.361334528409

  Mulliken Charges: (a.u.)
   Center  Symbol    Alpha    Beta     Spin     Total
       1     H     0.39535  0.39535  0.00000  0.20929
       2     O     4.19881  4.19881  0.00000 -0.39762
       3     C     2.97334  2.97334  0.00000  0.05331
       4     C     3.08891  3.08891  0.00000 -0.17782
       5     H     0.46459  0.46459  0.00000  0.07082
       6     H     0.47321  0.47321  0.00000  0.05358
       7     C     3.08342  3.08342  0.00000 -0.16684
       8     H     0.45351  0.45351  0.00000  0.09297
       9     H     0.45393  0.45393  0.00000  0.09215
      10     C     3.14908  3.14908  0.00000 -0.29815
      11     H     0.45746  0.45746  0.00000  0.08508
      12     H     0.44796  0.44796  0.00000  0.10407
      13     H     0.45033  0.45033  0.00000  0.09935
      14     H     0.45701  0.45701  0.00000  0.08599
      15     H     0.45309  0.45309  0.00000  0.09382

   Total alpha = 21.00000, Total beta = 21.00000, Total charge =  0.00000

*** Psi4 exiting successfully. Buy a developer a beer!
