                              Psi4 1.0.54 Driver

  ==> Input File <==

--------------------------------------------------------------------------
set {
	reference rhf
	basis cc-pvtz
}

set_num_threads( 4 )
memory 2 gb

molecule MOL {
0 1

O	 1.847685	 1.294399	 -0.000190
C	 1.704209	 0.119472	 -0.000093
C	 0.380337	 -0.600947	 -0.000234
O	 2.715427	 -0.733672	 0.000025
C	 -0.824290	 0.329213	 -0.000115
H	 0.371455	 -1.255476	 -0.865660
H	 0.371410	 -1.255787	 0.864952
C	 -2.146151	 -0.432825	 -0.000068
H	 -0.773936	 0.979158	 -0.866319
H	 -0.773838	 0.979034	 0.866186
C	 -3.366283	 0.483552	 0.000557
H	 -2.189286	 -1.084450	 -0.869996
H	 -2.188867	 -1.085083	 0.869399
C	 -3.637393	 1.119174	 1.359930
H	 -4.238902	 -0.082195	 -0.313487
H	 -3.227573	 1.264667	 -0.741587
H	 -3.814576	 0.363019	 2.117604
H	 -4.509029	 1.762443	 1.325438
H	 -2.795414	 1.720854	 1.685945
C	 4.020999	 -0.192556	 0.000019
H	 4.182809	 0.412891	 -0.879449
H	 4.692590	 -1.035653	 0.000152
H	 4.182726	 0.413087	 0.879368

	symmetry c1
}
set optking {
	frozen_dihedral = ("
		15 11 8 12
	")
}

ee,wfn = optimize('scf', return_wfn=True)
oeprop( wfn, 'DIPOLE', 'QUADRUPOLE', 'MULLIKEN_CHARGES')
f=open( 'psi4out.xyz', 'w' )
f.write( "23  " )
f.write( str(ee) + "\n" )
f.write( MOL.save_string_xyz() )
f.close()
--------------------------------------------------------------------------

    Molecular point group: c1
  Charge       = 0
  Multiplicity = 1
  Basis Set: CC-PVTZ
  Basis Set:
  @DF-RHF Final Energy:  -423.12893270176556
    Total Energy =                       -423.1289327017659616
    Molecular point group: c1
  Basis Set: CC-PVTZ
  Basis Set:
  Basis Set: CC-PVTZ
  Basis Set:
  @DF-RHF Final Energy:  -423.12911581326392
    Total Energy =                       -423.1291158132637520
  Basis Set: CC-PVTZ
  Basis Set:
  Basis Set: CC-PVTZ
  Basis Set:
  @DF-RHF Final Energy:  -423.12914557086589
    Total Energy =                       -423.1291455708661715
  Basis Set: CC-PVTZ
  Basis Set:
  Basis Set: CC-PVTZ
  Basis Set:
  @DF-RHF Final Energy:  -423.12914047184165
    Total Energy =                       -423.1291404718425611
  Basis Set: CC-PVTZ
  Basis Set:
  Basis Set: CC-PVTZ
  Basis Set:
  @DF-RHF Final Energy:  -423.12914587443163
    Total Energy =                       -423.1291458744318561
  Basis Set: CC-PVTZ
  Basis Set:
  Charge       = 0
  Multiplicity = 1
  Basis Set: CC-PVTZ
  Basis Set:

    Orbital Energies (a.u.)
    -----------------------

    Doubly Occupied:

       1A    -20.596328     2A    -20.534155     3A    -11.364588
       4A    -11.278492     5A    -11.233742     6A    -11.216967
       7A    -11.215924     8A    -11.214702     9A    -11.206673
      10A     -1.472215    11A     -1.365784    12A     -1.094170
      13A     -1.043340    14A     -0.986570    15A     -0.932118
      16A     -0.854126    17A     -0.786838    18A     -0.769349
      19A     -0.698920    20A     -0.686539    21A     -0.676059
      22A     -0.643487    23A     -0.616751    24A     -0.598054
      25A     -0.588722    26A     -0.563209    27A     -0.534409
      28A     -0.530234    29A     -0.522956    30A     -0.511458
      31A     -0.492169    32A     -0.467561    33A     -0.463701
      34A     -0.461645    35A     -0.456859    36A     -0.438516

  @DF-RHF Final Energy:  -423.12914662159091

   => Energetics <=

    Nuclear Repulsion Energy =            457.1592680054654352
    One-Electron Energy =               -1482.3421640441847558
    Two-Electron Energy =                 602.0537494171283015
    DFT Exchange-Correlation Energy =       0.0000000000000000
    Empirical Dispersion Energy =           0.0000000000000000
    PCM Polarization Energy =               0.0000000000000000
    EFP Energy =                            0.0000000000000000
    Total Energy =                       -423.1291466215909622
    Molecular point group: c1
  Basis Set: CC-PVTZ
  Basis Set:

  -Total Gradient:
     Atom            X                  Y                   Z
    ------   -----------------  -----------------  -----------------
       1       -0.000000205400     0.000011686394    -0.000003597641
       2       -0.000000399732    -0.000005022441    -0.000015449510
       3        0.000006855236     0.000004702757     0.000036142323
       4        0.000017403952    -0.000010390253     0.000012744874
       5       -0.000021153376    -0.000021745068    -0.000027705055
       6       -0.000000479143     0.000007730338    -0.000011310718
       7       -0.000005188145    -0.000003923190    -0.000010076948
       8        0.001085035716     0.001513964398    -0.001443884637
       9        0.000003898156     0.000003209898     0.000001550971
      10       -0.000009857908     0.000000459044     0.000009712118
      11       -0.000547903525    -0.000777934242     0.002174786755
      12       -0.000813527067    -0.001144595628     0.000875010220
      13        0.000004012813    -0.000007710865     0.000008880924
      14       -0.000011070972     0.000005442325    -0.000013563386
      15        0.000291500415     0.000418046488    -0.001579618608
      16       -0.000001469150     0.000010902472    -0.000003238431
      17        0.000005473206     0.000001615986    -0.000004117084
      18       -0.000009478490     0.000003759279     0.000003984515
      19        0.000007301608    -0.000010058692    -0.000008047539
      20       -0.000002553541     0.000000087484    -0.000001608352
      21        0.000000209499     0.000001511146    -0.000002801439
      22        0.000001317665    -0.000003209611    -0.000000296540
      23        0.000000278183     0.000001471978     0.000002503188

  **** Optimization is complete! (in 6 steps) ****
    Final optimized geometry and variables:
    Molecular point group: c1

    Geometry (in Angstrom), charge = 0, multiplicity = 1:

    O            1.741658594526     1.130121199163    -0.132399357291
    C            1.592232057722    -0.044007859405    -0.149570836470
    C            0.264724883581    -0.757598116183    -0.157156672322
    O            2.599219090644    -0.902051061844    -0.163848949361
    C           -0.934873693803     0.179253001211    -0.150802609675
    H            0.253234204880    -1.405614133649    -1.027392425653
    H            0.251548069505    -1.418662434111     0.703257419852
    C           -2.258512884886    -0.581524623784    -0.161987106686
    H           -0.882174756738     0.832631490888    -1.014418859026
    H           -0.874569886507     0.822863533418     0.717830611689
    C           -3.498892279641     0.315669217200    -0.161432304564
    H           -2.293247631238    -1.229350495337    -1.033701388800
    H           -2.301700234469    -1.245693954435     0.698986497599
    C           -3.805949187064     0.965960013586     1.184543355373
    H           -4.355121125215    -0.271227899556    -0.478301541852
    H           -3.377518893574     1.089103817386    -0.915333328890
    H           -3.967442221274     0.214897534338     1.950937673804
    H           -4.701620859071     1.573505487040     1.124490032199
    H           -2.998642843143     1.608301208017     1.515766677032
    C            3.907425330194    -0.367560433772    -0.157647474643
    H            4.071089388980     0.250306435525    -1.028108465697
    H            4.574819059311    -1.213899012133    -0.171288218540
    H            4.073559412388     0.223903583204     0.730509858069

  Mulliken Charges: (a.u.)
   Center  Symbol    Alpha    Beta     Spin     Total
       1     O     4.19718  4.19718  0.00000 -0.39435
       2     C     2.80621  2.80621  0.00000  0.38757
       3     C     3.10140  3.10140  0.00000 -0.20280
       4     O     4.14643  4.14643  0.00000 -0.29286
       5     C     3.08513  3.08513  0.00000 -0.17026
       6     H     0.43948  0.43948  0.00000  0.12104
       7     H     0.43990  0.43990  0.00000  0.12021
       8     C     3.09756  3.09756  0.00000 -0.19512
       9     H     0.44631  0.44631  0.00000  0.10738
      10     H     0.44515  0.44515  0.00000  0.10970
      11     C     3.09028  3.09028  0.00000 -0.18055
      12     H     0.44930  0.44930  0.00000  0.10140
      13     H     0.45613  0.45613  0.00000  0.08773
      14     C     3.14993  3.14993  0.00000 -0.29986
      15     H     0.44792  0.44792  0.00000  0.10415
      16     H     0.45454  0.45454  0.00000  0.09091
      17     H     0.45579  0.45579  0.00000  0.08842
      18     H     0.44694  0.44694  0.00000  0.10612
      19     H     0.45262  0.45262  0.00000  0.09475
      20     C     3.03775  3.03775  0.00000 -0.07551
      21     H     0.45436  0.45436  0.00000  0.09127
      22     H     0.44533  0.44533  0.00000  0.10934
      23     H     0.45434  0.45434  0.00000  0.09132

   Total alpha = 36.00000, Total beta = 36.00000, Total charge = -0.00000

*** Psi4 exiting successfully. Buy a developer a beer!
