                              Psi4 1.0.54 Driver

  ==> Input File <==

--------------------------------------------------------------------------
set {
	reference rhf
	basis cc-pvtz
}

set_num_threads( 4 )
memory 2 gb

molecule MOL {
0 1

H	 -3.144994	 -1.202467	 -0.018751
O	 -2.321472	 -0.864941	 -0.318626
C	 -2.021813	 0.336996	 0.342658
C	 -0.669613	 0.837286	 -0.127252
H	 -2.780861	 1.084746	 0.127159
H	 -2.006390	 0.184138	 1.420053
C	 0.490865	 -0.082543	 0.241244
H	 -0.708709	 0.967192	 -1.204587
H	 -0.507562	 1.822272	 0.303070
C	 1.839800	 0.429565	 -0.255472
H	 0.305636	 -1.070211	 -0.165276
H	 0.527397	 -0.195943	 1.322876
C	 2.927027	 -0.639794	 -0.241600
H	 1.726706	 0.813709	 -1.265593
H	 2.155247	 1.271011	 0.356208
H	 2.656422	 -1.479618	 -0.872776
H	 3.870961	 -0.246137	 -0.601220
H	 3.088537	 -1.020881	 0.761462

	symmetry c1
}
set optking {
	frozen_dihedral = ("
		14 10 7 11
	")
}

ee,wfn = optimize('scf', return_wfn=True)
oeprop( wfn, 'DIPOLE', 'QUADRUPOLE', 'MULLIKEN_CHARGES')
f=open( 'psi4out.xyz', 'w' )
f.write( "18  " )
f.write( str(ee) + "\n" )
f.write( MOL.save_string_xyz() )
f.close()
--------------------------------------------------------------------------

    Molecular point group: c1
  Charge       = 0
  Multiplicity = 1
  Basis Set: CC-PVTZ
  Basis Set:
  @DF-RHF Final Energy:  -271.28593809006441
    Total Energy =                       -271.2859380900641781
    Molecular point group: c1
  Basis Set: CC-PVTZ
  Basis Set:
  Basis Set: CC-PVTZ
  Basis Set:
  @DF-RHF Final Energy:  -271.28604637838521
    Total Energy =                       -271.2860463783851515
  Basis Set: CC-PVTZ
  Basis Set:
  Basis Set: CC-PVTZ
  Basis Set:
  @DF-RHF Final Energy:  -271.28609406734279
    Total Energy =                       -271.2860940673429582
  Basis Set: CC-PVTZ
  Basis Set:
  Charge       = 0
  Multiplicity = 1
  Basis Set: CC-PVTZ
  Basis Set:

    Orbital Energies (a.u.)
    -----------------------

    Doubly Occupied:

       1A    -20.546216     2A    -11.266007     3A    -11.210773
       4A    -11.209089     5A    -11.204938     6A    -11.202858
       7A     -1.364123     8A     -1.076274     9A     -1.010333
      10A     -0.914547    11A     -0.818972    12A     -0.785170
      13A     -0.707968    14A     -0.643701    15A     -0.625560
      16A     -0.581290    17A     -0.572188    18A     -0.561866
      19A     -0.522751    20A     -0.502603    21A     -0.490340
      22A     -0.468852    23A     -0.456634    24A     -0.449674
      25A     -0.431827

  @DF-RHF Final Energy:  -271.28609447800306

   => Energetics <=

    Nuclear Repulsion Energy =            249.3045111739203605
    One-Electron Energy =                -861.9321015676005118
    Two-Electron Energy =                 341.3414959156773989
    DFT Exchange-Correlation Energy =       0.0000000000000000
    Empirical Dispersion Energy =           0.0000000000000000
    PCM Polarization Energy =               0.0000000000000000
    EFP Energy =                            0.0000000000000000
    Total Energy =                       -271.2860944780027808
    Molecular point group: c1
  Basis Set: CC-PVTZ
  Basis Set:

  -Total Gradient:
     Atom            X                  Y                   Z
    ------   -----------------  -----------------  -----------------
       1       -0.000000705678    -0.000007744636    -0.000005211747
       2       -0.000060918872     0.000014746590    -0.000016517533
       3        0.000046277386    -0.000011741260     0.000068521046
       4       -0.000014354947     0.000024538509    -0.000038812907
       5       -0.000020283670    -0.000032835517    -0.000011758007
       6       -0.000016959158     0.000008384024    -0.000001606731
       7       -0.001736043769     0.002159826436    -0.002615805577
       8        0.000016231076     0.000001997412     0.000000877087
       9        0.000018565837    -0.000022354658    -0.000007908856
      10        0.001083018028    -0.003542561787    -0.000818393213
      11        0.001285227167    -0.001214953580     0.002333223738
      12       -0.000001123459     0.000001488857    -0.000004247893
      13        0.000036988304    -0.000030137966    -0.000007748499
      14       -0.000615570724     0.002617725236     0.001132805210
      15        0.000006338348    -0.000007120468    -0.000005827952
      16        0.000000752799     0.000029151062     0.000020793274
      17       -0.000014372113    -0.000007361786     0.000003468211
      18       -0.000013066560     0.000018953530    -0.000025849653

  **** Optimization is complete! (in 4 steps) ****
    Final optimized geometry and variables:
    Molecular point group: c1

    Geometry (in Angstrom), charge = 0, multiplicity = 1:

    H           -3.153564180992    -1.150378526097     0.099466697614
    O           -2.333640692688    -0.823439057116    -0.221059076642
    C           -2.001752792232     0.374082357007     0.432661962456
    C           -0.656713157323     0.858221187600    -0.073055899983
    H           -2.757143730630     1.131184601965     0.237911993049
    H           -1.959313138707     0.220172563693     1.509098945174
    C            0.500584803645    -0.078764321726     0.255650864709
    H           -0.723954856132     0.996173376938    -1.147820390934
    H           -0.468030457910     1.837864859534     0.359043463120
    C            1.856064989378     0.445813517071    -0.216491779309
    H            0.316123937250    -1.058789064437    -0.169040867307
    H            0.540241187044    -0.230639479462     1.332760194788
    C            2.957392527538    -0.606759035335    -0.179770540767
    H            1.760116539188     0.850944881049    -1.220222981295
    H            2.145465268658     1.288510926328     0.406768898665
    H            2.726928940274    -1.435602669067    -0.840262324557
    H            3.910140528159    -0.191363354569    -0.487835376119
    H            3.080068332042    -1.008145917834     0.820968443267

  Mulliken Charges: (a.u.)
   Center  Symbol    Alpha    Beta     Spin     Total
       1     H     0.39576  0.39576  0.00000  0.20847
       2     O     4.19862  4.19862  0.00000 -0.39723
       3     C     2.97381  2.97381  0.00000  0.05237
       4     C     3.09137  3.09137  0.00000 -0.18274
       5     H     0.46551  0.46551  0.00000  0.06898
       6     H     0.47371  0.47371  0.00000  0.05258
       7     C     3.08656  3.08656  0.00000 -0.17311
       8     H     0.45182  0.45182  0.00000  0.09636
       9     H     0.45420  0.45420  0.00000  0.09160
      10     C     3.08374  3.08374  0.00000 -0.16749
      11     H     0.44532  0.44532  0.00000  0.10935
      12     H     0.45912  0.45912  0.00000  0.08177
      13     C     3.14908  3.14908  0.00000 -0.29815
      14     H     0.45578  0.45578  0.00000  0.08844
      15     H     0.45611  0.45611  0.00000  0.08777
      16     H     0.45419  0.45419  0.00000  0.09163
      17     H     0.44967  0.44967  0.00000  0.10067
      18     H     0.45564  0.45564  0.00000  0.08872

   Total alpha = 25.00000, Total beta = 25.00000, Total charge = -0.00000

*** Psi4 exiting successfully. Buy a developer a beer!
