  ==> Input File <==

--------------------------------------------------------------------------
set {
	reference rhf
	basis 6-31G*
}

set_num_threads( 4 )
memory 2 gb

molecule MOL {
0 1

H	 -2.273092	 1.173159	 0.000295
O	 -1.438904	 1.618192	 0.000114
C	 -0.409536	 0.736003	 0.000030
C	 0.856465	 1.257803	 0.214889
C	 -0.597734	 -0.629220	 -0.204152
H	 0.956878	 2.316326	 0.367983
C	 1.954539	 0.419020	 0.228544
C	 0.524137	 -1.448998	 -0.185215
C	 -1.979826	 -1.196568	 -0.438555
H	 2.934089	 0.830124	 0.395782
C	 1.793924	 -0.942587	 0.028034
H	 0.395555	 -2.506083	 -0.341365
H	 -2.445602	 -0.778390	 -1.328568
H	 -1.934550	 -2.269336	 -0.576740
H	 -2.644268	 -1.009706	 0.402633
H	 2.643488	 -1.600884	 0.037343

	symmetry c1
}
set optking {
	frozen_dihedral = ("
		4 3 2 1
	")
}

ee = optimize('scf')
oeprop('DIPOLE', 'QUADRUPOLE', 'MULLIKEN_CHARGES')
f=open( 'psi4out.xyz', 'w' )
f.write( "16  " )
f.write( str(ee) + "\n" )
f.write( MOL.save_string_xyz() )
f.close()
--------------------------------------------------------------------------

    Molecular point group: c1
  Charge       = 0
  Multiplicity = 1
  Basis Set: 6-31G*
  Basis Set:
  @DF-RHF Final Energy:  -344.59364543215111
    Total Energy =                       -344.5936454321508791
    Molecular point group: c1
  Basis Set: 6-31G*
  Basis Set:
  Basis Set: 6-31G*
  Basis Set:
  @DF-RHF Final Energy:  -344.59366015678523
    Total Energy =                       -344.5936601567851199
  Basis Set: 6-31G*
  Basis Set:
  Basis Set: 6-31G*
  Basis Set:
  @DF-RHF Final Energy:  -344.59366365759536
    Total Energy =                       -344.5936636575956982
  Basis Set: 6-31G*
  Basis Set:
  Charge       = 0
  Multiplicity = 1
  Basis Set: 6-31G*
  Basis Set:

    Orbital Energies (a.u.)
    -----------------------

    Doubly Occupied:

       1A    -20.587347     2A    -11.292257     3A    -11.235048
       4A    -11.233946     5A    -11.231106     6A    -11.229685
       7A    -11.219377     8A    -11.219244     9A     -1.405857
      10A     -1.148672    11A     -1.048592    12A     -1.004056
      13A     -0.941482    14A     -0.825083    15A     -0.819256
      16A     -0.729903    17A     -0.676043    18A     -0.643561
      19A     -0.607167    20A     -0.600859    21A     -0.574645
      22A     -0.566193    23A     -0.557781    24A     -0.551581
      25A     -0.502675    26A     -0.482743    27A     -0.472628
      28A     -0.329322    29A     -0.304455

  @DF-RHF Final Energy:  -344.59366389864590

   => Energetics <=

    Nuclear Repulsion Energy =            350.1503297332551483
    One-Electron Energy =               -1161.4068649501946311
    Two-Electron Energy =                 466.6628713182934689
    DFT Exchange-Correlation Energy =       0.0000000000000000
    Empirical Dispersion Energy =           0.0000000000000000
    PCM Polarization Energy =               0.0000000000000000
    EFP Energy =                            0.0000000000000000
    Total Energy =                       -344.5936638986460139
    Molecular point group: c1
  Basis Set: 6-31G*
  Basis Set:

  -Total Gradient:
     Atom            X                  Y                   Z
    ------   -----------------  -----------------  -----------------
       1        0.000005158132     0.000002316355     0.000528882927
       2       -0.000012648084    -0.000011158649    -0.000498671647
       3        0.000037483445     0.000038387886    -0.000373473828
       4       -0.000009313171    -0.000047638142     0.000342238335
       5       -0.000014532713     0.000027344040    -0.000002612083
       6       -0.000003120527     0.000003186767     0.000007262670
       7       -0.000017602014     0.000040034119     0.000004988447
       8        0.000050791156    -0.000007340836    -0.000028370224
       9        0.000014960938    -0.000001963799    -0.000047095694
      10       -0.000002022625    -0.000001650731    -0.000004232191
      11       -0.000037644096    -0.000039598888     0.000022829894
      12       -0.000002877824    -0.000000710298     0.000007600854
      13        0.000010460063     0.000006297758     0.000014652712
      14       -0.000004475301    -0.000000607857     0.000020580213
      15       -0.000017948633    -0.000009548558     0.000012749189
      16        0.000003331258     0.000002650826    -0.000007329573

  **** Optimization is complete! (in 4 steps) ****
    Final optimized geometry and variables:
    Molecular point group: c1

    Geometry (in Angstrom), charge = 0, multiplicity = 1:

    H           -2.276104401570     1.168573517131     0.042479634619
    O           -1.442311596455     1.614560062153     0.040128912265
    C           -0.412088471337     0.732621040906     0.050016478193
    C            0.853864014352     1.254837652014     0.262749325408
    C           -0.600582549158    -0.633194953476    -0.150811888276
    H            0.954500766253     2.313510353031     0.414724583550
    C            1.952517400716     0.416279568283     0.275303252150
    C            0.520748561235    -1.453269629671    -0.128530919289
    C           -1.982498118764    -1.198732343773    -0.388716731980
    H            2.932314882365     0.827880413331     0.439790869453
    C            1.791158987617    -0.945898544562     0.080920218436
    H            0.391801674179    -2.510764244187    -0.281495570097
    H           -2.455451531515    -0.755319670637    -1.261768587640
    H           -1.935267244136    -2.267387801360    -0.555605864781
    H           -2.641780222399    -1.038688844070     0.462742099711
    H            2.640893745113    -1.604014320280     0.091187685616

  Mulliken Charges: (a.u.)
   Center  Symbol    Alpha    Beta     Spin     Total
       1     H     0.26638  0.26638  0.00000  0.46724
       2     O     4.38236  4.38236  0.00000 -0.76472
       3     C     2.81798  2.81798  0.00000  0.36405
       4     C     3.11902  3.11902  0.00000 -0.23803
       5     C     3.00631  3.00631  0.00000 -0.01263
       6     H     0.39218  0.39218  0.00000  0.21564
       7     C     3.09549  3.09549  0.00000 -0.19098
       8     C     3.10674  3.10674  0.00000 -0.21348
       9     C     3.27490  3.27490  0.00000 -0.54980
      10     H     0.39897  0.39897  0.00000  0.20207
      11     C     3.10864  3.10864  0.00000 -0.21728
      12     H     0.40171  0.40171  0.00000  0.19659
      13     H     0.40973  0.40973  0.00000  0.18054
      14     H     0.40418  0.40418  0.00000  0.19165
      15     H     0.41431  0.41431  0.00000  0.17139
      16     H     0.40112  0.40112  0.00000  0.19776

   Total alpha = 29.00000, Total beta = 29.00000, Total charge = -0.00000
