  ==> Input File <==

--------------------------------------------------------------------------
set {
	reference rhf
	basis 6-31G*
}

set_num_threads( 4 )
memory 2 gb

molecule MOL {
0 1

H	 -2.758240	 1.908177	 -0.785579
C	 -2.016964	 1.300431	 -0.304106
C	 -2.076860	 -0.007332	 -0.404944
H	 -1.237977	 1.785857	 0.253077
O	 -1.180634	 -0.819263	 0.215062
H	 -2.844555	 -0.512538	 -0.964057
C	 0.051604	 -1.018856	 -0.387932
C	 1.043764	 0.054862	 -0.001873
H	 -0.017620	 -1.041351	 -1.469781
H	 0.437898	 -1.966374	 -0.042284
F	 2.212596	 -0.199467	 -0.571921
F	 0.652529	 1.252447	 -0.405055
F	 1.230877	 0.110694	 1.300533

	symmetry c1
}
set optking {
	frozen_dihedral = ("
		6 3 5 7
	")
}

ee = optimize('scf')
oeprop('DIPOLE', 'QUADRUPOLE', 'MULLIKEN_CHARGES')
f=open( 'psi4out.xyz', 'w' )
f.write( "13  " )
f.write( str(ee) + "\n" )
f.write( MOL.save_string_xyz() )
f.close()
--------------------------------------------------------------------------

    Molecular point group: c1
  Charge       = 0
  Multiplicity = 1
  Basis Set: 6-31G*
  Basis Set:
  @DF-RHF Final Energy:  -527.52452390249141
    Total Energy =                       -527.5245239024916373
    Molecular point group: c1
  Basis Set: 6-31G*
  Basis Set:
  Basis Set: 6-31G*
  Basis Set:
  @DF-RHF Final Energy:  -527.52815180577386
    Total Energy =                       -527.5281518057739731
  Basis Set: 6-31G*
  Basis Set:
  Basis Set: 6-31G*
  Basis Set:
  @DF-RHF Final Energy:  -527.52937491186321
    Total Energy =                       -527.5293749118629876
  Basis Set: 6-31G*
  Basis Set:
  Basis Set: 6-31G*
  Basis Set:
  @DF-RHF Final Energy:  -527.53018320845183
    Total Energy =                       -527.5301832084516036
  Basis Set: 6-31G*
  Basis Set:
  @DF-RHF Final Energy:  -527.53091356560958
    Total Energy =                       -527.5309135656091257
  @DF-RHF Final Energy:  -527.53128788251922
    Total Energy =                       -527.5312878825192229
  @DF-RHF Final Energy:  -527.53142422155759
    Total Energy =                       -527.5314242215573586
  Basis Set: 6-31G*
  Basis Set:
  @DF-RHF Final Energy:  -527.53146945166873
    Total Energy =                       -527.5314694516683858
  Basis Set: 6-31G*
  Basis Set:
  Basis Set: 6-31G*
  Basis Set:
  @DF-RHF Final Energy:  -527.53148312283531
    Total Energy =                       -527.5314831228354251
  Basis Set: 6-31G*
  Basis Set:
  Basis Set: 6-31G*
  Basis Set:
  @DF-RHF Final Energy:  -527.53148618270802
    Total Energy =                       -527.5314861827080222
  Basis Set: 6-31G*
  Basis Set:
  Charge       = 0
  Multiplicity = 1
  Basis Set: 6-31G*
  Basis Set:

    Orbital Energies (a.u.)
    -----------------------

    Doubly Occupied:

       1A    -26.340150     2A    -26.339157     3A    -26.336037
       4A    -20.596168     5A    -11.498972     6A    -11.313295
       7A    -11.297162     8A    -11.229124     9A     -1.737177
      10A     -1.635184    11A     -1.633606    12A     -1.424997
      13A     -1.079130    14A     -1.019559    15A     -0.923506
      16A     -0.833117    17A     -0.827180    18A     -0.807384
      19A     -0.785898    20A     -0.720959    21A     -0.707684
      22A     -0.694304    23A     -0.669843    24A     -0.658306
      25A     -0.652016    26A     -0.638667    27A     -0.635253
      28A     -0.598337    29A     -0.560824    30A     -0.527354
      31A     -0.462659    32A     -0.377560

  @DF-RHF Final Energy:  -527.53148682134542

   => Energetics <=

    Nuclear Repulsion Energy =            414.9643782075988270
    One-Electron Energy =               -1553.8705789219916369
    Two-Electron Energy =                 611.3747138930475558
    DFT Exchange-Correlation Energy =       0.0000000000000000
    Empirical Dispersion Energy =           0.0000000000000000
    PCM Polarization Energy =               0.0000000000000000
    EFP Energy =                            0.0000000000000000
    Total Energy =                       -527.5314868213451973
    Molecular point group: c1
  Basis Set: 6-31G*
  Basis Set:

  -Total Gradient:
     Atom            X                  Y                   Z
    ------   -----------------  -----------------  -----------------
       1       -0.000006495980    -0.000003678140     0.000000461650
       2        0.000043146838     0.000013180702    -0.000002814368
       3       -0.000116199983    -0.000123968847     0.000409882679
       4       -0.000007040374     0.000001362026    -0.000016132696
       5        0.000122978716     0.000351984709    -0.000058601945
       6        0.000109930470    -0.000024268317    -0.000279382751
       7       -0.000094095407    -0.000218454402    -0.000099588680
       8       -0.000045943761     0.000093772782    -0.000026382601
       9        0.000003355098    -0.000000809957     0.000014467362
      10        0.000004999091     0.000002325543     0.000018833347
      11       -0.000004647179    -0.000003038592    -0.000007161009
      12       -0.000017863528    -0.000065614247     0.000007612224
      13        0.000007875997    -0.000022793258     0.000038806788

  **** Optimization is complete! (in 11 steps) ****
    Final optimized geometry and variables:
    Molecular point group: c1

    Geometry (in Angstrom), charge = 0, multiplicity = 1:

    H           -3.379011918552     1.641613805560    -1.032219813021
    C           -2.494877467349     1.255347998376    -0.561222829353
    C           -2.393246374237    -0.029710848539    -0.310034168813
    H           -1.715128582302     1.945988712161    -0.301011631705
    O           -1.317485171392    -0.599812460760     0.312800839176
    H           -3.171684461833    -0.732874832603    -0.549369516905
    C           -0.188499363718    -0.888264478781    -0.451575739958
    C            0.996168632868    -0.120139498814     0.083481642051
    H           -0.320103804251    -0.619495797665    -1.490925626784
    H            0.042206177891    -1.943367236304    -0.379684003396
    F            2.074394880059    -0.422631195403    -0.626412355998
    F            0.817591266858     1.187212297035     0.001439529488
    F            1.247787825831    -0.412288203624     1.343536900630

  Mulliken Charges: (a.u.)
   Center  Symbol    Alpha    Beta     Spin     Total
       1     H     0.40552  0.40552  0.00000  0.18895
       2     C     3.21619  3.21619  0.00000 -0.43238
       3     C     2.91656  2.91656  0.00000  0.16689
       4     H     0.39594  0.39594  0.00000  0.20812
       5     O     4.31187  4.31187  0.00000 -0.62374
       6     H     0.40648  0.40648  0.00000  0.18703
       7     C     3.04956  3.04956  0.00000 -0.09912
       8     C     2.45415  2.45415  0.00000  1.09170
       9     H     0.40351  0.40351  0.00000  0.19298
      10     H     0.40027  0.40027  0.00000  0.19946
      11     F     4.68403  4.68403  0.00000 -0.36805
      12     F     4.67974  4.67974  0.00000 -0.35948
      13     F     4.67618  4.67618  0.00000 -0.35236

   Total alpha = 32.00000, Total beta = 32.00000, Total charge =  0.00000
