  ==> Input File <==

--------------------------------------------------------------------------
set {
	reference rhf
	basis 6-31G*
}

set_num_threads( 4 )
memory 2 gb

molecule MOL {
0 1

O	 1.846825	 1.296220	 0.000415
C	 1.705091	 0.115954	 0.001797
C	 0.381791	 -0.609817	 0.001258
O	 2.721346	 -0.737485	 -0.000216
C	 -0.823008	 0.326187	 0.001381
H	 0.371250	 -1.265087	 -0.865474
H	 0.370908	 -1.265746	 0.867490
C	 -0.436584	 1.769669	 -0.324345
H	 -1.308425	 0.284068	 0.971322
H	 -1.553745	 -0.031381	 -0.717283
C	 -1.633171	 2.722574	 -0.327659
H	 0.299020	 2.121205	 0.397669
H	 0.051810	 1.804915	 -1.297028
C	 -1.246620	 4.164478	 -0.654375
H	 -2.120647	 2.690462	 0.644183
H	 -2.368492	 2.373235	 -1.049049
H	 -0.537481	 4.554444	 0.070375
H	 -2.115630	 4.815052	 -0.649289
H	 -0.786841	 4.234614	 -1.636208
C	 4.024888	 -0.184556	 -0.001949
H	 4.179030	 0.422472	 -0.882452
H	 4.701782	 -1.024608	 -0.003642
H	 4.181981	 0.421185	 0.878906

	symmetry c1
}
set optking {
	frozen_dihedral = ("
		9 5 3 6
	")
}

ee = optimize('scf')
oeprop('DIPOLE', 'QUADRUPOLE', 'MULLIKEN_CHARGES')
f=open( 'psi4out.xyz', 'w' )
f.write( "23  " )
f.write( str(ee) + "\n" )
f.write( MOL.save_string_xyz() )
f.close()
--------------------------------------------------------------------------

    Molecular point group: c1
  Charge       = 0
  Multiplicity = 1
  Basis Set: 6-31G*
  Basis Set:
  @DF-RHF Final Energy:  -422.93803974848026
    Total Energy =                       -422.9380397484806053
    Molecular point group: c1
  Basis Set: 6-31G*
  Basis Set:
  Basis Set: 6-31G*
  Basis Set:
  @DF-RHF Final Energy:  -422.95847936571550
    Total Energy =                       -422.9584793657162436
  Basis Set: 6-31G*
  Basis Set:
  Basis Set: 6-31G*
  Basis Set:
  @DF-RHF Final Energy:  -422.96287006309535
    Total Energy =                       -422.9628700630956928
  Basis Set: 6-31G*
  Basis Set:
  Basis Set: 6-31G*
  Basis Set:
  @DF-RHF Final Energy:  -422.96206098541575
    Total Energy =                       -422.9620609854157465
  Basis Set: 6-31G*
  Basis Set:
  @DF-RHF Final Energy:  -422.96519536629086
    Total Energy =                       -422.9651953662909136
  @DF-RHF Final Energy:  -422.96563088277065
    Total Energy =                       -422.9656308827700286
  @DF-RHF Final Energy:  -422.96592530410936
    Total Energy =                       -422.9659253041089642
  @DF-RHF Final Energy:  -422.96655874154737
    Total Energy =                       -422.9665587415470327
  @DF-RHF Final Energy:  -422.96689346349558
    Total Energy =                       -422.9668934634950119
  @DF-RHF Final Energy:  -422.96708573822707
    Total Energy =                       -422.9670857382265012
  @DF-RHF Final Energy:  -422.96721526343811
    Total Energy =                       -422.9672152634377653
  @DF-RHF Final Energy:  -422.96727976557077
    Total Energy =                       -422.9672797655711065
  @DF-RHF Final Energy:  -422.96743162847491
    Total Energy =                       -422.9674316284747420
  @DF-RHF Final Energy:  -422.96752472860686
    Total Energy =                       -422.9675247286064632
  @DF-RHF Final Energy:  -422.96755144823686
    Total Energy =                       -422.9675514482366907
  @DF-RHF Final Energy:  -422.96768471385008
    Total Energy =                       -422.9676847138501898
  Basis Set: 6-31G*
  Basis Set:
  @DF-RHF Final Energy:  -422.96774273647236
    Total Energy =                       -422.9677427364721325
  Basis Set: 6-31G*
  Basis Set:
  Basis Set: 6-31G*
  Basis Set:
  @DF-RHF Final Energy:  -422.96775141406698
    Total Energy =                       -422.9677514140668109
  Basis Set: 6-31G*
  Basis Set:
  Basis Set: 6-31G*
  Basis Set:
  @DF-RHF Final Energy:  -422.96775255634498
    Total Energy =                       -422.9677525563444078
  Basis Set: 6-31G*
  Basis Set:
  Charge       = 0
  Multiplicity = 1
  Basis Set: 6-31G*
  Basis Set:

    Orbital Energies (a.u.)
    -----------------------

    Doubly Occupied:

       1A    -20.605115     2A    -20.542197     3A    -11.371218
       4A    -11.280491     5A    -11.233515     6A    -11.230073
       7A    -11.218597     8A    -11.217802     9A    -11.210308
      10A     -1.468936    11A     -1.360884    12A     -1.092844
      13A     -1.041865    14A     -0.983705    15A     -0.935827
      16A     -0.848003    17A     -0.801973    18A     -0.767944
      19A     -0.689885    20A     -0.677414    21A     -0.672947
      22A     -0.649958    23A     -0.605033    24A     -0.600199
      25A     -0.576769    26A     -0.568698    27A     -0.546167
      28A     -0.531536    29A     -0.524873    30A     -0.508437
      31A     -0.487584    32A     -0.473624    33A     -0.466899
      34A     -0.457638    35A     -0.450593    36A     -0.431740

  @DF-RHF Final Energy:  -422.96775345897902

   => Energetics <=

    Nuclear Repulsion Energy =            470.7989625298853298
    One-Electron Energy =               -1509.2708584152085223
    Two-Electron Energy =                 615.5041424263441741
    DFT Exchange-Correlation Energy =       0.0000000000000000
    Empirical Dispersion Energy =           0.0000000000000000
    PCM Polarization Energy =               0.0000000000000000
    EFP Energy =                            0.0000000000000000
    Total Energy =                       -422.9677534589790184
    Molecular point group: c1
  Basis Set: 6-31G*
  Basis Set:

  -Total Gradient:
     Atom            X                  Y                   Z
    ------   -----------------  -----------------  -----------------
       1       -0.000003930115     0.000002902788    -0.000013064835
       2       -0.000012331349    -0.000004898505     0.000071572812
       3        0.002711207979     0.002157273246    -0.002729681848
       4        0.000036384122     0.000010920652    -0.000033734703
       5        0.002356099457     0.002815452690     0.002097108705
       6       -0.002625266306    -0.002237138877     0.001937805661
       7        0.000003543202     0.000006961403     0.000008203918
       8        0.000001247212     0.000000108885    -0.000000510617
       9       -0.002437793949    -0.002741979824    -0.001334403880
      10       -0.000001903552     0.000001780920    -0.000004080553
      11       -0.000004722082     0.000010628567    -0.000004403991
      12        0.000005453929    -0.000000104377     0.000005671154
      13       -0.000008914590    -0.000001445329     0.000001621149
      14       -0.000000227796    -0.000005972327     0.000003517494
      15        0.000001343306    -0.000000515593    -0.000000093590
      16        0.000000975388    -0.000001028156    -0.000000980691
      17        0.000000834151     0.000000543651     0.000001131469
      18       -0.000000060931    -0.000001692538     0.000001196905
      19       -0.000000379994    -0.000000024342    -0.000001525644
      20       -0.000023572296    -0.000017764448    -0.000004027299
      21       -0.000001955655     0.000002447356     0.000000820542
      22        0.000001862572     0.000001925623    -0.000002472424
      23        0.000002107296     0.000001618540     0.000000330265

  **** Optimization is complete! (in 20 steps) ****
    Final optimized geometry and variables:
    Molecular point group: c1

    Geometry (in Angstrom), charge = 0, multiplicity = 1:

    O            1.333393372171    -0.711859556554     1.625412393579
    C            0.907743460165    -1.116992246206     0.590850135916
    C           -0.482817971482    -1.669359967676     0.396385502863
    O            1.614482213645    -1.119181175624    -0.531373685259
    C           -1.575441467261    -0.585658028506     0.168834524669
    H           -0.481325553898    -2.379867120031    -0.419431646452
    H           -0.715319931375    -2.221160812547     1.298588380988
    C           -1.085051465561     0.795309873732    -0.273287349260
    H           -2.171591556590    -0.494666837938     1.070656904553
    H           -2.256985074002    -0.966670711005    -0.586156134340
    C           -2.238064191816     1.769986773753    -0.520257763405
    H           -0.425362543679     1.209325330455     0.484768815838
    H           -0.495508759103     0.698434416163    -1.182091307868
    C           -1.760827231553     3.155195778317    -0.954835675538
    H           -2.832342608637     1.861279497509     0.386246446747
    H           -2.900297061100     1.361472333874    -1.280611645711
    H           -1.123505790661     3.604864677498    -0.198924056595
    H           -2.598887808919     3.824624869440    -1.121901569245
    H           -1.190971959660     3.101742350145    -1.878190512122
    C            2.928621571577    -0.595954678481    -0.462467768873
    H            2.908923557727     0.440765614051    -0.158576786810
    H            3.334972493934    -0.686708891067    -1.457747488809
    H            3.525316167283    -1.160534308087     0.239248006644

  Mulliken Charges: (a.u.)
   Center  Symbol    Alpha    Beta     Spin     Total
       1     O     4.28572  4.28572  0.00000 -0.57143
       2     C     2.61719  2.61719  0.00000  0.76561
       3     C     3.19911  3.19911  0.00000 -0.39821
       4     O     4.30208  4.30208  0.00000 -0.60415
       5     C     3.15501  3.15501  0.00000 -0.31002
       6     H     0.40191  0.40191  0.00000  0.19618
       7     H     0.39871  0.39871  0.00000  0.20259
       8     C     3.16873  3.16873  0.00000 -0.33746
       9     H     0.41241  0.41241  0.00000  0.17519
      10     H     0.41614  0.41614  0.00000  0.16773
      11     C     3.15184  3.15184  0.00000 -0.30368
      12     H     0.41168  0.41168  0.00000  0.17663
      13     H     0.41606  0.41606  0.00000  0.16787
      14     C     3.23980  3.23980  0.00000 -0.47961
      15     H     0.42126  0.42126  0.00000  0.15748
      16     H     0.42280  0.42280  0.00000  0.15440
      17     H     0.41995  0.41995  0.00000  0.16010
      18     H     0.41864  0.41864  0.00000  0.16271
      19     H     0.42169  0.42169  0.00000  0.15662
      20     C     3.09308  3.09308  0.00000 -0.18616
      21     H     0.40915  0.40915  0.00000  0.18170
      22     H     0.40877  0.40877  0.00000  0.18246
      23     H     0.40828  0.40828  0.00000  0.18345

   Total alpha = 36.00000, Total beta = 36.00000, Total charge =  0.00000
