  ==> Input File <==

--------------------------------------------------------------------------
set {
	reference rhf
	basis 6-31G*
}

set_num_threads( 1 )
memory 2 gb

molecule MOL {
0 1

O	 3.151248	 0.882949	 -0.901404
C	 2.843464	 0.164689	 -0.000222
C	 1.546494	 -0.624492	 -0.000609
C	 3.735506	 -0.006601	 1.212245
C	 0.291004	 0.242674	 0.000989
H	 1.557904	 -1.283758	 -0.867573
H	 1.558622	 -1.285963	 0.864672
C	 -0.994322	 -0.586602	 0.000262
H	 0.309117	 0.896430	 -0.865270
H	 0.309661	 0.894078	 0.869017
C	 -2.259874	 0.272531	 0.000494
H	 -1.004862	 -1.240012	 -0.870939
H	 -1.005220	 -1.241071	 0.870675
C	 -3.549786	 -0.549746	 -0.000374
H	 -2.250389	 0.926680	 -0.869574
H	 -2.250838	 0.925513	 0.871430
C	 -4.809590	 0.315458	 -0.000369
H	 -3.560515	 -1.202009	 -0.871156
H	 -3.561123	 -1.202955	 0.869711
H	 -4.844746	 0.956611	 -0.876632
H	 -5.706986	 -0.295590	 -0.001609
H	 -4.845960	 0.954827	 0.877144
H	 4.018597	 -1.048489	 1.330341
H	 4.624375	 0.598424	 1.099592
H	 3.208340	 0.288294	 2.114890

	symmetry c1
}
set optking {
	frozen_dihedral = ("
		9 5 8 12,
		15 11 8 12,
		15 11 14 18,
		9 5 3 6
	")
}

ee = energy('scf')
oeprop('DIPOLE', 'QUADRUPOLE', 'MULLIKEN_CHARGES')
f=open( 'psi4out.xyz', 'w' )
f.write( "25  " )
f.write( str(ee) + "\n" )
f.write( MOL.save_string_xyz() )
f.close()
--------------------------------------------------------------------------

    Molecular point group: c1

    Geometry (in Angstrom), charge = 0, multiplicity = 1:

       Center              X                  Y                   Z               Mass
    ------------   -----------------  -----------------  -----------------  -----------------
           O          3.163037937938     0.863590785301    -0.938177254140    15.994914619560
           C          2.855253937938     0.145330785301    -0.036995254140    12.000000000000
           C          1.558283937938    -0.643850214699    -0.037382254140    12.000000000000
           C          3.747295937938    -0.025959214699     1.175471745860    12.000000000000
           C          0.302793937938     0.223315785301    -0.035784254140    12.000000000000
           H          1.569693937938    -1.303116214699    -0.904346254140     1.007825032070
           H          1.570411937938    -1.305321214699     0.827898745860     1.007825032070
           C         -0.982532062062    -0.605960214699    -0.036511254140    12.000000000000
           H          0.320906937938     0.877071785301    -0.902043254140     1.007825032070
           H          0.321450937938     0.874719785301     0.832243745860     1.007825032070
           C         -2.248084062062     0.253172785301    -0.036279254140    12.000000000000
           H         -0.993072062062    -1.259370214699    -0.907712254140     1.007825032070
           H         -0.993430062062    -1.260429214699     0.833901745860     1.007825032070
           C         -3.537996062062    -0.569104214699    -0.037147254140    12.000000000000
           H         -2.238599062062     0.907321785301    -0.906347254140     1.007825032070
           H         -2.239048062062     0.906154785301     0.834656745860     1.007825032070
           C         -4.797800062062     0.296099785301    -0.037142254140    12.000000000000
           H         -3.548725062062    -1.221367214699    -0.907929254140     1.007825032070
           H         -3.549333062062    -1.222313214699     0.832937745860     1.007825032070
           H         -4.832956062062     0.937252785301    -0.913405254140     1.007825032070
           H         -5.695196062062    -0.314948214699    -0.038382254140     1.007825032070
           H         -4.834170062062     0.935468785301     0.840370745860     1.007825032070
           H          4.030386937938    -1.067847214699     1.293567745860     1.007825032070
           H          4.636164937938     0.579065785301     1.062818745860     1.007825032070
           H          3.220129937938     0.268935785301     2.078116745860     1.007825032070

  Charge       = 0
  Multiplicity = 1
  Basis Set: 6-31G*
  Basis Set:

    Orbital Energies (a.u.)
    -----------------------

    Doubly Occupied:

       1A    -20.548273     2A    -11.325091     3A    -11.229985
       4A    -11.227517     5A    -11.226890     6A    -11.221374
       7A    -11.218032     8A    -11.217109     9A    -11.210448
      10A     -1.393746    11A     -1.098181    12A     -1.058973
      13A     -1.013852    14A     -0.970262    15A     -0.893504
      16A     -0.818335    17A     -0.794679    18A     -0.731641
      19A     -0.665328    20A     -0.647709    21A     -0.636814
      22A     -0.612853    23A     -0.601685    24A     -0.586362
      25A     -0.569086    26A     -0.558623    27A     -0.542071
      28A     -0.537704    29A     -0.509179    30A     -0.497149
      31A     -0.488898    32A     -0.474220    33A     -0.467544
      34A     -0.465883    35A     -0.453549    36A     -0.395865

  @DF-RHF Final Energy:  -387.13379277106094

   => Energetics <=

    Nuclear Repulsion Energy =            438.1082354277193645
    One-Electron Energy =               -1392.6671377626385038
    Two-Electron Energy =                 567.4251095638572906
    DFT Exchange-Correlation Energy =       0.0000000000000000
    Empirical Dispersion Energy =           0.0000000000000000
    PCM Polarization Energy =               0.0000000000000000
    EFP Energy =                            0.0000000000000000
    Total Energy =                       -387.1337927710618487

  Mulliken Charges: (a.u.)
   Center  Symbol    Alpha    Beta     Spin     Total
       1     O     4.26182  4.26182  0.00000 -0.52363
       2     C     2.73500  2.73500  0.00000  0.53000
       3     C     3.20365  3.20365  0.00000 -0.40731
       4     C     3.29072  3.29072  0.00000 -0.58144
       5     C     3.15652  3.15652  0.00000 -0.31304
       6     H     0.40243  0.40243  0.00000  0.19513
       7     H     0.41759  0.41759  0.00000  0.16483
       8     C     3.15328  3.15328  0.00000 -0.30656
       9     H     0.40506  0.40506  0.00000  0.18987
      10     H     0.41995  0.41995  0.00000  0.16009
      11     C     3.15153  3.15153  0.00000 -0.30306
      12     H     0.42097  0.42097  0.00000  0.15806
      13     H     0.42347  0.42347  0.00000  0.15307
      14     C     3.15185  3.15185  0.00000 -0.30369
      15     H     0.42142  0.42142  0.00000  0.15716
      16     H     0.42347  0.42347  0.00000  0.15305
      17     C     3.23948  3.23948  0.00000 -0.47896
      18     H     0.42248  0.42248  0.00000  0.15505
      19     H     0.42330  0.42330  0.00000  0.15340
      20     H     0.42093  0.42093  0.00000  0.15814
      21     H     0.41892  0.41892  0.00000  0.16215
      22     H     0.42162  0.42162  0.00000  0.15676
      23     H     0.40824  0.40824  0.00000  0.18353
      24     H     0.39768  0.39768  0.00000  0.20463
      25     H     0.40861  0.40861  0.00000  0.18279

   Total alpha = 36.00000, Total beta = 36.00000, Total charge =  0.00000
