  ==> Input File <==

--------------------------------------------------------------------------
set {
	reference rhf
	basis cc-pvtz
}

set_num_threads( 4 )
memory 2 gb

molecule MOL {
0 1

H	 2.623256	 -0.558680	 1.025102
N	 1.646984	 -0.359854	 1.041542
C	 0.873902	 -1.581147	 0.938440
C	 1.298394	 0.581105	 -0.003888
H	 1.145923	 -2.242290	 1.752226
H	 1.057256	 -2.109589	 0.001024
C	 -0.604844	 -1.250300	 1.027473
H	 1.878011	 1.486779	 0.127065
H	 1.508567	 0.189275	 -1.000841
C	 -0.180908	 0.909119	 0.086380
H	 -0.822951	 -0.863225	 2.027069
H	 -1.186404	 -2.154421	 0.891567
N	 -0.976577	 -0.298712	 -0.000000
H	 -0.455937	 1.566393	 -0.729996
H	 -0.369810	 1.444959	 1.021143
C	 -2.391156	 -0.021003	 -0.000000
H	 -2.853954	 -0.458728	 -0.875714
H	 -2.853954	 -0.458728	 0.875714
H	 -2.614037	 1.049773	 -0.000000

	symmetry c1
}
set optking {
	frozen_dihedral = ("
		7 13 16 19
	")
}

ee = optimize('scf')
oeprop('DIPOLE', 'QUADRUPOLE', 'MULLIKEN_CHARGES')
f=open( 'psi4out.xyz', 'w' )
f.write( "19  " )
f.write( str(ee) + "\n" )
f.write( MOL.save_string_xyz() )
f.close()
--------------------------------------------------------------------------

    Molecular point group: c1
  Charge       = 0
  Multiplicity = 1
  Basis Set: CC-PVTZ
  Basis Set:
  @DF-RHF Final Energy:  -305.30238135794468
    Total Energy =                       -305.3023813579442844
    Molecular point group: c1
  Basis Set: CC-PVTZ
  Basis Set:
  Basis Set: CC-PVTZ
  Basis Set:
  @DF-RHF Final Energy:  -305.30298455971973
    Total Energy =                       -305.3029845597196754
  Basis Set: CC-PVTZ
  Basis Set:
  Basis Set: CC-PVTZ
  Basis Set:
  @DF-RHF Final Energy:  -305.30309363518722
    Total Energy =                       -305.3030936351872242
  Basis Set: CC-PVTZ
  Basis Set:
  Charge       = 0
  Multiplicity = 1
  Basis Set: CC-PVTZ
  Basis Set:

    Orbital Energies (a.u.)
    -----------------------

    Doubly Occupied:

       1A    -15.533510     2A    -15.530600     3A    -11.236481
       4A    -11.236461     5A    -11.235629     6A    -11.235575
       7A    -11.232894     8A     -1.246166     9A     -1.185156
      10A     -1.023382    11A     -0.964843    12A     -0.860982
      13A     -0.859154    14A     -0.757032    15A     -0.691886
      16A     -0.631857    17A     -0.623970    18A     -0.606534
      19A     -0.605399    20A     -0.581690    21A     -0.543858
      22A     -0.535859    23A     -0.512154    24A     -0.488268
      25A     -0.466706    26A     -0.457188    27A     -0.365383
      28A     -0.342502

  @DF-RHF Final Energy:  -305.30309539382205

   => Energetics <=

    Nuclear Repulsion Energy =            339.7531329885059108
    One-Electron Energy =               -1086.9302261131426803
    Two-Electron Energy =                 441.8739977308149491
    DFT Exchange-Correlation Energy =       0.0000000000000000
    Empirical Dispersion Energy =           0.0000000000000000
    PCM Polarization Energy =               0.0000000000000000
    EFP Energy =                            0.0000000000000000
    Total Energy =                       -305.3030953938217635
    Molecular point group: c1
  Basis Set: CC-PVTZ
  Basis Set:

  -Total Gradient:
     Atom            X                  Y                   Z
    ------   -----------------  -----------------  -----------------
       1       -0.000027628063     0.000001951885    -0.000017877959
       2       -0.000037484911     0.000007795538     0.000004315840
       3        0.000010215727    -0.000005211636    -0.000056661909
       4        0.000029840120     0.000064875155     0.000025459847
       5        0.000016854348    -0.000003779968     0.000008280055
       6        0.000007770055    -0.000004449821     0.000003678422
       7        0.000198179069     0.000892310460     0.000892411220
       8        0.000071687873     0.000007143475     0.000004855125
       9       -0.000025534806     0.000004691144     0.000031463550
      10        0.000139533647     0.000009386147     0.000023647462
      11       -0.000019190165     0.000011222184    -0.000030595570
      12        0.000000422303     0.000035112927    -0.000028937907
      13       -0.000344878780    -0.001295264001    -0.000740799393
      14        0.000000459263    -0.000040746348     0.000009167116
      15        0.000005820545    -0.000028157291    -0.000030637789
      16        0.000049049591     0.000405503591    -0.001661437001
      17        0.000004968362    -0.000010795604    -0.000010623756
      18       -0.000007280479     0.000000218512     0.000006420422
      19       -0.000072803704    -0.000051806348     0.001567872226

  **** Optimization is complete! (in 4 steps) ****
    Final optimized geometry and variables:
    Molecular point group: c1

    Geometry (in Angstrom), charge = 0, multiplicity = 1:

    H            2.686854665383    -0.278228424024     0.564525891162
    N            1.711315212920    -0.076513084145     0.590359836007
    C            0.933712715416    -1.294981104161     0.491937887610
    C            1.356012334625     0.866669844982    -0.450416331446
    H            1.211245891232    -1.959137088253     1.301658334694
    H            1.106404202053    -1.821750205081    -0.448591298723
    C           -0.543156665953    -0.960139252992     0.595711532649
    H            1.941231527771     1.769834698055    -0.325305559618
    H            1.553825944873     0.474062063716    -1.449725196327
    C           -0.120977071367     1.201833372958    -0.346593652988
    H           -0.751901461886    -0.579661232091     1.599702876860
    H           -1.125063020334    -1.864138557532     0.459935630983
    N           -0.922754073401    -0.003101584021    -0.423404491948
    H           -0.395884706676     1.856801907882    -1.164406971126
    H           -0.296324247823     1.744392540848     0.586916661255
    C           -2.352972028764     0.252875219422    -0.462249826573
    H           -2.806513012149    -0.173892723648    -1.350168873098
    H           -2.857975245186    -0.167375797962     0.402910590872
    H           -2.561647643976     1.316363294126    -0.453852593474

  Mulliken Charges: (a.u.)
   Center  Symbol    Alpha    Beta     Spin     Total
       1     H     0.44000  0.44000  0.00000  0.12000
       2     N     3.64276  3.64276  0.00000 -0.28552
       3     C     3.04206  3.04206  0.00000 -0.08412
       4     C     3.04204  3.04204  0.00000 -0.08409
       5     H     0.45274  0.45274  0.00000  0.09452
       6     H     0.46601  0.46601  0.00000  0.06797
       7     C     3.03525  3.03525  0.00000 -0.07050
       8     H     0.45272  0.45272  0.00000  0.09455
       9     H     0.46607  0.46607  0.00000  0.06786
      10     C     3.03488  3.03488  0.00000 -0.06976
      11     H     0.46848  0.46848  0.00000  0.06304
      12     H     0.45350  0.45350  0.00000  0.09300
      13     N     3.61740  3.61740  0.00000 -0.23479
      14     H     0.45363  0.45363  0.00000  0.09275
      15     H     0.46863  0.46863  0.00000  0.06273
      16     C     3.09131  3.09131  0.00000 -0.18261
      17     H     0.45013  0.45013  0.00000  0.09975
      18     H     0.46259  0.46259  0.00000  0.07482
      19     H     0.45980  0.45980  0.00000  0.08040

   Total alpha = 28.00000, Total beta = 28.00000, Total charge =  0.00000
