  ==> Input File <==

--------------------------------------------------------------------------
set {
	reference rhf
	basis 6-31G*
}

set_num_threads( 4 )
memory 2 gb

molecule MOL {
0 1

H	 -3.164292	 -2.805508	 0.555943
O	 -2.875403	 -2.026383	 0.102719
C	 -1.608877	 -1.646706	 0.576373
C	 -1.177863	 -0.397191	 -0.171080
H	 -1.643993	 -1.447581	 1.646618
H	 -0.885080	 -2.444830	 0.416828
C	 0.198102	 0.111031	 0.262842
H	 -1.928460	 0.372265	 -0.012114
H	 -1.177801	 -0.618101	 -1.234882
C	 1.331804	 -0.827780	 -0.158768
H	 0.361943	 1.100838	 -0.156218
H	 0.217265	 0.229072	 1.345532
C	 2.723619	 -0.410569	 0.329459
H	 1.342964	 -0.912588	 -1.244120
H	 1.116806	 -1.824343	 0.220779
C	 3.243875	 0.895854	 -0.272975
H	 3.424222	 -1.207124	 0.091250
H	 2.714788	 -0.329854	 1.414619
H	 3.251977	 0.848779	 -1.358681
H	 2.637085	 1.747371	 0.016682
H	 4.259473	 1.094070	 0.055697

	symmetry c1
}
set optking {
	frozen_dihedral = ("
		8 4 7 10
	")
}

ee = optimize('scf')
oeprop('DIPOLE', 'QUADRUPOLE', 'MULLIKEN_CHARGES')
f=open( 'psi4out.xyz', 'w' )
f.write( "21  " )
f.write( str(ee) + "\n" )
f.write( MOL.save_string_xyz() )
f.close()
--------------------------------------------------------------------------

    Molecular point group: c1
  Charge       = 0
  Multiplicity = 1
  Basis Set: 6-31G*
  Basis Set:
  @DF-RHF Final Energy:  -310.21018104070049
    Total Energy =                       -310.2101810407006042
    Molecular point group: c1
  Basis Set: 6-31G*
  Basis Set:
  Basis Set: 6-31G*
  Basis Set:
  @DF-RHF Final Energy:  -310.21066889978761
    Total Energy =                       -310.2106688997876063
  Basis Set: 6-31G*
  Basis Set:
  Basis Set: 6-31G*
  Basis Set:
  @DF-RHF Final Energy:  -310.21091509827005
    Total Energy =                       -310.2109150982701067
  Basis Set: 6-31G*
  Basis Set:
  Basis Set: 6-31G*
  Basis Set:
  @DF-RHF Final Energy:  -310.21091342883363
    Total Energy =                       -310.2109134288340329
  Basis Set: 6-31G*
  Basis Set:
  Basis Set: 6-31G*
  Basis Set:
  @DF-RHF Final Energy:  -310.21092359330072
    Total Energy =                       -310.2109235933004356
  Basis Set: 6-31G*
  Basis Set:
  Basis Set: 6-31G*
  Basis Set:
  @DF-RHF Final Energy:  -310.21093122143299
    Total Energy =                       -310.2109312214329861
  Basis Set: 6-31G*
  Basis Set:
  Charge       = 0
  Multiplicity = 1
  Basis Set: 6-31G*
  Basis Set:

    Orbital Energies (a.u.)
    -----------------------

    Doubly Occupied:

       1A    -20.551540     2A    -11.266467     3A    -11.216312
       4A    -11.215767     5A    -11.214752     6A    -11.210850
       7A    -11.208482     8A     -1.358221     9A     -1.086285
      10A     -1.031984    11A     -0.951738    12A     -0.883086
      13A     -0.810900    14A     -0.772574    15A     -0.694671
      16A     -0.648227    17A     -0.632588    18A     -0.609528
      19A     -0.582114    20A     -0.569916    21A     -0.537154
      22A     -0.522637    23A     -0.514733    24A     -0.489597
      25A     -0.478825    26A     -0.460685    27A     -0.451218
      28A     -0.446090    29A     -0.430747

  @DF-RHF Final Energy:  -310.21093131886153

   => Energetics <=

    Nuclear Repulsion Energy =            315.3965553831018269
    One-Electron Energy =               -1045.5195946850089967
    Two-Electron Energy =                 419.9121079830455301
    DFT Exchange-Correlation Energy =       0.0000000000000000
    Empirical Dispersion Energy =           0.0000000000000000
    PCM Polarization Energy =               0.0000000000000000
    EFP Energy =                            0.0000000000000000
    Total Energy =                       -310.2109313188616397
    Molecular point group: c1
  Basis Set: 6-31G*
  Basis Set:

  -Total Gradient:
     Atom            X                  Y                   Z
    ------   -----------------  -----------------  -----------------
       1       -0.000028261071    -0.000012954619    -0.000006546735
       2       -0.000002449284    -0.000049744330     0.000018478902
       3       -0.000012011023     0.000104479803     0.000005020311
       4        0.000022671181    -0.000107125536     0.000241478827
       5       -0.000005290853    -0.000025458343     0.000005667560
       6        0.000013590826     0.000005037268    -0.000010444006
       7       -0.000032503004    -0.000120443440     0.000194489050
       8        0.000050448174     0.000096708093    -0.000266761951
       9       -0.000003561927    -0.000010285496    -0.000015727797
      10       -0.000005142197     0.000132348335    -0.000184171810
      11        0.000033241560     0.000033511095     0.000009671188
      12       -0.000007992629    -0.000029880991     0.000003241148
      13        0.000011809941     0.000024109891    -0.000016468557
      14       -0.000022909853    -0.000014892155     0.000006577454
      15       -0.000006042711    -0.000008057583     0.000007203952
      16        0.000000591970    -0.000018300854     0.000001144239
      17        0.000027764679     0.000010872622     0.000010182356
      18       -0.000029045037     0.000003438627    -0.000009855983
      19       -0.000023400347     0.000000873496     0.000003318271
      20        0.000008076034     0.000001115777     0.000016666877
      21        0.000010415571    -0.000015351658    -0.000013163296

  **** Optimization is complete! (in 7 steps) ****
    Final optimized geometry and variables:
    Molecular point group: c1

    Geometry (in Angstrom), charge = 0, multiplicity = 1:

    H           -3.495566592102    -2.081185402141     0.383490363196
    O           -3.164905286048    -1.290309511527    -0.017880954637
    C           -1.861343475559    -1.036804680022     0.441681183675
    C           -1.361457352658     0.219995059326    -0.252109093555
    H           -1.857674810186    -0.889524961238     1.521211399582
    H           -1.214305941018    -1.883300860560     0.224800466545
    C            0.021570221524     0.694443268532     0.209188840665
    H           -2.090853185598     1.003886902347    -0.071079545063
    H           -1.358110669489     0.044334438619    -1.324629426222
    C            1.179525343582    -0.219060759807    -0.208291930584
    H            0.184327506263     1.688057093449    -0.196785243212
    H            0.024486918765     0.807484333704     1.292720747459
    C            2.563365075758     0.268771675804     0.238223427425
    H            1.172061356164    -0.333150552355    -1.291227932249
    H            1.024417301763    -1.213603069450     0.201869474718
    C            3.029302761959     1.564542822784    -0.428370801616
    H            3.288457627884    -0.512240748151     0.022825096449
    H            2.568138077690     0.396059779899     1.318971428118
    H            3.017173744473     1.472118420310    -1.511072542054
    H            2.403202702154     2.409146991842    -0.161272966077
    H            4.044749956282     1.806418408393    -0.129867141013

  Mulliken Charges: (a.u.)
   Center  Symbol    Alpha    Beta     Spin     Total
       1     H     0.28129  0.28129  0.00000  0.43743
       2     O     4.37200  4.37200  0.00000 -0.74400
       3     C     2.99159  2.99159  0.00000  0.01682
       4     C     3.16014  3.16014  0.00000 -0.32027
       5     H     0.43320  0.43320  0.00000  0.13361
       6     H     0.43110  0.43110  0.00000  0.13779
       7     C     3.16359  3.16359  0.00000 -0.32718
       8     H     0.41225  0.41225  0.00000  0.17551
       9     H     0.41557  0.41557  0.00000  0.16887
      10     C     3.15436  3.15436  0.00000 -0.30873
      11     H     0.41652  0.41652  0.00000  0.16697
      12     H     0.42421  0.42421  0.00000  0.15159
      13     C     3.15211  3.15211  0.00000 -0.30423
      14     H     0.42279  0.42279  0.00000  0.15442
      15     H     0.42274  0.42274  0.00000  0.15451
      16     C     3.24141  3.24141  0.00000 -0.48282
      17     H     0.42090  0.42090  0.00000  0.15819
      18     H     0.42353  0.42353  0.00000  0.15295
      19     H     0.42181  0.42181  0.00000  0.15639
      20     H     0.41981  0.41981  0.00000  0.16037
      21     H     0.41910  0.41910  0.00000  0.16180

   Total alpha = 29.00000, Total beta = 29.00000, Total charge =  0.00000
