                              Psi4 1.0.54 Driver

  ==> Input File <==

--------------------------------------------------------------------------
set {
	reference rhf
	basis cc-pvtz
}

set_num_threads( 4 )
memory 2 gb

molecule MOL {
0 1

H	 3.891325	 0.354584	 -0.042102
N	 3.091268	 -0.241216	 -0.065538
C	 1.860978	 0.530248	 0.016256
H	 3.169587	 -0.869940	 0.706421
C	 0.644130	 -0.381765	 -0.031064
H	 1.835721	 1.204666	 -0.833114
H	 1.808789	 1.151975	 0.911067
C	 -0.678115	 0.376691	 0.025731
H	 0.693998	 -0.977147	 -0.936845
H	 0.693309	 -1.082142	 0.800523
C	 -1.900706	 -0.535531	 -0.022488
H	 -0.725296	 1.079516	 -0.802982
H	 -0.715474	 0.974884	 0.933278
C	 -3.220513	 0.226854	 0.028039
H	 -1.865036	 -1.134397	 -0.928236
H	 -1.857948	 -1.236381	 0.806820
H	 -3.309098	 0.911849	 -0.808725
H	 -4.066838	 -0.449485	 -0.008086
H	 -3.301685	 0.809374	 0.939860

	symmetry c1
}
set optking {
	frozen_dihedral = ("
		1 2 3 6
	")
}

ee,wfn = optimize('scf', return_wfn=True)
oeprop( wfn, 'DIPOLE', 'QUADRUPOLE', 'MULLIKEN_CHARGES')
f=open( 'psi4out.xyz', 'w' )
f.write( "19  " )
f.write( str(ee) + "\n" )
f.write( MOL.save_string_xyz() )
f.close()
--------------------------------------------------------------------------

    Molecular point group: c1
  Charge       = 0
  Multiplicity = 1
  Basis Set: CC-PVTZ
  Basis Set:
  @DF-RHF Final Energy:  -251.44812558624520
    Total Energy =                       -251.4481255862450553
    Molecular point group: c1
  Basis Set: CC-PVTZ
  Basis Set:
  Basis Set: CC-PVTZ
  Basis Set:
  @DF-RHF Final Energy:  -251.44812838939143
    Total Energy =                       -251.4481283893912291
  Basis Set: CC-PVTZ
  Basis Set:
  Charge       = 0
  Multiplicity = 1
  Basis Set: CC-PVTZ
  Basis Set:

    Orbital Energies (a.u.)
    -----------------------

    Doubly Occupied:

       1A    -15.526466     2A    -11.237882     3A    -11.212039
       4A    -11.210664     5A    -11.208086     6A    -11.205566
       7A     -1.178307     8A     -1.074473     9A     -0.999751
      10A     -0.901038    11A     -0.813538    12A     -0.789905
      13A     -0.664883    14A     -0.644171    15A     -0.617876
      16A     -0.590397    17A     -0.565417    18A     -0.548773
      19A     -0.531708    20A     -0.498390    21A     -0.481427
      22A     -0.465322    23A     -0.461712    24A     -0.450776
      25A     -0.384200

  @DF-RHF Final Energy:  -251.44812882728169

   => Energetics <=

    Nuclear Repulsion Energy =            246.0889045075421393
    One-Electron Energy =                -826.5485370791311652
    Two-Electron Energy =                 329.0115037443072197
    DFT Exchange-Correlation Energy =       0.0000000000000000
    Empirical Dispersion Energy =           0.0000000000000000
    PCM Polarization Energy =               0.0000000000000000
    EFP Energy =                            0.0000000000000000
    Total Energy =                       -251.4481288272818347
    Molecular point group: c1
  Basis Set: CC-PVTZ
  Basis Set:

  -Total Gradient:
     Atom            X                  Y                   Z
    ------   -----------------  -----------------  -----------------
       1       -0.000005972611    -0.000057587252     0.000402042772
       2       -0.000066116132    -0.000004477259    -0.000511120892
       3        0.000268328134     0.000262726851     0.000305110471
       4        0.000003864838     0.000024932187    -0.000013446015
       5        0.000020569926     0.000034445853    -0.000017199497
       6       -0.000196491818    -0.000237666665    -0.000211507959
       7       -0.000011815455    -0.000008669585     0.000023960831
       8       -0.000007526980    -0.000009026212     0.000008075241
       9        0.000002492645     0.000001061382    -0.000009643723
      10       -0.000012546035    -0.000000426351     0.000009062275
      11       -0.000001278974     0.000003339902     0.000020073521
      12        0.000006241348    -0.000007838261     0.000002439744
      13       -0.000002460889    -0.000001457838     0.000000334436
      14        0.000002482730    -0.000000304716    -0.000010579614
      15        0.000000861690     0.000003428190     0.000001966335
      16       -0.000000560447    -0.000000897855     0.000003933004
      17       -0.000000962188     0.000003986744     0.000000326874
      18       -0.000001668291    -0.000000855364    -0.000003722415
      19        0.000002558508    -0.000004713753    -0.000000105388

  **** Optimization is complete! (in 3 steps) ****
    Final optimized geometry and variables:
    Molecular point group: c1

    Geometry (in Angstrom), charge = 0, multiplicity = 1:

    H            3.891491557719     0.350347131882    -0.048294225698
    N            3.090579017923    -0.244640317230    -0.069353069661
    C            1.861919556866     0.528866408655     0.018386875102
    H            3.171487267811    -0.869710642099     0.705506092433
    C            0.644042973265    -0.381870717756    -0.029483518796
    H            1.833596116219     1.204834803857    -0.829757999051
    H            1.812291890807     1.147042697743     0.915742156935
    C           -0.677440970238     0.378024080891     0.025261615356
    H            0.693865772197    -0.977794029769    -0.934968575609
    H            0.691155113491    -1.081596340513     0.802842977996
    C           -1.900811658883    -0.533098136774    -0.022489642413
    H           -0.723232019871     1.079594922754    -0.804516203815
    H           -0.714765342356     0.977413759746     0.931995170483
    C           -3.219788917113     0.230691620688     0.027256267964
    H           -1.865611127471    -1.132530911090    -0.927861047504
    H           -1.858930595208    -1.233334525306     0.807379949735
    H           -3.307295506355     0.915403052816    -0.809837847923
    H           -4.066820304527    -0.444801354929    -0.008868219563
    H           -3.300599371518     0.813631793862     0.938838328916

  Mulliken Charges: (a.u.)
   Center  Symbol    Alpha    Beta     Spin     Total
       1     H     0.43064  0.43064  0.00000  0.13872
       2     N     3.68859  3.68859  0.00000 -0.37718
       3     C     3.02598  3.02598  0.00000 -0.05195
       4     H     0.43123  0.43123  0.00000  0.13754
       5     C     3.08242  3.08242  0.00000 -0.16485
       6     H     0.45726  0.45726  0.00000  0.08548
       7     H     0.46877  0.46877  0.00000  0.06247
       8     C     3.09309  3.09309  0.00000 -0.18618
       9     H     0.44877  0.44877  0.00000  0.10245
      10     H     0.46045  0.46045  0.00000  0.07911
      11     C     3.08329  3.08329  0.00000 -0.16658
      12     H     0.45486  0.45486  0.00000  0.09028
      13     H     0.45668  0.45668  0.00000  0.08664
      14     C     3.14988  3.14988  0.00000 -0.29977
      15     H     0.45377  0.45377  0.00000  0.09245
      16     H     0.45498  0.45498  0.00000  0.09004
      17     H     0.45517  0.45517  0.00000  0.08967
      18     H     0.44853  0.44853  0.00000  0.10293
      19     H     0.45564  0.45564  0.00000  0.08873

   Total alpha = 25.00000, Total beta = 25.00000, Total charge = -0.00000

*** Psi4 exiting successfully. Buy a developer a beer!
