  ==> Input File <==

--------------------------------------------------------------------------
set {
	reference rhf
	basis 6-31G*
}

set_num_threads( 1 )
memory 2 gb

molecule MOL {
0 1

H	 -2.172150	 0.880146	 0.502514
C	 -2.018062	 -0.000025	 -0.114509
O	 -0.774054	 0.001095	 -0.743181
H	 -2.760490	 0.003458	 -0.901350
H	 -2.173624	 -0.884374	 0.496163
C	 -0.636767	 -0.580750	 -2.027369
C	 0.839297	 -0.375629	 -2.360794
C	 -0.961542	 -2.077599	 -1.993395
C	 -1.510509	 0.141572	 -3.057873
H	 1.460930	 -0.863212	 -1.618320
H	 1.079047	 0.681674	 -2.358596
H	 1.079977	 -0.783895	 -3.337039
H	 -0.390379	 -2.568041	 -1.212198
H	 -0.708075	 -2.538967	 -2.942339
H	 -2.014948	 -2.263817	 -1.813912
H	 -1.324738	 1.209957	 -3.024796
H	 -1.283593	 -0.213390	 -4.057895
H	 -2.568447	 -0.026274	 -2.886916

	symmetry c1
}
set optking {
	frozen_dihedral = ("
		2 3 6 7
	")
}

ee = energy('scf')
oeprop('DIPOLE', 'QUADRUPOLE', 'MULLIKEN_CHARGES')
f=open( 'psi4out.xyz', 'w' )
f.write( "18  " )
f.write( str(ee) + "\n" )
f.write( MOL.save_string_xyz() )
f.close()
--------------------------------------------------------------------------

    Molecular point group: c1

    Geometry (in Angstrom), charge = 0, multiplicity = 1:

       Center              X                  Y                   Z               Mass
    ------------   -----------------  -----------------  -----------------  -----------------
           H         -1.312783631533     1.358254798535     2.203868102439     1.007825032070
           C         -1.158695631533     0.478083798535     1.586845102439    12.000000000000
           O          0.085312368467     0.479203798535     0.958173102439    15.994914619560
           H         -1.901123631533     0.481566798535     0.800004102439     1.007825032070
           H         -1.314257631533    -0.406265201465     2.197517102439     1.007825032070
           C          0.222599368467    -0.102641201465    -0.326014897561    12.000000000000
           C          1.698663368467     0.102479798535    -0.659439897561    12.000000000000
           C         -0.102175631533    -1.599490201465    -0.292040897561    12.000000000000
           C         -0.651142631533     0.619680798535    -1.356518897561    12.000000000000
           H          2.320296368467    -0.385103201465     0.083034102439     1.007825032070
           H          1.938413368467     1.159782798535    -0.657241897561     1.007825032070
           H          1.939343368467    -0.305786201465    -1.635684897561     1.007825032070
           H          0.468987368467    -2.089932201465     0.489156102439     1.007825032070
           H          0.151291368467    -2.060858201465    -1.240984897561     1.007825032070
           H         -1.155581631533    -1.785708201465    -0.112557897561     1.007825032070
           H         -0.465371631533     1.688065798535    -1.323441897561     1.007825032070
           H         -0.424226631533     0.264718798535    -2.356540897561     1.007825032070
           H         -1.709080631533     0.451834798535    -1.185561897561     1.007825032070

  Charge       = 0
  Multiplicity = 1
  Basis Set: 6-31G*
  Basis Set:

    Orbital Energies (a.u.)
    -----------------------

    Doubly Occupied:

       1A    -20.544250     2A    -11.282568     3A    -11.260471
       4A    -11.209390     5A    -11.208848     6A    -11.203520
       7A     -1.369268     8A     -1.072956     9A     -0.946997
      10A     -0.940189    11A     -0.911507    12A     -0.752659
      13A     -0.654956    14A     -0.644909    15A     -0.640726
      16A     -0.591778    17A     -0.574976    18A     -0.549434
      19A     -0.535980    20A     -0.525139    21A     -0.515352
      22A     -0.489688    23A     -0.486874    24A     -0.435385
      25A     -0.402706

  @DF-RHF Final Energy:  -271.17134206674802

   => Energetics <=

    Nuclear Repulsion Energy =            272.4962339219682690
    One-Electron Energy =                -907.8338392670584653
    Two-Electron Energy =                 364.1662632783421714
    DFT Exchange-Correlation Energy =       0.0000000000000000
    Empirical Dispersion Energy =           0.0000000000000000
    PCM Polarization Energy =               0.0000000000000000
    EFP Energy =                            0.0000000000000000
    Total Energy =                       -271.1713420667480250

  Mulliken Charges: (a.u.)
   Center  Symbol    Alpha    Beta     Spin     Total
       1     H     0.41564  0.41564  0.00000  0.16872
       2     C     3.07450  3.07450  0.00000 -0.14900
       3     O     4.32090  4.32090  0.00000 -0.64180
       4     H     0.43326  0.43326  0.00000  0.13349
       5     H     0.42679  0.42679  0.00000  0.14642
       6     C     2.84472  2.84472  0.00000  0.31055
       7     C     3.23261  3.23261  0.00000 -0.46522
       8     C     3.24578  3.24578  0.00000 -0.49157
       9     C     3.24793  3.24793  0.00000 -0.49586
      10     H     0.41380  0.41380  0.00000  0.17240
      11     H     0.41395  0.41395  0.00000  0.17209
      12     H     0.42522  0.42522  0.00000  0.14956
      13     H     0.41307  0.41307  0.00000  0.17385
      14     H     0.42000  0.42000  0.00000  0.16000
      15     H     0.42077  0.42077  0.00000  0.15846
      16     H     0.41277  0.41277  0.00000  0.17446
      17     H     0.41907  0.41907  0.00000  0.16186
      18     H     0.41920  0.41920  0.00000  0.16159

   Total alpha = 25.00000, Total beta = 25.00000, Total charge =  0.00000
