                              Psi4 1.0.54 Driver

  ==> Input File <==

--------------------------------------------------------------------------
set {
	reference rhf
	basis cc-pvtz
}

set_num_threads( 4 )
memory 2 gb

molecule MOL {
0 1

H	 -2.734594	 -1.260281	 -0.315167
N	 -1.808259	 -1.145265	 0.036608
C	 -1.406373	 0.248755	 0.000024
H	 -1.198620	 -1.691635	 -0.534196
C	 0.001740	 0.408362	 0.525755
H	 -1.452912	 0.687158	 -0.996059
H	 -2.072809	 0.819026	 0.637757
O	 0.881195	 -0.248324	 -0.336237
H	 0.256269	 1.465628	 0.585564
H	 0.068964	 -0.015540	 1.525113
C	 2.208068	 -0.234417	 0.074171
H	 2.725499	 -1.027054	 -0.446768
H	 2.688377	 0.712084	 -0.164856
H	 2.295137	 -0.403407	 1.144883

	symmetry c1
}
set optking {
	frozen_dihedral = ("
		5 8 11 13
	")
}

ee,wfn = optimize('scf', return_wfn=True)
oeprop( wfn, 'DIPOLE', 'QUADRUPOLE', 'MULLIKEN_CHARGES')
f=open( 'psi4out.xyz', 'w' )
f.write( "14  " )
f.write( str(ee) + "\n" )
f.write( MOL.save_string_xyz() )
f.close()
--------------------------------------------------------------------------

    Molecular point group: c1
  Charge       = 0
  Multiplicity = 1
  Basis Set: CC-PVTZ
  Basis Set:
  @DF-RHF Final Energy:  -248.22531480096529
    Total Energy =                       -248.2253148009651227
    Molecular point group: c1
  Basis Set: CC-PVTZ
  Basis Set:
  Basis Set: CC-PVTZ
  Basis Set:
  @DF-RHF Final Energy:  -248.22535668640930
    Total Energy =                       -248.2253566864095546
  Basis Set: CC-PVTZ
  Basis Set:
  Basis Set: CC-PVTZ
  Basis Set:
  @DF-RHF Final Energy:  -248.22536203649105
    Total Energy =                       -248.2253620364911058
  Basis Set: CC-PVTZ
  Basis Set:
  Charge       = 0
  Multiplicity = 1
  Basis Set: CC-PVTZ
  Basis Set:

    Orbital Energies (a.u.)
    -----------------------

    Doubly Occupied:

       1A    -20.550085     2A    -15.523405     3A    -11.264087
       4A    -11.263490     5A    -11.239783     6A     -1.383551
       7A     -1.175890     8A     -1.000673     9A     -0.907728
      10A     -0.815612    11A     -0.684702    12A     -0.675868
      13A     -0.647067    14A     -0.611518    15A     -0.608221
      16A     -0.541664    17A     -0.531752    18A     -0.497718
      19A     -0.474132    20A     -0.419135    21A     -0.383764

  @DF-RHF Final Energy:  -248.22536215412308

   => Energetics <=

    Nuclear Repulsion Energy =            194.6261133807076078
    One-Electron Energy =                -723.3032620842340066
    Two-Electron Energy =                 280.4517865494032094
    DFT Exchange-Correlation Energy =       0.0000000000000000
    Empirical Dispersion Energy =           0.0000000000000000
    PCM Polarization Energy =               0.0000000000000000
    EFP Energy =                            0.0000000000000000
    Total Energy =                       -248.2253621541232178
    Molecular point group: c1
  Basis Set: CC-PVTZ
  Basis Set:

  -Total Gradient:
     Atom            X                  Y                   Z
    ------   -----------------  -----------------  -----------------
       1        0.000003484856    -0.000001875202    -0.000001399289
       2       -0.000000003032    -0.000002923590    -0.000011276477
       3       -0.000013240443     0.000003142004     0.000041994843
       4       -0.000002006071    -0.000003024661    -0.000004797785
       5       -0.000279411952    -0.001566239308     0.000929863218
       6        0.000017440705    -0.000009325807     0.000014142392
       7       -0.000018625695     0.000005391669     0.000000939981
       8        0.000613589706     0.002017794424    -0.001948979061
       9        0.000002691684     0.000000073699     0.000004886750
      10       -0.000003757834    -0.000003170203    -0.000016609369
      11       -0.000952043435     0.000453555783     0.003098450969
      12        0.000011170713    -0.000004031927    -0.000001816709
      13        0.000631219973    -0.000886907558    -0.002097620162
      14       -0.000010509174    -0.000002459323    -0.000007779304

  **** Optimization is complete! (in 4 steps) ****
    Final optimized geometry and variables:
    Molecular point group: c1

    Geometry (in Angstrom), charge = 0, multiplicity = 1:

    H           -2.718528332958    -1.052707522416    -0.374659627741
    N           -1.794341707883    -0.936000477702    -0.017881058219
    C           -1.393999049035     0.458437578810    -0.053976389218
    H           -1.180896859650    -1.482303221826    -0.584593852957
    C            0.011971926936     0.619892165285     0.477188761485
    H           -1.437046320637     0.895946340148    -1.050575134417
    H           -2.063495654190     1.028779925157     0.580575709387
    O            0.893920619851    -0.042625340147    -0.378278130085
    H            0.264253337697     1.678047930666     0.535035091791
    H            0.075393531509     0.198811335604     1.477432919288
    C            2.224815999381    -0.027066684753     0.023057093629
    H            2.741111617554    -0.815580940428    -0.506947754175
    H            2.702778250868     0.917028559164    -0.228042664523
    H            2.325530902653    -0.203617986052     1.090115356348

  Mulliken Charges: (a.u.)
   Center  Symbol    Alpha    Beta     Spin     Total
       1     H     0.43027  0.43027  0.00000  0.13947
       2     N     3.69420  3.69420  0.00000 -0.38841
       3     C     3.02238  3.02238  0.00000 -0.04475
       4     H     0.42240  0.42240  0.00000  0.15521
       5     C     2.96935  2.96935  0.00000  0.06131
       6     H     0.46454  0.46454  0.00000  0.07092
       7     H     0.45868  0.45868  0.00000  0.08264
       8     O     4.18110  4.18110  0.00000 -0.36220
       9     H     0.47094  0.47094  0.00000  0.05813
      10     H     0.46711  0.46711  0.00000  0.06577
      11     C     3.03091  3.03091  0.00000 -0.06182
      12     H     0.44910  0.44910  0.00000  0.10181
      13     H     0.46700  0.46700  0.00000  0.06599
      14     H     0.47203  0.47203  0.00000  0.05593

   Total alpha = 21.00000, Total beta = 21.00000, Total charge =  0.00000

*** Psi4 exiting successfully. Buy a developer a beer!
