  ==> Input File <==

--------------------------------------------------------------------------
set {
	reference rhf
	basis 6-31G*
}

set_num_threads( 4 )
memory 2 gb

molecule MOL {
0 1

H	 -3.420663	 1.227371	 -1.044276
O	 -3.452007	 0.283848	 -0.965577
C	 -3.181085	 -0.079926	 0.364119
C	 -1.765924	 0.277073	 0.805136
H	 -3.327791	 -1.152017	 0.410903
H	 -3.905698	 0.375695	 1.036898
C	 -0.677594	 -0.417312	 -0.014550
H	 -1.637766	 1.358238	 0.744969
H	 -1.659588	 0.017670	 1.857098
C	 0.738335	 -0.034840	 0.421385
H	 -0.814977	 -0.178223	 -1.064632
H	 -0.802730	 -1.495410	 0.071702
C	 1.822265	 -0.738362	 -0.399735
H	 0.853533	 1.043532	 0.342250
H	 0.871597	 -0.279636	 1.474438
C	 3.258060	 -0.455774	 0.057203
H	 1.718003	 -0.459167	 -1.447053
H	 1.651028	 -1.811884	 -0.354513
C	 3.489099	 -0.612147	 1.561388
H	 3.517294	 0.560134	 -0.230926
H	 3.942129	 -1.107367	 -0.482869
H	 2.809580	 0.019002	 2.127995
H	 4.502421	 -0.327130	 1.827435
H	 3.342637	 -1.635421	 1.890968

	symmetry c1
}
set optking {
	frozen_dihedral = ("
		20 16 13 17
	")
}

ee = optimize('scf')
oeprop('DIPOLE', 'QUADRUPOLE', 'MULLIKEN_CHARGES')
f=open( 'psi4out.xyz', 'w' )
f.write( "24  " )
f.write( str(ee) + "\n" )
f.write( MOL.save_string_xyz() )
f.close()
--------------------------------------------------------------------------

    Molecular point group: c1
  Charge       = 0
  Multiplicity = 1
  Basis Set: 6-31G*
  Basis Set:
  @DF-RHF Final Energy:  -349.24519853659609
    Total Energy =                       -349.2451985365959786
    Molecular point group: c1
  Basis Set: 6-31G*
  Basis Set:
  Basis Set: 6-31G*
  Basis Set:
  @DF-RHF Final Energy:  -349.24626620525947
    Total Energy =                       -349.2462662052594169
  Basis Set: 6-31G*
  Basis Set:
  Basis Set: 6-31G*
  Basis Set:
  @DF-RHF Final Energy:  -349.24688395335784
    Total Energy =                       -349.2468839533579512
  Basis Set: 6-31G*
  Basis Set:
  Basis Set: 6-31G*
  Basis Set:
  @DF-RHF Final Energy:  -349.24694014387245
    Total Energy =                       -349.2469401438725640
  Basis Set: 6-31G*
  Basis Set:
  Basis Set: 6-31G*
  Basis Set:
  @DF-RHF Final Energy:  -349.24694147952943
    Total Energy =                       -349.2469414795292550
  Basis Set: 6-31G*
  Basis Set:
  Basis Set: 6-31G*
  Basis Set:
  @DF-RHF Final Energy:  -349.24694433276892
    Total Energy =                       -349.2469443327685781
  Basis Set: 6-31G*
  Basis Set:
  Charge       = 0
  Multiplicity = 1
  Basis Set: 6-31G*
  Basis Set:

    Orbital Energies (a.u.)
    -----------------------

    Doubly Occupied:

       1A    -20.553541     2A    -11.267655     3A    -11.217378
       4A    -11.214076     5A    -11.212236     6A    -11.211628
       7A    -11.210974     8A    -11.207543     9A     -1.360132
      10A     -1.088460    11A     -1.048063    12A     -0.985219
      13A     -0.915341    14A     -0.851945    15A     -0.801227
      16A     -0.773314    17A     -0.678950    18A     -0.655287
      19A     -0.625336    20A     -0.618593    21A     -0.595929
      22A     -0.585910    23A     -0.555821    24A     -0.542570
      25A     -0.517598    26A     -0.506707    27A     -0.499544
      28A     -0.471280    29A     -0.467899    30A     -0.458380
      31A     -0.456695    32A     -0.450538    33A     -0.418537

  @DF-RHF Final Energy:  -349.24694456962834

   => Energetics <=

    Nuclear Repulsion Energy =            384.7716589849483171
    One-Electron Energy =               -1235.9885938747534055
    Two-Electron Energy =                 501.9699903201768620
    DFT Exchange-Correlation Energy =       0.0000000000000000
    Empirical Dispersion Energy =           0.0000000000000000
    PCM Polarization Energy =               0.0000000000000000
    EFP Energy =                            0.0000000000000000
    Total Energy =                       -349.2469445696282264
    Molecular point group: c1
  Basis Set: 6-31G*
  Basis Set:

  -Total Gradient:
     Atom            X                  Y                   Z
    ------   -----------------  -----------------  -----------------
       1       -0.000000346244     0.000000768928    -0.000000553825
       2       -0.000000345951     0.000002654838     0.000002387735
       3       -0.000000091925    -0.000007533828    -0.000000299708
       4        0.000002635416    -0.000002390959     0.000004353774
       5       -0.000000681712    -0.000001228510    -0.000000016688
       6        0.000001530660    -0.000000030714    -0.000000742661
       7       -0.000002263902    -0.000001427620    -0.000003030796
       8       -0.000000749118    -0.000000463615    -0.000004601466
       9       -0.000000412662     0.000004966764     0.000001707239
      10        0.000009881999     0.000014801886    -0.000016709646
      11        0.000011440084     0.000002190610     0.000000174749
      12       -0.000008918202    -0.000000244493     0.000004559355
      13        0.001350740347    -0.003485817657    -0.001458686743
      14       -0.000005005384     0.000013300899     0.000009889086
      15        0.000006908020    -0.000006246876    -0.000008797742
      16       -0.001357766912     0.001853190743     0.003299304890
      17       -0.000927438946     0.002637304505     0.000726925793
      18       -0.000003666886    -0.000012583253    -0.000002807696
      19       -0.000003947432     0.000000354093    -0.000007221701
      20        0.000938893214    -0.001007358098    -0.002546893801
      21       -0.000003990898     0.000001649881     0.000003339420
      22       -0.000001166372    -0.000000800984    -0.000002898893
      23       -0.000000452975    -0.000000520526    -0.000001169858
      24       -0.000004784212    -0.000004536014     0.000001789183

  **** Optimization is complete! (in 7 steps) ****
    Final optimized geometry and variables:
    Molecular point group: c1

    Geometry (in Angstrom), charge = 0, multiplicity = 1:

    H           -3.330183695686     1.532528969060    -1.267344357184
    O           -3.389262729266     0.587568199802    -1.237302676287
    C           -3.177920136948     0.151454267387     0.081431455348
    C           -1.771247642406     0.446261306620     0.590398855161
    H           -3.354414787207    -0.917003498340     0.069019312414
    H           -3.914914284153     0.593632733526     0.749644750686
    C           -0.671776935915    -0.237101994966    -0.223631456148
    H           -1.612429572579     1.525043301984     0.589042079259
    H           -1.711125209226     0.132674670711     1.631191011439
    C            0.736807632825     0.088646346691     0.277323601337
    H           -0.767369701915     0.052400559148    -1.265489145795
    H           -0.825097742422    -1.314713128765    -0.191259321401
    C            1.829760261929    -0.618635893659    -0.530436643154
    H            0.895377030519     1.165666771345     0.230354232215
    H            0.813157550099    -0.185246232575     1.326588676482
    C            3.264090590609    -0.212416162768    -0.167822915594
    H            1.668031901410    -0.389323911012    -1.581452043054
    H            1.716925670082    -1.695408589060    -0.420362816004
    C            3.624497395307    -0.344883908332     1.311964614793
    H            3.446312035375     0.805233541478    -0.507097363032
    H            3.944185398769    -0.833783782229    -0.746595016084
    H            3.065784473799     0.349127648882     1.930688705119
    H            4.679856338311    -0.144261582176     1.468828872116
    H            3.422668152099    -1.349294085333     1.675181233111

  Mulliken Charges: (a.u.)
   Center  Symbol    Alpha    Beta     Spin     Total
       1     H     0.28339  0.28339  0.00000  0.43321
       2     O     4.36830  4.36830  0.00000 -0.73660
       3     C     2.99618  2.99618  0.00000  0.00765
       4     C     3.16893  3.16893  0.00000 -0.33785
       5     H     0.41633  0.41633  0.00000  0.16733
       6     H     0.42818  0.42818  0.00000  0.14364
       7     C     3.15188  3.15188  0.00000 -0.30375
       8     H     0.42831  0.42831  0.00000  0.14339
       9     H     0.42242  0.42242  0.00000  0.15516
      10     C     3.15458  3.15458  0.00000 -0.30917
      11     H     0.41215  0.41215  0.00000  0.17569
      12     H     0.42362  0.42362  0.00000  0.15276
      13     C     3.15170  3.15170  0.00000 -0.30340
      14     H     0.42581  0.42581  0.00000  0.14837
      15     H     0.42240  0.42240  0.00000  0.15521
      16     C     3.15208  3.15208  0.00000 -0.30415
      17     H     0.42172  0.42172  0.00000  0.15657
      18     H     0.42361  0.42361  0.00000  0.15278
      19     C     3.24180  3.24180  0.00000 -0.48359
      20     H     0.42348  0.42348  0.00000  0.15305
      21     H     0.42151  0.42151  0.00000  0.15699
      22     H     0.41984  0.41984  0.00000  0.16033
      23     H     0.41941  0.41941  0.00000  0.16119
      24     H     0.42240  0.42240  0.00000  0.15519

   Total alpha = 33.00000, Total beta = 33.00000, Total charge = -0.00000
