  ==> Input File <==

--------------------------------------------------------------------------
set {
	reference rhf
	basis 6-31G*
}

set_num_threads( 1 )
memory 2 gb

molecule MOL {
0 1

O	 3.198704	 -3.248277	 0.133008
C	 2.686331	 -2.196386	 0.342912
C	 1.231583	 -1.977830	 0.681628
O	 3.347903	 -1.046386	 0.304773
C	 0.429925	 -3.275843	 0.749625
H	 1.201553	 -1.431582	 1.618592
H	 0.823055	 -1.304554	 -0.067707
C	 -1.068853	 -3.063750	 0.988737
H	 0.840571	 -3.910539	 1.529143
H	 0.568196	 -3.816678	 -0.180322
C	 -1.427235	 -2.474819	 2.356156
H	 -1.566057	 -4.025231	 0.883533
H	 -1.474701	 -2.427178	 0.203835
C	 -2.936914	 -2.385327	 2.588233
H	 -0.979036	 -3.086540	 3.137650
H	 -0.996491	 -1.481610	 2.460887
C	 -3.306864	 -1.793407	 3.949445
H	 -3.374203	 -3.378262	 2.498276
H	 -3.387154	 -1.782611	 1.801013
C	 -4.816208	 -1.711058	 4.174837
H	 -2.856919	 -2.393905	 4.737222
H	 -2.874301	 -0.799143	 4.039499
H	 -5.046559	 -1.287630	 5.147593
H	 -5.274165	 -2.694954	 4.125663
H	 -5.291655	 -1.088397	 3.422164
C	 4.728119	 -1.109107	 -0.004993
H	 4.882018	 -1.033965	 -1.071845
H	 5.068212	 -2.067527	 0.355250
H	 5.265056	 -0.311663	 0.488280

	symmetry c1
}
set optking {
	frozen_dihedral = ("
		21 17 14 11,
		17 14 11 15,
		15 11 8 5,
		6 3 5 9,
		11 8 5 9,
		1 2 4 26,
		6 3 2 1
	")
}

ee = energy('scf')
oeprop('DIPOLE', 'QUADRUPOLE', 'MULLIKEN_CHARGES')
f=open( 'psi4out.xyz', 'w' )
f.write( "29  " )
f.write( str(ee) + "\n" )
f.write( MOL.save_string_xyz() )
f.close()
--------------------------------------------------------------------------

    Molecular point group: c1

    Geometry (in Angstrom), charge = 0, multiplicity = 1:

       Center              X                  Y                   Z               Mass
    ------------   -----------------  -----------------  -----------------  -----------------
           O          2.968734713506    -1.052846410286    -1.336187221284    15.994914619560
           C          2.456361713506    -0.000955410286    -1.126283221284    12.000000000000
           C          1.001613713506     0.217600589714    -0.787567221284    12.000000000000
           O          3.117933713506     1.149044589714    -1.164422221284    15.994914619560
           C          0.199955713506    -1.080412410286    -0.719570221284    12.000000000000
           H          0.971583713506     0.763848589714     0.149396778716     1.007825032070
           H          0.593085713506     0.890876589714    -1.536902221284     1.007825032070
           C         -1.298822286494    -0.868319410286    -0.480458221284    12.000000000000
           H          0.610601713506    -1.715108410286     0.059947778716     1.007825032070
           H          0.338226713506    -1.621247410286    -1.649517221284     1.007825032070
           C         -1.657204286494    -0.279388410286     0.886960778716    12.000000000000
           H         -1.796026286494    -1.829800410286    -0.585662221284     1.007825032070
           H         -1.704670286494    -0.231747410286    -1.265360221284     1.007825032070
           C         -3.166883286494    -0.189896410286     1.119037778716    12.000000000000
           H         -1.209005286494    -0.891109410286     1.668454778716     1.007825032070
           H         -1.226460286494     0.713820589714     0.991691778716     1.007825032070
           C         -3.536833286494     0.402023589714     2.480249778716    12.000000000000
           H         -3.604172286494    -1.182831410286     1.029080778716     1.007825032070
           H         -3.617123286494     0.412819589714     0.331817778716     1.007825032070
           C         -5.046177286494     0.484372589714     2.705641778716    12.000000000000
           H         -3.086888286494    -0.198474410286     3.268026778716     1.007825032070
           H         -3.104270286494     1.396287589714     2.570303778716     1.007825032070
           H         -5.276528286494     0.907800589714     3.678397778716     1.007825032070
           H         -5.504134286494    -0.499523410286     2.656467778716     1.007825032070
           H         -5.521624286494     1.107033589714     1.952968778716     1.007825032070
           C          4.498149713506     1.086323589714    -1.474188221284    12.000000000000
           H          4.652048713506     1.161465589714    -2.541040221284     1.007825032070
           H          4.838242713506     0.127903589714    -1.113945221284     1.007825032070
           H          5.035086713506     1.883767589714    -0.980915221284     1.007825032070

  Charge       = 0
  Multiplicity = 1
  Basis Set: 6-31G*
  Basis Set:

    Orbital Energies (a.u.)
    -----------------------

    Doubly Occupied:

       1A    -20.602640     2A    -20.545246     3A    -11.373405
       4A    -11.277543     5A    -11.235286     6A    -11.219378
       7A    -11.217843     8A    -11.216139     9A    -11.215936
      10A    -11.214560    11A    -11.209114    12A     -1.469568
      13A     -1.362852    14A     -1.098323    15A     -1.067049
      16A     -1.019519    17A     -0.976439    18A     -0.928188
      19A     -0.861644    20A     -0.799294    21A     -0.790525
      22A     -0.763154    23A     -0.703490    24A     -0.681545
      25A     -0.673516    26A     -0.651090    27A     -0.629119
      28A     -0.606650    29A     -0.595427    30A     -0.581219
      31A     -0.567348    32A     -0.550200    33A     -0.533598
      34A     -0.524740    35A     -0.515265    36A     -0.510090
      37A     -0.496391    38A     -0.478041    39A     -0.470332
      40A     -0.462568    41A     -0.459101    42A     -0.454531
      43A     -0.441954    44A     -0.435715

  @DF-RHF Final Energy:  -501.04107380525068

   => Energetics <=

    Nuclear Repulsion Energy =            610.3884786964055138
    One-Electron Energy =               -1891.8878919180792764
    Two-Electron Energy =                 780.4583394164250194
    DFT Exchange-Correlation Energy =       0.0000000000000000
    Empirical Dispersion Energy =           0.0000000000000000
    PCM Polarization Energy =               0.0000000000000000
    EFP Energy =                            0.0000000000000000
    Total Energy =                       -501.0410738052488568

  Mulliken Charges: (a.u.)
   Center  Symbol    Alpha    Beta     Spin     Total
       1     O     4.28654  4.28654  0.00000 -0.57308
       2     C     2.60438  2.60438  0.00000  0.79124
       3     C     3.20972  3.20972  0.00000 -0.41944
       4     O     4.30813  4.30813  0.00000 -0.61627
       5     C     3.15393  3.15393  0.00000 -0.30786
       6     H     0.39859  0.39859  0.00000  0.20281
       7     H     0.40086  0.40086  0.00000  0.19829
       8     C     3.15665  3.15665  0.00000 -0.31329
       9     H     0.41307  0.41307  0.00000  0.17386
      10     H     0.40865  0.40865  0.00000  0.18269
      11     C     3.15510  3.15510  0.00000 -0.31019
      12     H     0.41817  0.41817  0.00000  0.16367
      13     H     0.42381  0.42381  0.00000  0.15238
      14     C     3.15030  3.15030  0.00000 -0.30060
      15     H     0.42260  0.42260  0.00000  0.15479
      16     H     0.42358  0.42358  0.00000  0.15283
      17     C     3.15146  3.15146  0.00000 -0.30292
      18     H     0.42331  0.42331  0.00000  0.15338
      19     H     0.42395  0.42395  0.00000  0.15211
      20     C     3.23935  3.23935  0.00000 -0.47871
      21     H     0.42280  0.42280  0.00000  0.15440
      22     H     0.42341  0.42341  0.00000  0.15318
      23     H     0.41922  0.41922  0.00000  0.16157
      24     H     0.42154  0.42154  0.00000  0.15691
      25     H     0.42182  0.42182  0.00000  0.15636
      26     C     3.09820  3.09820  0.00000 -0.19640
      27     H     0.41348  0.41348  0.00000  0.17304
      28     H     0.39751  0.39751  0.00000  0.20498
      29     H     0.40987  0.40987  0.00000  0.18027

   Total alpha = 44.00000, Total beta = 44.00000, Total charge = -0.00000
