  ==> Input File <==

--------------------------------------------------------------------------
set {
	reference rhf
	basis 6-31G*
}

set_num_threads( 1 )
memory 2 gb

molecule MOL {
0 1

H	 0.604851	 0.933309	 2.340673
C	 1.288223	 0.615512	 1.543924
C	 0.692068	 0.589600	 0.160137
O	 2.410475	 0.322172	 1.802056
C	 -0.558097	 -0.297372	 0.091132
H	 1.454669	 0.252485	 -0.532160
H	 0.424151	 1.611695	 -0.105138
C	 -1.850991	 0.512573	 -0.019058
H	 -0.476753	 -0.965681	 -0.762987
H	 -0.604799	 -0.930658	 0.975228
C	 -3.096943	 -0.368295	 -0.099594
H	 -1.800724	 1.150330	 -0.898172
H	 -1.931651	 1.177355	 0.838044
H	 -3.060452	 -1.020287	 -0.967456
H	 -3.996858	 0.233488	 -0.175704
H	 -3.191959	 -0.995686	 0.782074

	symmetry c1
}
set optking {
	frozen_dihedral = ("
		9 5 8 12,
		4 2 3 6
	")
}

ee = energy('scf')
oeprop('DIPOLE', 'QUADRUPOLE', 'MULLIKEN_CHARGES')
f=open( 'psi4out.xyz', 'w' )
f.write( "16  " )
f.write( str(ee) + "\n" )
f.write( MOL.save_string_xyz() )
f.close()
--------------------------------------------------------------------------

    Molecular point group: c1

    Geometry (in Angstrom), charge = 0, multiplicity = 1:

       Center              X                  Y                   Z               Mass
    ------------   -----------------  -----------------  -----------------  -----------------
           H          0.795752524074     0.709836360400     1.754563268375     1.007825032070
           C          1.479124524074     0.392039360400     0.957814268375    12.000000000000
           C          0.882969524074     0.366127360400    -0.425972731625    12.000000000000
           O          2.601376524074     0.098699360400     1.215946268375    15.994914619560
           C         -0.367195475926    -0.520844639600    -0.494977731625    12.000000000000
           H          1.645570524074     0.029012360400    -1.118269731625     1.007825032070
           H          0.615052524074     1.388222360400    -0.691247731625     1.007825032070
           C         -1.660089475926     0.289100360400    -0.605167731625    12.000000000000
           H         -0.285851475926    -1.189153639600    -1.349096731625     1.007825032070
           H         -0.413897475926    -1.154130639600     0.389118268375     1.007825032070
           C         -2.906041475926    -0.591767639600    -0.685703731625    12.000000000000
           H         -1.609822475926     0.926857360400    -1.484281731625     1.007825032070
           H         -1.740749475926     0.953882360400     0.251934268375     1.007825032070
           H         -2.869550475926    -1.243759639600    -1.553565731625     1.007825032070
           H         -3.805956475926     0.010015360400    -0.761813731625     1.007825032070
           H         -3.001057475926    -1.219158639600     0.195964268375     1.007825032070

  Charge       = 0
  Multiplicity = 1
  Basis Set: 6-31G*
  Basis Set:

    Orbital Energies (a.u.)
    -----------------------

    Doubly Occupied:

       1A    -20.562058     2A    -11.326766     3A    -11.235832
       4A    -11.233793     5A    -11.230654     6A    -11.218990
       7A     -1.402062     8A     -1.097914     9A     -1.018147
      10A     -0.905431    11A     -0.819593    12A     -0.791116
      13A     -0.671270    14A     -0.657730    15A     -0.615364
      16A     -0.607601    17A     -0.583879    18A     -0.554041
      19A     -0.536136    20A     -0.508484    21A     -0.485605
      22A     -0.482480    23A     -0.473146    24A     -0.409453

  @DF-RHF Final Energy:  -270.01508157018486

   => Energetics <=

    Nuclear Repulsion Energy =            230.3865296404492824
    One-Electron Energy =                -821.9481265851293301
    Two-Electron Energy =                 321.5465153744952431
    DFT Exchange-Correlation Energy =       0.0000000000000000
    Empirical Dispersion Energy =           0.0000000000000000
    PCM Polarization Energy =               0.0000000000000000
    EFP Energy =                            0.0000000000000000
    Total Energy =                       -270.0150815701848614

  Mulliken Charges: (a.u.)
   Center  Symbol    Alpha    Beta     Spin     Total
       1     H     0.43199  0.43199  0.00000  0.13603
       2     C     2.83207  2.83207  0.00000  0.33586
       3     C     3.20963  3.20963  0.00000 -0.41926
       4     O     4.23780  4.23780  0.00000 -0.47560
       5     C     3.16622  3.16622  0.00000 -0.33244
       6     H     0.39691  0.39691  0.00000  0.20617
       7     H     0.40701  0.40701  0.00000  0.18598
       8     C     3.15526  3.15526  0.00000 -0.31051
       9     H     0.41014  0.41014  0.00000  0.17973
      10     H     0.41510  0.41510  0.00000  0.16980
      11     C     3.24079  3.24079  0.00000 -0.48158
      12     H     0.41901  0.41901  0.00000  0.16198
      13     H     0.42224  0.42224  0.00000  0.15551
      14     H     0.41945  0.41945  0.00000  0.16110
      15     H     0.41664  0.41664  0.00000  0.16671
      16     H     0.41974  0.41974  0.00000  0.16052

   Total alpha = 24.00000, Total beta = 24.00000, Total charge =  0.00000
