  ==> Input File <==

--------------------------------------------------------------------------
set {
	reference rhf
	basis cc-pvtz
}

set_num_threads( 4 )
memory 2 gb

molecule MOL {
0 1

H	 -3.212708	 1.454216	 -0.276838
C	 -2.619647	 2.108123	 0.358432
O	 -1.267755	 2.023381	 0.053888
H	 -2.932204	 3.129046	 0.194382
H	 -2.812915	 1.846144	 1.397132
C	 -0.718530	 0.758693	 0.228682
C	 0.718529	 0.758687	 -0.228709
H	 -0.754222	 0.473836	 1.280135
H	 -1.274477	 0.015752	 -0.339114
O	 1.401606	 -0.295166	 0.366636
H	 0.748705	 0.673477	 -1.312803
H	 1.176496	 1.708671	 0.046552
C	 2.714315	 -0.441627	 -0.061017
H	 2.765292	 -0.641548	 -1.128869
H	 3.305661	 0.447341	 0.150952
H	 3.143725	 -1.278506	 0.470147

	symmetry c1
}
set optking {
	frozen_dihedral = ("
		3 6 7 11
	")
}

ee = optimize('scf')
oeprop('DIPOLE', 'QUADRUPOLE', 'MULLIKEN_CHARGES')
f=open( 'psi4out.xyz', 'w' )
f.write( "16  " )
f.write( str(ee) + "\n" )
f.write( MOL.save_string_xyz() )
f.close()
--------------------------------------------------------------------------

    Molecular point group: c1
  Charge       = 0
  Multiplicity = 1
  Basis Set: CC-PVTZ
  Basis Set:
  @DF-RHF Final Energy:  -307.09762677680538
    Total Energy =                       -307.0976267768052139
    Molecular point group: c1
  Basis Set: CC-PVTZ
  Basis Set:
  Basis Set: CC-PVTZ
  Basis Set:
  @DF-RHF Final Energy:  -307.09808982145171
    Total Energy =                       -307.0980898214516515
  Basis Set: CC-PVTZ
  Basis Set:
  Basis Set: CC-PVTZ
  Basis Set:
  @DF-RHF Final Energy:  -307.09815018453310
    Total Energy =                       -307.0981501845330968
  Basis Set: CC-PVTZ
  Basis Set:
  Charge       = 0
  Multiplicity = 1
  Basis Set: CC-PVTZ
  Basis Set:

    Orbital Energies (a.u.)
    -----------------------

    Doubly Occupied:

       1A    -20.552392     2A    -20.551956     3A    -11.266132
       4A    -11.265443     5A    -11.264526     6A    -11.264379
       7A     -1.391870     8A     -1.380515     9A     -1.031010
      10A     -0.941864    11A     -0.883480    12A     -0.831924
      13A     -0.693729    14A     -0.676272    15A     -0.661126
      16A     -0.649637    17A     -0.622353    18A     -0.601001
      19A     -0.573889    20A     -0.519828    21A     -0.509090
      22A     -0.484680    23A     -0.468072    24A     -0.421377
      25A     -0.420157

  @DF-RHF Final Energy:  -307.09815274788940

   => Energetics <=

    Nuclear Repulsion Energy =            255.0269239301263156
    One-Electron Energy =                -924.3967486526935318
    Two-Electron Energy =                 362.2716719746774743
    DFT Exchange-Correlation Energy =       0.0000000000000000
    Empirical Dispersion Energy =           0.0000000000000000
    PCM Polarization Energy =               0.0000000000000000
    EFP Energy =                            0.0000000000000000
    Total Energy =                       -307.0981527478897988
    Molecular point group: c1
  Basis Set: CC-PVTZ
  Basis Set:

  -Total Gradient:
     Atom            X                  Y                   Z
    ------   -----------------  -----------------  -----------------
       1       -0.000020862188     0.000008179371    -0.000007202680
       2        0.000021825211    -0.000097748019     0.000016243194
       3        0.000825923765     0.000773878789     0.002495948093
       4        0.000066160312    -0.000010683117    -0.000012944325
       5       -0.000015310644     0.000013428059     0.000012560854
       6       -0.001068478049    -0.001780053016    -0.003142041269
       7        0.000222992414     0.004519927700     0.000434482107
       8        0.000032196239    -0.000027693363    -0.000006481357
       9        0.000000027613     0.000001044523    -0.000002808027
      10       -0.000104240566     0.000073166905    -0.000002590329
      11        0.000138342555    -0.003533805388     0.000244231704
      12       -0.000065969993     0.000002379078     0.000003721402
      13        0.000023293138     0.000058120111    -0.000048351504
      14        0.000009651530    -0.000011408057    -0.000010966186
      15        0.000006438302    -0.000009872286     0.000009758686
      16       -0.000071989640     0.000021138707     0.000016439636

  **** Optimization is complete! (in 4 steps) ****
    Final optimized geometry and variables:
    Molecular point group: c1

    Geometry (in Angstrom), charge = 0, multiplicity = 1:

    H           -3.265345367368     0.626894979656    -0.336694477299
    C           -2.647215347183     1.293393202718     0.260553022599
    O           -1.306031319687     1.192314838386    -0.087055647058
    H           -2.959435771335     2.311805104071     0.081013358481
    H           -2.803992773855     1.058556686274     1.310996715063
    C           -0.756012234905    -0.071500272897     0.106984660461
    C            0.685437184694    -0.041606253783    -0.359277317086
    H           -0.773944080767    -0.338399522526     1.160780055748
    H           -1.317703946597    -0.827928348645    -0.436309588648
    O            1.347340641121    -1.117566514114     0.229146300003
    H            0.735637757621    -0.132535117595    -1.442181770612
    H            1.137129520710     0.902171727709    -0.067544946510
    C            2.674731566579    -1.254504820489    -0.156470261106
    H            2.763516977768    -1.421985218229    -1.227601878294
    H            3.257224262130    -0.373298799231     0.102927107505
    H            3.083998634927    -2.107888910001     0.364243480238

  Mulliken Charges: (a.u.)
   Center  Symbol    Alpha    Beta     Spin     Total
       1     H     0.47092  0.47092  0.00000  0.05816
       2     C     3.03054  3.03054  0.00000 -0.06108
       3     O     4.17524  4.17524  0.00000 -0.35048
       4     H     0.44685  0.44685  0.00000  0.10630
       5     H     0.47087  0.47087  0.00000  0.05825
       6     C     2.96379  2.96379  0.00000  0.07242
       7     C     2.96414  2.96414  0.00000  0.07172
       8     H     0.46970  0.46970  0.00000  0.06060
       9     H     0.47198  0.47198  0.00000  0.05604
      10     O     4.17567  4.17567  0.00000 -0.35135
      11     H     0.47244  0.47244  0.00000  0.05512
      12     H     0.46829  0.46829  0.00000  0.06342
      13     C     3.03045  3.03045  0.00000 -0.06090
      14     H     0.47126  0.47126  0.00000  0.05747
      15     H     0.47093  0.47093  0.00000  0.05814
      16     H     0.44692  0.44692  0.00000  0.10616

   Total alpha = 25.00000, Total beta = 25.00000, Total charge = -0.00000
