  ==> Input File <==

--------------------------------------------------------------------------
set {
	reference rhf
	basis 6-31G*
}

set_num_threads( 4 )
memory 2 gb

molecule MOL {
0 1

H	 2.652209	 0.763231	 0.000000
O	 2.263154	 -0.100023	 0.000000
C	 0.912879	 -0.015685	 0.000000
C	 0.346790	 1.180296	 -0.421610
C	 0.102613	 -1.065770	 0.399841
H	 0.992930	 1.982008	 -0.727503
C	 -1.027856	 1.314630	 -0.439219
H	 0.542489	 -1.993213	 0.726765
C	 -1.276477	 -0.917071	 0.377115
H	 -1.461394	 2.242841	 -0.766566
C	 -1.850779	 0.269184	 -0.040777
H	 -1.898390	 -1.737167	 0.689136
H	 -2.919408	 0.381108	 -0.057188

	symmetry c1
}
set optking {
	frozen_dihedral = ("
		4 3 2 1
	")
}

ee = optimize('scf')
oeprop('DIPOLE', 'QUADRUPOLE', 'MULLIKEN_CHARGES')
f=open( 'psi4out.xyz', 'w' )
f.write( "13  " )
f.write( str(ee) + "\n" )
f.write( MOL.save_string_xyz() )
f.close()
--------------------------------------------------------------------------

    Molecular point group: c1
  Charge       = 0
  Multiplicity = 1
  Basis Set: 6-31G*
  Basis Set:
  @DF-RHF Final Energy:  -305.55504849803071
    Total Energy =                       -305.5550484980307715
    Molecular point group: c1
  Basis Set: 6-31G*
  Basis Set:
  Basis Set: 6-31G*
  Basis Set:
  @DF-RHF Final Energy:  -305.55691422786322
    Total Energy =                       -305.5569142278631034
  Basis Set: 6-31G*
  Basis Set:
  Basis Set: 6-31G*
  Basis Set:
  @DF-RHF Final Energy:  -305.55707693589011
    Total Energy =                       -305.5570769358896541
  Basis Set: 6-31G*
  Basis Set:
  Basis Set: 6-31G*
  Basis Set:
  @DF-RHF Final Energy:  -305.55709794863139
    Total Energy =                       -305.5570979486311671
  Basis Set: 6-31G*
  Basis Set:
  Basis Set: 6-31G*
  Basis Set:
  @DF-RHF Final Energy:  -305.55710141263376
    Total Energy =                       -305.5571014126339833
  Basis Set: 6-31G*
  Basis Set:
  Charge       = 0
  Multiplicity = 1
  Basis Set: 6-31G*
  Basis Set:

    Orbital Energies (a.u.)
    -----------------------

    Doubly Occupied:

       1A    -20.589150     2A    -11.297174     3A    -11.236722
       4A    -11.234712     5A    -11.228034     6A    -11.222274
       7A    -11.222142     8A     -1.407300     9A     -1.147289
      10A     -1.018546    11A     -1.003981    12A     -0.845402
      13A     -0.822120    14A     -0.735564    15A     -0.683460
      16A     -0.649457    17A     -0.610863    18A     -0.591491
      19A     -0.588264    20A     -0.555297    21A     -0.513921
      22A     -0.489979    23A     -0.478042    24A     -0.337960
      25A     -0.310605

  @DF-RHF Final Energy:  -305.55710176870093

   => Energetics <=

    Nuclear Repulsion Energy =            273.0940622522638250
    One-Electron Energy =                -955.6628273737928794
    Two-Electron Energy =                 377.0116633528284069
    DFT Exchange-Correlation Energy =       0.0000000000000000
    Empirical Dispersion Energy =           0.0000000000000000
    PCM Polarization Energy =               0.0000000000000000
    EFP Energy =                            0.0000000000000000
    Total Energy =                       -305.5571017687006474
    Molecular point group: c1
  Basis Set: 6-31G*
  Basis Set:

  -Total Gradient:
     Atom            X                  Y                   Z
    ------   -----------------  -----------------  -----------------
       1       -0.000000711065     0.000016016820     0.001702684209
       2        0.000061596280    -0.000259787266    -0.002822382280
       3        0.000056541229     0.000715924100     0.002395569998
       4       -0.000029129019    -0.000433888789    -0.001237939353
       5       -0.000086875422    -0.000013871894    -0.000023480140
       6        0.000000034807    -0.000004281924    -0.000002944298
       7       -0.000010801337     0.000001704445    -0.000021588862
       8        0.000004591239     0.000007373541    -0.000001026375
       9        0.000010641419    -0.000021562890    -0.000029781811
      10       -0.000010062212    -0.000003008001     0.000004488108
      11        0.000007774366    -0.000009914996     0.000028075708
      12       -0.000003551199     0.000001303614     0.000009072032
      13       -0.000000049087     0.000003993239    -0.000000746935

  **** Optimization is complete! (in 6 steps) ****
    Final optimized geometry and variables:
    Molecular point group: c1

    Geometry (in Angstrom), charge = 0, multiplicity = 1:

    H            2.701792149173     0.568794264292     0.026123822248
    O            2.251110120090    -0.263853404806     0.036812668663
    C            0.908619854912    -0.080291645733     0.019932908613
    C            0.329596556666     1.103477154048    -0.408470939781
    C            0.109736567913    -1.144029286877     0.415208244311
    H            0.951472395017     1.922300170314    -0.729149197401
    C           -1.051661563089     1.226015562397    -0.425067253951
    H            0.578881343871    -2.054398191209     0.739023031950
    C           -1.265762416709    -1.011885062351     0.385912638245
    H           -1.493896110186     2.149360124403    -0.754574488827
    C           -1.857223136817     0.172936076519    -0.030556011039
    H           -1.880663691876    -1.838634773582     0.694380350819
    H           -2.927374450229     0.270254166237    -0.047572453548

  Mulliken Charges: (a.u.)
   Center  Symbol    Alpha    Beta     Spin     Total
       1     H     0.27209  0.27209  0.00000  0.45581
       2     O     4.37930  4.37930  0.00000 -0.75860
       3     C     2.79684  2.79684  0.00000  0.40633
       4     C     3.14173  3.14173  0.00000 -0.28347
       5     C     3.12279  3.12279  0.00000 -0.24557
       6     H     0.40378  0.40378  0.00000  0.19244
       7     C     3.09094  3.09094  0.00000 -0.18188
       8     H     0.39173  0.39173  0.00000  0.21654
       9     C     3.09154  3.09154  0.00000 -0.18308
      10     H     0.39836  0.39836  0.00000  0.20329
      11     C     3.11242  3.11242  0.00000 -0.22483
      12     H     0.39802  0.39802  0.00000  0.20397
      13     H     0.40047  0.40047  0.00000  0.19906

   Total alpha = 25.00000, Total beta = 25.00000, Total charge =  0.00000
