  ==> Input File <==

--------------------------------------------------------------------------
set {
	reference rhf
	basis 6-31G*
}

set_num_threads( 4 )
memory 2 gb

molecule MOL {
0 1

H	 -0.000158	 1.970498	 0.756846
O	 -0.000074	 1.880206	 -0.189275
C	 -0.000015	 0.544847	 -0.545111
C	 0.861217	 -0.251862	 0.429323
C	 0.417302	 0.396670	 -2.004524
H	 -1.012614	 0.180028	 -0.457628
F	 0.378436	 -0.130365	 1.647398
F	 0.896694	 -1.533323	 0.131063
F	 2.103689	 0.203930	 0.440053
F	 -0.427926	 1.048116	 -2.774422
F	 0.436090	 -0.860810	 -2.392817
F	 1.621599	 0.908131	 -2.203661

	symmetry c1
}
set optking {
	frozen_dihedral = ("
		6 3 2 1
	")
}

ee = optimize('scf')
oeprop('DIPOLE', 'QUADRUPOLE', 'MULLIKEN_CHARGES')
f=open( 'psi4out.xyz', 'w' )
f.write( "12  " )
f.write( str(ee) + "\n" )
f.write( MOL.save_string_xyz() )
f.close()
--------------------------------------------------------------------------

    Molecular point group: c1
  Charge       = 0
  Multiplicity = 1
  Basis Set: 6-31G*
  Basis Set:
  @DF-RHF Final Energy:  -786.27281911094474
    Total Energy =                       -786.2728191109453064
    Molecular point group: c1
  Basis Set: 6-31G*
  Basis Set:
  Basis Set: 6-31G*
  Basis Set:
  @DF-RHF Final Energy:  -786.27494919420076
    Total Energy =                       -786.2749491942008717
  Basis Set: 6-31G*
  Basis Set:
  Basis Set: 6-31G*
  Basis Set:
  @DF-RHF Final Energy:  -786.27542819638404
    Total Energy =                       -786.2754281963841549
  Basis Set: 6-31G*
  Basis Set:
  Basis Set: 6-31G*
  Basis Set:
  @DF-RHF Final Energy:  -786.27550409503806
    Total Energy =                       -786.2755040950380589
  Basis Set: 6-31G*
  Basis Set:
  Basis Set: 6-31G*
  Basis Set:
  @DF-RHF Final Energy:  -786.27552091550172
    Total Energy =                       -786.2755209155017155
  Basis Set: 6-31G*
  Basis Set:
  Basis Set: 6-31G*
  Basis Set:
  @DF-RHF Final Energy:  -786.27552456371791
    Total Energy =                       -786.2755245637177950
  Basis Set: 6-31G*
  Basis Set:
  Charge       = 0
  Multiplicity = 1
  Basis Set: 6-31G*
  Basis Set:

    Orbital Energies (a.u.)
    -----------------------

    Doubly Occupied:

       1A    -26.369553     2A    -26.365217     3A    -26.363159
       4A    -26.355537     5A    -26.351771     6A    -26.351152
       7A    -20.614725     8A    -11.530296     9A    -11.521174
      10A    -11.349144    11A     -1.767163    12A     -1.753901
      13A     -1.664179    14A     -1.662283    15A     -1.650954
      16A     -1.649256    17A     -1.433639    18A     -1.103255
      19A     -0.997115    20A     -0.935028    21A     -0.868954
      22A     -0.859640    23A     -0.854774    24A     -0.841147
      25A     -0.830589    26A     -0.787138    27A     -0.751885
      28A     -0.733293    29A     -0.719238    30A     -0.717220
      31A     -0.711750    32A     -0.686745    33A     -0.683391
      34A     -0.667331    35A     -0.667039    36A     -0.663065
      37A     -0.651626    38A     -0.643634    39A     -0.616094
      40A     -0.546585    41A     -0.504622

  @DF-RHF Final Energy:  -786.27552560698587

   => Energetics <=

    Nuclear Repulsion Energy =            670.6959706941484001
    One-Electron Energy =               -2428.3544744559026185
    Two-Electron Energy =                 971.3829781547688071
    DFT Exchange-Correlation Energy =       0.0000000000000000
    Empirical Dispersion Energy =           0.0000000000000000
    PCM Polarization Energy =               0.0000000000000000
    EFP Energy =                            0.0000000000000000
    Total Energy =                       -786.2755256069854113
    Molecular point group: c1
  Basis Set: 6-31G*
  Basis Set:

  -Total Gradient:
     Atom            X                  Y                   Z
    ------   -----------------  -----------------  -----------------
       1        0.002324561875     0.000029125943     0.000104204559
       2       -0.002984197032     0.000056443913    -0.000708212738
       3        0.000934846297    -0.000620131891     0.002515056910
       4        0.000086944104     0.000025790966    -0.000019340142
       5        0.000071484670     0.000098176313    -0.000017196146
       6       -0.000280991835     0.000503528522    -0.001949306452
       7       -0.000044122188    -0.000011646349     0.000067496606
       8        0.000013952571     0.000031501690     0.000009793819
       9       -0.000045700993    -0.000040612636    -0.000020720617
      10       -0.000049427818     0.000008474715    -0.000017561383
      11       -0.000014108734    -0.000061738846     0.000003173668
      12       -0.000013240922    -0.000018912349     0.000032611907

  **** Optimization is complete! (in 7 steps) ****
    Final optimized geometry and variables:
    Molecular point group: c1

    Geometry (in Angstrom), charge = 0, multiplicity = 1:

    H           -0.727096466821     1.768202753266     1.483291027336
    O           -0.691131165066     1.655270812604     0.542209260374
    C           -0.671351734567     0.313863113447     0.207476804910
    C            0.214455443847    -0.477209217414     1.162958943864
    C           -0.214479829354     0.235433404552    -1.243685034407
    H           -1.659959979860    -0.132174296495     0.239999351579
    F           -0.165319184304    -0.197516802501     2.405972881308
    F            0.082634454248    -1.773065664887     0.984593635403
    F            1.486922936591    -0.169026403445     1.060774998773
    F           -1.089316421445     0.847684128064    -2.014019501503
    F           -0.141883512907    -1.025234645949    -1.633124513802
    F            0.959521785801     0.791252552392    -1.432164726622

  Mulliken Charges: (a.u.)
   Center  Symbol    Alpha    Beta     Spin     Total
       1     H     0.26308  0.26308  0.00000  0.47384
       2     O     4.36908  4.36908  0.00000 -0.73816
       3     C     3.03640  3.03640  0.00000 -0.07280
       4     C     2.45303  2.45303  0.00000  1.09394
       5     C     2.43546  2.43546  0.00000  1.12908
       6     H     0.38743  0.38743  0.00000  0.22514
       7     F     4.68754  4.68754  0.00000 -0.37507
       8     F     4.67218  4.67218  0.00000 -0.34436
       9     F     4.66916  4.66916  0.00000 -0.33832
      10     F     4.67656  4.67656  0.00000 -0.35313
      11     F     4.67936  4.67936  0.00000 -0.35872
      12     F     4.67072  4.67072  0.00000 -0.34145

   Total alpha = 41.00000, Total beta = 41.00000, Total charge = -0.00000
