                              Psi4 1.0.54 Driver

  ==> Input File <==

--------------------------------------------------------------------------
set {
	reference rhf
	basis cc-pvtz
}

set_num_threads( 4 )
memory 2 gb

molecule MOL {
0 1

H	 -3.628770	 -0.347547	 -0.500661
O	 -2.796594	 -0.010169	 -0.775793
C	 -2.021813	 0.336996	 0.342658
C	 -0.669613	 0.837286	 -0.127252
H	 -2.517577	 1.115288	 0.917292
H	 -1.891866	 -0.523213	 0.996522
C	 0.490865	 -0.082543	 0.241244
H	 -0.708709	 0.967192	 -1.204587
H	 -0.507562	 1.822272	 0.303070
C	 1.839800	 0.429565	 -0.255472
H	 0.305636	 -1.070211	 -0.165276
H	 0.527397	 -0.195943	 1.322876
C	 3.001144	 -0.485193	 0.119072
H	 1.804373	 0.541073	 -1.335756
H	 2.020437	 1.423114	 0.146921
H	 2.866892	 -1.477297	 -0.298806
H	 3.943543	 -0.095749	 -0.249061
H	 3.085064	 -0.590459	 1.195790

	symmetry c1
}
set optking {
	frozen_dihedral = ("
		2 3 4 8
	")
}

ee,wfn = optimize('scf', return_wfn=True)
oeprop( wfn, 'DIPOLE', 'QUADRUPOLE', 'MULLIKEN_CHARGES')
f=open( 'psi4out.xyz', 'w' )
f.write( "18  " )
f.write( str(ee) + "\n" )
f.write( MOL.save_string_xyz() )
f.close()
--------------------------------------------------------------------------

    Molecular point group: c1
  Charge       = 0
  Multiplicity = 1
  Basis Set: CC-PVTZ
  Basis Set:
  @DF-RHF Final Energy:  -271.28118993253594
    Total Energy =                       -271.2811899325362219
    Molecular point group: c1
  Basis Set: CC-PVTZ
  Basis Set:
  Basis Set: CC-PVTZ
  Basis Set:
  @DF-RHF Final Energy:  -271.28153884838883
    Total Energy =                       -271.2815388483887773
  Basis Set: CC-PVTZ
  Basis Set:
  Basis Set: CC-PVTZ
  Basis Set:
  @DF-RHF Final Energy:  -271.28160687873503
    Total Energy =                       -271.2816068787351469
  Basis Set: CC-PVTZ
  Basis Set:
  Basis Set: CC-PVTZ
  Basis Set:
  @DF-RHF Final Energy:  -271.28160875767821
    Total Energy =                       -271.2816087576782706
  Basis Set: CC-PVTZ
  Basis Set:
  Charge       = 0
  Multiplicity = 1
  Basis Set: CC-PVTZ
  Basis Set:

    Orbital Energies (a.u.)
    -----------------------

    Doubly Occupied:

       1A    -20.545347     2A    -11.265519     3A    -11.211648
       4A    -11.210776     5A    -11.209214     6A    -11.205323
       7A     -1.362333     8A     -1.078781     9A     -1.009428
      10A     -0.913729    11A     -0.820905    12A     -0.790253
      13A     -0.705118    14A     -0.643172    15A     -0.629643
      16A     -0.581583    17A     -0.572490    18A     -0.561852
      19A     -0.527996    20A     -0.498430    21A     -0.490209
      22A     -0.469537    23A     -0.462903    24A     -0.454440
      25A     -0.427977

  @DF-RHF Final Energy:  -271.28160931643555

   => Energetics <=

    Nuclear Repulsion Energy =            246.5768640003315681
    One-Electron Energy =                -856.4197285738639494
    Two-Electron Energy =                 338.5612552570968319
    DFT Exchange-Correlation Energy =       0.0000000000000000
    Empirical Dispersion Energy =           0.0000000000000000
    PCM Polarization Energy =               0.0000000000000000
    EFP Energy =                            0.0000000000000000
    Total Energy =                       -271.2816093164354925
    Molecular point group: c1
  Basis Set: CC-PVTZ
  Basis Set:

  -Total Gradient:
     Atom            X                  Y                   Z
    ------   -----------------  -----------------  -----------------
       1       -0.000052064734    -0.000022227191    -0.000035076851
       2       -0.000651655227     0.001609814871     0.000003464325
       3        0.001087860743    -0.002465469811     0.000056814765
       4       -0.001018668145     0.003006168077     0.000248664168
       5       -0.000019922232     0.000000559180    -0.000015516621
       6       -0.000015348404    -0.000004425023    -0.000022836875
       7       -0.000026318799    -0.000010330344    -0.000020757465
       8        0.000714740609    -0.002113633506    -0.000263045815
       9       -0.000044266575    -0.000022250709     0.000036207474
      10        0.000008072240    -0.000003823924     0.000003131623
      11       -0.000008525503     0.000014705324    -0.000001392729
      12       -0.000008784974    -0.000005850724     0.000001539313
      13        0.000015922663     0.000012787553     0.000005456987
      14       -0.000001196200    -0.000005701619     0.000005296738
      15        0.000011844975     0.000009831734    -0.000004439907
      16       -0.000003394462     0.000005913604    -0.000000657529
      17        0.000010927384    -0.000002935313     0.000003561965
      18        0.000000776636    -0.000003132178    -0.000000413565

  **** Optimization is complete! (in 5 steps) ****
    Final optimized geometry and variables:
    Molecular point group: c1

    Geometry (in Angstrom), charge = 0, multiplicity = 1:

    H           -3.530282274240    -0.534209401505    -0.385648050818
    O           -2.705191506734    -0.179588648916    -0.661736430782
    C           -1.939771067698     0.186305371187     0.459801062760
    C           -0.579603414444     0.703475602657    -0.015987629432
    H           -2.460320060714     0.955279025613     1.023492269365
    H           -1.809087995181    -0.667130975183     1.119631686079
    C            0.582187118533    -0.227985311973     0.323986828998
    H           -0.636725706323     0.816341131315    -1.091826474457
    H           -0.388506853941     1.686084995872     0.401720501133
    C            1.926089196425     0.269231899262    -0.198980443240
    H            0.377609279316    -1.213400846885    -0.087318472959
    H            0.643107801768    -0.353490478200     1.402885690611
    C            3.084859560318    -0.660932076685     0.144297987000
    H            1.867493700578     0.389364365195    -1.277140403531
    H            2.125738201908     1.257667982656     0.206422137971
    H            2.931135171632    -1.648818669738    -0.277026876660
    H            4.023025132996    -0.279397864581    -0.242102896193
    H            3.191415600565    -0.774067743557     1.218176707908

  Mulliken Charges: (a.u.)
   Center  Symbol    Alpha    Beta     Spin     Total
       1     H     0.39542  0.39542  0.00000  0.20916
       2     O     4.19827  4.19827  0.00000 -0.39654
       3     C     2.96591  2.96591  0.00000  0.06817
       4     C     3.09081  3.09081  0.00000 -0.18162
       5     H     0.47184  0.47184  0.00000  0.05632
       6     H     0.47532  0.47532  0.00000  0.04936
       7     C     3.09303  3.09303  0.00000 -0.18606
       8     H     0.44615  0.44615  0.00000  0.10769
       9     H     0.45214  0.45214  0.00000  0.09573
      10     C     3.08537  3.08537  0.00000 -0.17073
      11     H     0.45100  0.45100  0.00000  0.09801
      12     H     0.45720  0.45720  0.00000  0.08561
      13     C     3.14976  3.14976  0.00000 -0.29951
      14     H     0.45303  0.45303  0.00000  0.09395
      15     H     0.45541  0.45541  0.00000  0.08917
      16     H     0.45481  0.45481  0.00000  0.09038
      17     H     0.44863  0.44863  0.00000  0.10274
      18     H     0.45592  0.45592  0.00000  0.08816

   Total alpha = 25.00000, Total beta = 25.00000, Total charge =  0.00000

*** Psi4 exiting successfully. Buy a developer a beer!
