  ==> Input File <==

--------------------------------------------------------------------------
set {
	reference rhf
	basis cc-pvtz
}

set_num_threads( 4 )
memory 2 gb

molecule MOL {
0 1

H	 -3.162190	 0.493205	 -0.000107
C	 -2.363908	 -0.234727	 0.000005
O	 -1.158738	 0.454634	 -0.000087
H	 -2.464314	 -0.863616	 -0.882153
H	 -2.464327	 -0.863359	 0.882345
C	 -0.028611	 -0.359694	 0.000037
C	 -0.254325	 -1.526974	 -0.939592
H	 0.170744	 -0.722400	 1.008670
H	 0.844514	 0.212457	 -0.314507
C	 0.942887	 -2.469251	 -0.995727
H	 -1.138375	 -2.065080	 -0.615828
H	 -0.469906	 -1.137652	 -1.928483
H	 1.161258	 -2.889662	 -0.019686
H	 0.754706	 -3.292945	 -1.673323
H	 1.834111	 -1.956120	 -1.341393

	symmetry c1
}
set optking {
	frozen_dihedral = ("
		8 6 3 2
	")
}

ee = optimize('scf')
oeprop('DIPOLE', 'QUADRUPOLE', 'MULLIKEN_CHARGES')
f=open( 'psi4out.xyz', 'w' )
f.write( "15  " )
f.write( str(ee) + "\n" )
f.write( MOL.save_string_xyz() )
f.close()
--------------------------------------------------------------------------

    Molecular point group: c1
  Charge       = 0
  Multiplicity = 1
  Basis Set: CC-PVTZ
  Basis Set:
  @DF-RHF Final Energy:  -232.21292863361435
    Total Energy =                       -232.2129286336144105
    Molecular point group: c1
  Basis Set: CC-PVTZ
  Basis Set:
  Basis Set: CC-PVTZ
  Basis Set:
  @DF-RHF Final Energy:  -232.21314751474793
    Total Energy =                       -232.2131475147479591
  Basis Set: CC-PVTZ
  Basis Set:
  Basis Set: CC-PVTZ
  Basis Set:
  @DF-RHF Final Energy:  -232.21976507530428
    Total Energy =                       -232.2197650753042240
  Basis Set: CC-PVTZ
  Basis Set:
  Basis Set: CC-PVTZ
  Basis Set:
  @DF-RHF Final Energy:  -232.22220569599435
    Total Energy =                       -232.2222056959944894
  Basis Set: CC-PVTZ
  Basis Set:
  Basis Set: CC-PVTZ
  Basis Set:
  @DF-RHF Final Energy:  -232.22256560226012
    Total Energy =                       -232.2225656022600333
  Basis Set: CC-PVTZ
  Basis Set:
  Basis Set: CC-PVTZ
  Basis Set:
  @DF-RHF Final Energy:  -232.22267281852822
    Total Energy =                       -232.2226728185281672
  Basis Set: CC-PVTZ
  Basis Set:
  Basis Set: CC-PVTZ
  Basis Set:
  @DF-RHF Final Energy:  -232.22268306404322
    Total Energy =                       -232.2226830640432240
  Basis Set: CC-PVTZ
  Basis Set:
  Charge       = 0
  Multiplicity = 1
  Basis Set: CC-PVTZ
  Basis Set:

    Orbital Energies (a.u.)
    -----------------------

    Doubly Occupied:

       1A    -20.544342     2A    -11.264055     3A    -11.260203
       4A    -11.218518     5A    -11.214406     6A     -1.375457
       7A     -1.059156     8A     -0.961846     9A     -0.885717
      10A     -0.800876    11A     -0.671547    12A     -0.660811
      13A     -0.631789    14A     -0.606426    15A     -0.563417
      16A     -0.532001    17A     -0.526867    18A     -0.499641
      19A     -0.489120    20A     -0.449190    21A     -0.409428

  @DF-RHF Final Energy:  -232.22268396789522

   => Energetics <=

    Nuclear Repulsion Energy =            192.3743586021718386
    One-Electron Energy =                -695.9444566117906561
    Two-Electron Energy =                 271.3474140417235390
    DFT Exchange-Correlation Energy =       0.0000000000000000
    Empirical Dispersion Energy =           0.0000000000000000
    PCM Polarization Energy =               0.0000000000000000
    EFP Energy =                            0.0000000000000000
    Total Energy =                       -232.2226839678953070
    Molecular point group: c1
  Basis Set: CC-PVTZ
  Basis Set:

  -Total Gradient:
     Atom            X                  Y                   Z
    ------   -----------------  -----------------  -----------------
       1       -0.000023440339    -0.000010063006    -0.000009240875
       2       -0.000164338908    -0.000100402248    -0.003789242428
       3        0.000871289287     0.001077144273     0.005643364344
       4        0.000008374659     0.000006330124     0.000019943353
       5        0.000022312449    -0.000012442236     0.000005718513
       6       -0.003646438926    -0.004329148097    -0.002447411494
       7        0.000008988790    -0.000007523540     0.000033303598
       8        0.002883632865     0.003383767444     0.000541297013
       9        0.000046816809    -0.000044224275    -0.000014341934
      10        0.000001839101     0.000005685059     0.000001315647
      11       -0.000001706523     0.000014508349     0.000011167501
      12       -0.000005534115     0.000013550642     0.000004766873
      13       -0.000002295310    -0.000000274914    -0.000001722828
      14       -0.000002362736     0.000003079102    -0.000000652579
      15        0.000002862897     0.000000013329     0.000001735298

  **** Optimization is complete! (in 8 steps) ****
    Final optimized geometry and variables:
    Molecular point group: c1

    Geometry (in Angstrom), charge = 0, multiplicity = 1:

    H           -2.539197085056     1.574451620626     0.569441732479
    C           -1.860777784838     0.745573934716     0.426152295010
    O           -0.576040326547     1.272988343089     0.364270871314
    H           -2.138771792054     0.228729946688    -0.486089814041
    H           -1.977171439355     0.058450252520     1.262502662677
    C            0.495045832538     0.374044450155     0.364129554992
    C            0.373857935203    -0.814494632043    -0.578169232163
    H            0.693879591910     0.040910796713     1.383212782892
    H            1.355173205063     0.963615931689     0.069978454886
    C            1.668327290983    -1.620949664293    -0.619074356164
    H           -0.439170318086    -1.463232737076    -0.272442973792
    H            0.133700879305    -0.452470435617    -1.573033170832
    H            1.927104884133    -1.998876157349     0.364357173170
    H            1.574524065966    -2.470956665824    -1.283773233371
    H            2.497692767943    -1.016557636688    -0.969772987620

  Mulliken Charges: (a.u.)
   Center  Symbol    Alpha    Beta     Spin     Total
       1     H     0.44368  0.44368  0.00000  0.11265
       2     C     3.03649  3.03649  0.00000 -0.07297
       3     O     4.17629  4.17629  0.00000 -0.35258
       4     H     0.46832  0.46832  0.00000  0.06335
       5     H     0.47293  0.47293  0.00000  0.05414
       6     C     2.97179  2.97179  0.00000  0.05642
       7     C     3.09745  3.09745  0.00000 -0.19490
       8     H     0.46947  0.46947  0.00000  0.06105
       9     H     0.45449  0.45449  0.00000  0.09102
      10     C     3.15239  3.15239  0.00000 -0.30478
      11     H     0.45329  0.45329  0.00000  0.09341
      12     H     0.44892  0.44892  0.00000  0.10216
      13     H     0.45472  0.45472  0.00000  0.09057
      14     H     0.44657  0.44657  0.00000  0.10686
      15     H     0.45319  0.45319  0.00000  0.09361

   Total alpha = 21.00000, Total beta = 21.00000, Total charge = -0.00000
