  ==> Input File <==

--------------------------------------------------------------------------
set {
	reference rhf
	basis 6-31G*
}

set_num_threads( 4 )
memory 2 gb

molecule MOL {
0 1

O	 -1.276010	 1.052711	 -0.768302
C	 -1.204840	 0.067374	 -0.106123
C	 -2.388195	 -0.672128	 0.458071
O	 -0.067104	 -0.527208	 0.221609
H	 -2.388023	 -1.694060	 0.097175
H	 -3.300579	 -0.174919	 0.164318
H	 -2.315377	 -0.706351	 1.539059
C	 -0.092672	 -1.900882	 0.634276
C	 1.132669	 -2.096159	 1.509486
C	 -0.101206	 -2.804646	 -0.588746
H	 -0.992618	 -2.057459	 1.210548
H	 1.107381	 -1.423500	 2.359273
H	 1.168779	 -3.115360	 1.879968
H	 2.040091	 -1.903006	 0.947408
H	 -0.097300	 -3.846091	 -0.283143
H	 -0.986335	 -2.631887	 -1.187642
H	 0.777652	 -2.624321	 -1.199565

	symmetry c1
}
set optking {
	frozen_dihedral = ("
		8 4 2 1
	")
}

ee = optimize('scf')
oeprop('DIPOLE', 'QUADRUPOLE', 'MULLIKEN_CHARGES')
f=open( 'psi4out.xyz', 'w' )
f.write( "17  " )
f.write( str(ee) + "\n" )
f.write( MOL.save_string_xyz() )
f.close()
--------------------------------------------------------------------------

    Molecular point group: c1
  Charge       = 0
  Multiplicity = 1
  Basis Set: 6-31G*
  Basis Set:
  @DF-RHF Final Energy:  -344.88599474426138
    Total Energy =                       -344.8859947442616090
    Molecular point group: c1
  Basis Set: 6-31G*
  Basis Set:
  Basis Set: 6-31G*
  Basis Set:
  @DF-RHF Final Energy:  -344.89428482328373
    Total Energy =                       -344.8942848232835559
  Basis Set: 6-31G*
  Basis Set:
  Basis Set: 6-31G*
  Basis Set:
  @DF-RHF Final Energy:  -344.89753592743443
    Total Energy =                       -344.8975359274345465
  Basis Set: 6-31G*
  Basis Set:
  Basis Set: 6-31G*
  Basis Set:
  @DF-RHF Final Energy:  -344.89854140442219
    Total Energy =                       -344.8985414044227014
  Basis Set: 6-31G*
  Basis Set:
  @DF-RHF Final Energy:  -344.89876918345823
    Total Energy =                       -344.8987691834582847
  Basis Set: 6-31G*
  Basis Set:
  @DF-RHF Final Energy:  -344.89904814630108
    Total Energy =                       -344.8990481463008564
  Basis Set: 6-31G*
  Basis Set:
  Basis Set: 6-31G*
  Basis Set:
  @DF-RHF Final Energy:  -344.89906503316371
    Total Energy =                       -344.8990650331634242
  Basis Set: 6-31G*
  Basis Set:
  Basis Set: 6-31G*
  Basis Set:
  @DF-RHF Final Energy:  -344.89906763709604
    Total Energy =                       -344.8990676370960955
  Basis Set: 6-31G*
  Basis Set:
  Charge       = 0
  Multiplicity = 1
  Basis Set: 6-31G*
  Basis Set:

    Orbital Energies (a.u.)
    -----------------------

    Doubly Occupied:

       1A    -20.595527     2A    -20.537934     3A    -11.375100
       4A    -11.304991     5A    -11.241521     6A    -11.229261
       7A    -11.225571     8A     -1.459721     9A     -1.362841
      10A     -1.078260    11A     -1.016655    12A     -0.957760
      13A     -0.861021    14A     -0.773248    15A     -0.698644
      16A     -0.667140    17A     -0.661614    18A     -0.623706
      19A     -0.595442    20A     -0.584581    21A     -0.562883
      22A     -0.556386    23A     -0.545632    24A     -0.531504
      25A     -0.508377    26A     -0.490128    27A     -0.440463
      28A     -0.431031

  @DF-RHF Final Energy:  -344.89906802463940

   => Energetics <=

    Nuclear Repulsion Energy =            322.4232936432105134
    One-Electron Energy =               -1108.8108400122673629
    Two-Electron Energy =                 441.4884783444175582
    DFT Exchange-Correlation Energy =       0.0000000000000000
    Empirical Dispersion Energy =           0.0000000000000000
    PCM Polarization Energy =               0.0000000000000000
    EFP Energy =                            0.0000000000000000
    Total Energy =                       -344.8990680246392913
    Molecular point group: c1
  Basis Set: 6-31G*
  Basis Set:

  -Total Gradient:
     Atom            X                  Y                   Z
    ------   -----------------  -----------------  -----------------
       1       -0.000081056504    -0.000713073230    -0.001052270975
       2        0.000195849526     0.000859893956     0.000869468679
       3       -0.000003390251     0.000004093591    -0.000007917248
       4       -0.000260029425     0.000160915708     0.001254390253
       5        0.000003039903    -0.000003915092     0.000001719215
       6        0.000005657097    -0.000008482798    -0.000008170616
       7        0.000001028919     0.000003577936     0.000006261809
       8        0.000163067671    -0.000336153752    -0.001039794843
       9       -0.000007555284     0.000031056980    -0.000021473167
      10        0.000009859783    -0.000017103070    -0.000018562943
      11       -0.000015712748     0.000001312475     0.000008195980
      12        0.000004411536    -0.000005400666     0.000001432363
      13        0.000000345336    -0.000002904815     0.000000680166
      14        0.000004291931    -0.000001366083     0.000003765035
      15       -0.000006467257     0.000020467495     0.000001773694
      16       -0.000007906981     0.000000202398    -0.000005416492
      17       -0.000005433252     0.000006878964     0.000005919092

  **** Optimization is complete! (in 9 steps) ****
    Final optimized geometry and variables:
    Molecular point group: c1

    Geometry (in Angstrom), charge = 0, multiplicity = 1:

    O           -0.630055339544     2.015637990599    -0.938052828089
    C           -0.682845835142     1.027558646465    -0.287490150351
    C           -1.992697174498     0.469875209517     0.225369982428
    O            0.446806987601     0.401531591052     0.046375362218
    H           -2.197985393941    -0.513125977133    -0.182290002419
    H           -2.778511867815     1.146364336885    -0.073791507350
    H           -1.979275667872     0.387944912246     1.306637766000
    C            0.523473661271    -0.961225410669     0.452848142805
    C            1.785575695129    -1.077477249329     1.290543192487
    C            0.552110595543    -1.860615417630    -0.775253880469
    H           -0.331587580032    -1.206818538191     1.070020415808
    H            1.733984940252    -0.416118861134     2.147411133919
    H            1.911208117065    -2.095133394326     1.645321972061
    H            2.654187299736    -0.805187698723     0.702031794362
    H            0.633205042142    -2.901693210278    -0.480087255829
    H           -0.348225319778    -1.749925806227    -1.370676506275
    H            1.401175622870    -1.609717175454    -1.400801972098

  Mulliken Charges: (a.u.)
   Center  Symbol    Alpha    Beta     Spin     Total
       1     O     4.26559  4.26559  0.00000 -0.53118
       2     C     2.61295  2.61295  0.00000  0.77411
       3     C     3.31018  3.31018  0.00000 -0.62035
       4     O     4.30893  4.30893  0.00000 -0.61787
       5     H     0.40394  0.40394  0.00000  0.19213
       6     H     0.38771  0.38771  0.00000  0.22458
       7     H     0.40226  0.40226  0.00000  0.19549
       8     C     2.93005  2.93005  0.00000  0.13989
       9     C     3.23962  3.23962  0.00000 -0.47924
      10     C     3.24545  3.24545  0.00000 -0.49090
      11     H     0.41740  0.41740  0.00000  0.16520
      12     H     0.40986  0.40986  0.00000  0.18029
      13     H     0.41876  0.41876  0.00000  0.16248
      14     H     0.40802  0.40802  0.00000  0.18396
      15     H     0.41677  0.41677  0.00000  0.16646
      16     H     0.41650  0.41650  0.00000  0.16701
      17     H     0.40602  0.40602  0.00000  0.18795

   Total alpha = 28.00000, Total beta = 28.00000, Total charge = -0.00000
