  ==> Input File <==

--------------------------------------------------------------------------
set {
	reference rhf
	basis 6-31G*
}

set_num_threads( 4 )
memory 2 gb

molecule MOL {
0 1

O	 -2.533059	 0.917162	 -1.384828
C	 -2.515705	 -0.077959	 -0.733637
C	 -3.665674	 -1.048673	 -0.652686
O	 -1.481751	 -0.454642	 0.000584
H	 -3.892247	 -1.403672	 -1.650936
H	 -3.442138	 -1.885283	 -0.007275
H	 -4.539237	 -0.523313	 -0.285582
C	 -0.334255	 0.388708	 0.000906
C	 0.891947	 -0.504646	 0.000751
H	 -0.365390	 1.025305	 -0.873475
H	 -0.365484	 1.024911	 0.875569
C	 2.191998	 0.301789	 0.000897
H	 0.855148	 -1.151283	 -0.871571
H	 0.855132	 -1.151660	 0.872805
C	 3.441114	 -0.581407	 0.000108
H	 2.215074	 0.954890	 -0.869742
H	 2.215465	 0.953923	 0.872248
C	 4.739576	 0.224112	 -0.001102
H	 3.419457	 -1.233487	 -0.870178
H	 3.420834	 -1.233096	 0.870717
H	 4.804918	 0.861552	 -0.878265
H	 5.606527	 -0.429058	 -0.001824
H	 4.806469	 0.861674	 0.875853

	symmetry c1
}
set optking {
	frozen_dihedral = ("
		2 4 8 10
	")
}

ee = optimize('scf')
oeprop('DIPOLE', 'QUADRUPOLE', 'MULLIKEN_CHARGES')
f=open( 'psi4out.xyz', 'w' )
f.write( "23  " )
f.write( str(ee) + "\n" )
f.write( MOL.save_string_xyz() )
f.close()
--------------------------------------------------------------------------

    Molecular point group: c1
  Charge       = 0
  Multiplicity = 1
  Basis Set: 6-31G*
  Basis Set:
  @DF-RHF Final Energy:  -422.97751012452949
    Total Energy =                       -422.9775101245299993
    Molecular point group: c1
  Basis Set: 6-31G*
  Basis Set:
  Basis Set: 6-31G*
  Basis Set:
  @DF-RHF Final Energy:  -422.97767503137584
    Total Energy =                       -422.9776750313760658
  Basis Set: 6-31G*
  Basis Set:
  Basis Set: 6-31G*
  Basis Set:
  @DF-RHF Final Energy:  -422.97792223985567
    Total Energy =                       -422.9779222398558431
  Basis Set: 6-31G*
  Basis Set:
  Basis Set: 6-31G*
  Basis Set:
  @DF-RHF Final Energy:  -422.97781573673501
    Total Energy =                       -422.9778157367355789
  Basis Set: 6-31G*
  Basis Set:
  Basis Set: 6-31G*
  Basis Set:
  @DF-RHF Final Energy:  -422.97800550499608
    Total Energy =                       -422.9780055049967586
  Basis Set: 6-31G*
  Basis Set:
  Charge       = 0
  Multiplicity = 1
  Basis Set: 6-31G*
  Basis Set:

    Orbital Energies (a.u.)
    -----------------------

    Doubly Occupied:

       1A    -20.602422     2A    -20.540065     3A    -11.375213
       4A    -11.280405     5A    -11.231908     6A    -11.224488
       7A    -11.223860     8A    -11.221714     9A    -11.212970
      10A     -1.465973    11A     -1.361176    12A     -1.094090
      13A     -1.042203    14A     -1.003130    15A     -0.931520
      16A     -0.844112    17A     -0.801804    18A     -0.773619
      19A     -0.695966    20A     -0.680739    21A     -0.664173
      22A     -0.647416    23A     -0.605753    24A     -0.588242
      25A     -0.583979    26A     -0.569841    27A     -0.555176
      28A     -0.537227    29A     -0.523391    30A     -0.506211
      31A     -0.490401    32A     -0.478161    33A     -0.472159
      34A     -0.470044    35A     -0.445250    36A     -0.433820

  @DF-RHF Final Energy:  -422.97800605698757

   => Energetics <=

    Nuclear Repulsion Energy =            450.0670388363292318
    One-Electron Energy =               -1467.7328496332365830
    Two-Electron Energy =                 594.6878047399201250
    DFT Exchange-Correlation Energy =       0.0000000000000000
    Empirical Dispersion Energy =           0.0000000000000000
    PCM Polarization Energy =               0.0000000000000000
    EFP Energy =                            0.0000000000000000
    Total Energy =                       -422.9780060569872830
    Molecular point group: c1
  Basis Set: 6-31G*
  Basis Set:

  -Total Gradient:
     Atom            X                  Y                   Z
    ------   -----------------  -----------------  -----------------
       1        0.000024445415    -0.000007918355     0.000052062766
       2        0.000367314988    -0.000542757494    -0.000927101660
       3       -0.000016092871     0.000009147163     0.000042629766
       4       -0.000662540026     0.001091940937     0.001474888813
       5        0.000008028956    -0.000018288257    -0.000006520784
       6       -0.000000107537    -0.000001002810    -0.000003627924
       7        0.000003931601     0.000001447155    -0.000021736393
       8        0.000896875312    -0.001399785994    -0.001262901141
       9        0.000023463140     0.000003130567     0.000012095256
      10       -0.000618040442     0.000886124995     0.000647642489
      11       -0.000038057532    -0.000018880611     0.000003678075
      12        0.000006449891    -0.000010824153    -0.000006250433
      13       -0.000006547057     0.000012782203     0.000000258569
      14        0.000004488641    -0.000009660425    -0.000002477099
      15        0.000005080559     0.000003345442     0.000003090710
      16        0.000003222697    -0.000002741548    -0.000008234723
      17        0.000000187151     0.000003010356    -0.000005969009
      18        0.000000290196    -0.000001043490     0.000009096364
      19       -0.000000559472     0.000006146279    -0.000001586202
      20       -0.000001775745    -0.000004724319    -0.000001049568
      21       -0.000001472012    -0.000001841232    -0.000000509950
      22       -0.000000540151     0.000000001081     0.000001725630
      23        0.000001954297     0.000002392512     0.000000796451

  **** Optimization is complete! (in 6 steps) ****
    Final optimized geometry and variables:
    Molecular point group: c1

    Geometry (in Angstrom), charge = 0, multiplicity = 1:

    O           -2.676760407845     1.015419191246    -1.059478965403
    C           -2.605450426489     0.019780704253    -0.413035252222
    C           -3.726601314848    -0.981121613569    -0.297709003970
    O           -1.541768906835    -0.338737328601     0.288707430953
    H           -3.982843425274    -1.331460299883    -1.290426598275
    H           -3.457685593521    -1.817856769815     0.329832012623
    H           -4.597986621072    -0.481169008226     0.108049207712
    C           -0.378216048354     0.484403273860     0.261523737569
    C            0.844368419793    -0.415314544739     0.275742580556
    H           -0.408446112614     1.119224525182    -0.609811215893
    H           -0.406573569463     1.118315259938     1.140089535556
    C            2.147696240020     0.385120801624     0.308343876775
    H            0.820122012050    -1.051465072852    -0.605014213764
    H            0.789184200005    -1.072179879948     1.139300810852
    C            3.393073194624    -0.503235572913     0.320664585367
    H            2.189165158447     1.047927340176    -0.554208178409
    H            2.157962160645     1.027135573086     1.187565702042
    C            4.694429100130     0.296821332087     0.356403035284
    H            3.386316604480    -1.143262679615    -0.558723637568
    H            3.352632913277    -1.166569758157     1.181747345548
    H            4.779868729142     0.945705198986    -0.510557164987
    H            5.558621914316    -0.359932007890     0.364190768011
    H            4.746286540857     0.922220811054     1.243115419590

  Mulliken Charges: (a.u.)
   Center  Symbol    Alpha    Beta     Spin     Total
       1     O     4.28350  4.28350  0.00000 -0.56699
       2     C     2.61559  2.61559  0.00000  0.76881
       3     C     3.28828  3.28828  0.00000 -0.57656
       4     O     4.31338  4.31338  0.00000 -0.62677
       5     H     0.39777  0.39777  0.00000  0.20445
       6     H     0.39995  0.39995  0.00000  0.20010
       7     H     0.39751  0.39751  0.00000  0.20498
       8     C     3.00254  3.00254  0.00000 -0.00509
       9     C     3.16329  3.16329  0.00000 -0.32659
      10     H     0.39696  0.39696  0.00000  0.20608
      11     H     0.41588  0.41588  0.00000  0.16823
      12     C     3.16070  3.16070  0.00000 -0.32139
      13     H     0.41560  0.41560  0.00000  0.16880
      14     H     0.41405  0.41405  0.00000  0.17191
      15     C     3.15139  3.15139  0.00000 -0.30279
      16     H     0.41998  0.41998  0.00000  0.16003
      17     H     0.42142  0.42142  0.00000  0.15716
      18     C     3.23990  3.23990  0.00000 -0.47979
      19     H     0.42118  0.42118  0.00000  0.15764
      20     H     0.42145  0.42145  0.00000  0.15709
      21     H     0.42063  0.42063  0.00000  0.15875
      22     H     0.41797  0.41797  0.00000  0.16407
      23     H     0.42107  0.42107  0.00000  0.15786

   Total alpha = 36.00000, Total beta = 36.00000, Total charge = -0.00000
