  ==> Input File <==

--------------------------------------------------------------------------
set {
	reference rhf
	basis cc-pvtz
}

set_num_threads( 4 )
memory 2 gb

molecule MOL {
0 1

O	 -2.440701	 -0.934798	 -0.415053
C	 -1.922978	 0.063265	 -0.045005
C	 -2.632749	 1.372204	 0.158357
O	 -0.637375	 0.157174	 0.243149
H	 -2.187724	 2.129143	 -0.474664
H	 -3.677681	 1.257276	 -0.079438
H	 -2.516788	 1.693160	 1.185542
C	 0.162530	 -1.009518	 0.097799
C	 1.587210	 -0.664190	 0.477086
H	 0.096803	 -1.356267	 -0.924704
H	 -0.233803	 -1.785900	 0.736810
C	 2.256770	 0.342732	 -0.454344
H	 2.154716	 -1.590834	 0.479041
H	 1.598751	 -0.289614	 1.496104
C	 1.461018	 0.580213	 -1.733406
H	 2.383978	 1.285024	 0.071967
H	 3.251561	 -0.006433	 -0.705972
H	 1.955942	 1.301042	 -2.373594
H	 0.468165	 0.959340	 -1.514551
H	 1.345578	 -0.338776	 -2.298339

	symmetry c1
}
set optking {
	frozen_dihedral = ("
		16 12 9 8
	")
}

ee = optimize('scf')
oeprop('DIPOLE', 'QUADRUPOLE', 'MULLIKEN_CHARGES')
f=open( 'psi4out.xyz', 'w' )
f.write( "20  " )
f.write( str(ee) + "\n" )
f.write( MOL.save_string_xyz() )
f.close()
--------------------------------------------------------------------------

    Molecular point group: c1
  Charge       = 0
  Multiplicity = 1
  Basis Set: CC-PVTZ
  Basis Set:
  @DF-RHF Final Energy:  -384.07376189547892
    Total Energy =                       -384.0737618954785830
    Molecular point group: c1
  Basis Set: CC-PVTZ
  Basis Set:
  Basis Set: CC-PVTZ
  Basis Set:
  @DF-RHF Final Energy:  -384.07777113762648
    Total Energy =                       -384.0777711376262005
  Basis Set: CC-PVTZ
  Basis Set:
  Basis Set: CC-PVTZ
  Basis Set:
  @DF-RHF Final Energy:  -384.07881984598271
    Total Energy =                       -384.0788198459827072
  Basis Set: CC-PVTZ
  Basis Set:
  Basis Set: CC-PVTZ
  Basis Set:
  @DF-RHF Final Energy:  -384.07682865081347
    Total Energy =                       -384.0768286508139226
  Basis Set: CC-PVTZ
  Basis Set:
  Basis Set: CC-PVTZ
  Basis Set:
  @DF-RHF Final Energy:  -384.07907893492609
    Total Energy =                       -384.0790789349260876
  Basis Set: CC-PVTZ
  Basis Set:
  Basis Set: CC-PVTZ
  Basis Set:
  @DF-RHF Final Energy:  -384.07910845240008
    Total Energy =                       -384.0791084523995096
  Basis Set: CC-PVTZ
  Basis Set:
  Basis Set: CC-PVTZ
  Basis Set:
  @DF-RHF Final Energy:  -384.07911107967857
    Total Energy =                       -384.0791110796789098
  Basis Set: CC-PVTZ
  Basis Set:
  Charge       = 0
  Multiplicity = 1
  Basis Set: CC-PVTZ
  Basis Set:

    Orbital Energies (a.u.)
    -----------------------

    Doubly Occupied:

       1A    -20.593681     2A    -20.532484     3A    -11.366344
       4A    -11.279617     5A    -11.231584     6A    -11.224252
       7A    -11.220587     8A    -11.210582     9A     -1.470426
      10A     -1.364631    11A     -1.083483    12A     -1.026886
      13A     -0.980688    14A     -0.894456    15A     -0.803198
      16A     -0.772762    17A     -0.692631    18A     -0.690889
      19A     -0.665767    20A     -0.627815    21A     -0.615085
      22A     -0.580751    23A     -0.571345    24A     -0.560564
      25A     -0.542457    26A     -0.529201    27A     -0.523469
      28A     -0.480326    29A     -0.472545    30A     -0.468890
      31A     -0.451184    32A     -0.440536

  @DF-RHF Final Energy:  -384.07911267423492

   => Energetics <=

    Nuclear Repulsion Energy =            394.0244340199604949
    One-Electron Energy =               -1304.2688612644749355
    Two-Electron Energy =                 526.1653145702794063
    DFT Exchange-Correlation Energy =       0.0000000000000000
    Empirical Dispersion Energy =           0.0000000000000000
    PCM Polarization Energy =               0.0000000000000000
    EFP Energy =                            0.0000000000000000
    Total Energy =                       -384.0791126742350343
    Molecular point group: c1
  Basis Set: CC-PVTZ
  Basis Set:

  -Total Gradient:
     Atom            X                  Y                   Z
    ------   -----------------  -----------------  -----------------
       1        0.000014820326     0.000016302924     0.000017643356
       2       -0.000022038304    -0.000015851246    -0.000022339084
       3        0.000005397243    -0.000001039705    -0.000007569800
       4        0.000032206997    -0.000022530246    -0.000013729046
       5        0.000001125514     0.000000519562     0.000005670954
       6       -0.000000736154     0.000000788436     0.000002066099
       7       -0.000001864321    -0.000002683659     0.000003656001
       8        0.001310335061    -0.003090983723    -0.002189070139
       9       -0.000888730414     0.004150788605     0.003652454068
      10        0.000002238376     0.000000454034     0.000002659259
      11        0.000007689839    -0.000010613165     0.000000879686
      12       -0.005113831918     0.000694964285    -0.003378822592
      13       -0.000003461432    -0.000000959123    -0.000000482465
      14        0.000007742645     0.000000611843     0.000003671690
      15        0.000004509610     0.000001532943    -0.000002345449
      16        0.004630148276    -0.001720214910     0.001941953917
      17        0.000004143524     0.000002419302    -0.000011039409
      18       -0.000007757492     0.000000181518     0.000000354754
      19        0.000019211741    -0.000000705360     0.000001110252
      20       -0.000001149120    -0.000002982316    -0.000006722050

  **** Optimization is complete! (in 8 steps) ****
    Final optimized geometry and variables:
    Molecular point group: c1

    Geometry (in Angstrom), charge = 0, multiplicity = 1:

    O           -2.207434028440    -0.961832348500    -0.100773873198
    C           -1.697381197292     0.051040362939     0.238662146631
    C           -2.429156277414     1.343275743386     0.467923800747
    O           -0.402023437798     0.177703290623     0.463170950618
    H           -2.038453257904     2.104692989363    -0.194915457036
    H           -3.481929942784     1.199467363576     0.287182356809
    H           -2.266806217169     1.677848371315     1.484326372064
    C            0.417037557657    -0.974406034872     0.291776985894
    C            1.844103039216    -0.616307986565     0.651346785294
    H            0.324316884003    -1.325276997946    -0.724761507153
    H            0.053391319946    -1.756518895493     0.942855456553
    C            2.597303307537     0.361465221548    -0.282705512445
    H            2.380075456174    -1.560366487326     0.674381517314
    H            1.858314781084    -0.237514029710     1.666152702273
    C            2.009136232187     0.597009605205    -1.670522832425
    H            2.736319719986     1.307475092616     0.227950885316
    H            3.604424161343    -0.023304112873    -0.409460363304
    H            2.646554180915     1.271184475966    -2.230501530943
    H            1.022361916442     1.038185624934    -1.623758433540
    H            1.938289233937    -0.325095448202    -2.237012316381

  Mulliken Charges: (a.u.)
   Center  Symbol    Alpha    Beta     Spin     Total
       1     O     4.19695  4.19695  0.00000 -0.39390
       2     C     2.81005  2.81005  0.00000  0.37991
       3     C     3.13809  3.13809  0.00000 -0.27617
       4     O     4.15813  4.15813  0.00000 -0.31626
       5     H     0.44636  0.44636  0.00000  0.10728
       6     H     0.43786  0.43786  0.00000  0.12427
       7     H     0.44560  0.44560  0.00000  0.10880
       8     C     2.99617  2.99617  0.00000  0.00766
       9     C     3.09445  3.09445  0.00000 -0.18890
      10     H     0.44677  0.44677  0.00000  0.10645
      11     H     0.43780  0.43780  0.00000  0.12440
      12     C     3.08369  3.08369  0.00000 -0.16739
      13     H     0.45083  0.45083  0.00000  0.09834
      14     H     0.44842  0.44842  0.00000  0.10316
      15     C     3.15970  3.15970  0.00000 -0.31940
      16     H     0.45025  0.45025  0.00000  0.09950
      17     H     0.45178  0.45178  0.00000  0.09643
      18     H     0.44398  0.44398  0.00000  0.11204
      19     H     0.44993  0.44993  0.00000  0.10015
      20     H     0.45318  0.45318  0.00000  0.09364

   Total alpha = 32.00000, Total beta = 32.00000, Total charge = -0.00000
