  ==> Input File <==

--------------------------------------------------------------------------
set {
	reference rhf
	basis 6-31G*
}

set_num_threads( 1 )
memory 2 gb

molecule MOL {
0 1

H	 -3.261111	 -0.295142	 1.469456
C	 -3.306842	 -0.277400	 0.373456
C	 -2.660244	 0.921717	 -0.272021
O	 -3.838538	 -1.161155	 -0.216482
C	 -2.011052	 0.585133	 -1.621657
H	 -3.407211	 1.700630	 -0.372246
H	 -1.894087	 1.280172	 0.414396
C	 -3.021002	 0.199877	 -2.705575
H	 -1.438249	 1.446530	 -1.952074
H	 -1.292648	 -0.221822	 -1.485727
C	 -2.361015	 -0.121708	 -4.047892
H	 -3.731190	 1.013837	 -2.835763
H	 -3.604330	 -0.658640	 -2.378135
C	 -3.375060	 -0.490945	 -5.133860
H	 -1.771720	 0.735087	 -4.364697
H	 -1.659586	 -0.944624	 -3.916780
C	 -2.755333	 -0.901404	 -6.474581
H	 -4.052924	 0.346184	 -5.293266
H	 -3.988942	 -1.312904	 -4.771583
C	 -2.011338	 0.220424	 -7.200938
H	 -3.548676	 -1.268170	 -7.121139
H	 -2.080503	 -1.740392	 -6.317660
H	 -2.657833	 1.080017	 -7.357181
H	 -1.141645	 0.556903	 -6.646511
H	 -1.666370	 -0.113971	 -8.174679

	symmetry c1
}
set optking {
	frozen_dihedral = ("
		6 3 5 8,
		3 5 8 12,
		12 8 11 14,
		8 11 14 18,
		20 17 14 18
	")
}

ee = energy('scf')
oeprop('DIPOLE', 'QUADRUPOLE', 'MULLIKEN_CHARGES')
f=open( 'psi4out.xyz', 'w' )
f.write( "25  " )
f.write( str(ee) + "\n" )
f.write( MOL.save_string_xyz() )
f.close()
--------------------------------------------------------------------------

    Molecular point group: c1

    Geometry (in Angstrom), charge = 0, multiplicity = 1:

       Center              X                  Y                   Z               Mass
    ------------   -----------------  -----------------  -----------------  -----------------
           H         -0.443917835274    -0.175504243631     4.513795706113     1.007825032070
           C         -0.489648835274    -0.157762243631     3.417795706113    12.000000000000
           C          0.156949164726     1.041354756369     2.772318706113    12.000000000000
           O         -1.021344835274    -1.041517243631     2.827857706113    15.994914619560
           C          0.806141164726     0.704770756369     1.422682706113    12.000000000000
           H         -0.590017835274     1.820267756369     2.672093706113     1.007825032070
           H          0.923106164726     1.399809756369     3.458735706113     1.007825032070
           C         -0.203808835274     0.319514756369     0.338764706113    12.000000000000
           H          1.378944164726     1.566167756369     1.092265706113     1.007825032070
           H          1.524545164726    -0.102184243631     1.558612706113     1.007825032070
           C          0.456178164726    -0.002070243631    -1.003552293887    12.000000000000
           H         -0.913996835274     1.133474756369     0.208576706113     1.007825032070
           H         -0.787136835274    -0.539002243631     0.666204706113     1.007825032070
           C         -0.557866835274    -0.371307243631    -2.089520293887    12.000000000000
           H          1.045473164726     0.854724756369    -1.320357293887     1.007825032070
           H          1.157607164726    -0.824986243631    -0.872440293887     1.007825032070
           C          0.061860164726    -0.781766243631    -3.430241293887    12.000000000000
           H         -1.235730835274     0.465821756369    -2.248926293887     1.007825032070
           H         -1.171748835274    -1.193266243631    -1.727243293887     1.007825032070
           C          0.805855164726     0.340061756369    -4.156598293887    12.000000000000
           H         -0.731482835274    -1.148532243631    -4.076799293887     1.007825032070
           H          0.736690164726    -1.620754243631    -3.273320293887     1.007825032070
           H          0.159360164726     1.199654756369    -4.312841293887     1.007825032070
           H          1.675548164726     0.676540756369    -3.602171293887     1.007825032070
           H          1.150823164726     0.005666756369    -5.130339293887     1.007825032070

  Charge       = 0
  Multiplicity = 1
  Basis Set: 6-31G*
  Basis Set:

    Orbital Energies (a.u.)
    -----------------------

    Doubly Occupied:

       1A    -20.565184     2A    -11.330093     3A    -11.236946
       4A    -11.224857     5A    -11.210938     6A    -11.208166
       7A    -11.207441     8A    -11.204914     9A    -11.204023
      10A     -1.407298    11A     -1.092244    12A     -1.062387
      13A     -1.007322    14A     -0.939191    15A     -0.872919
      16A     -0.809873    17A     -0.777121    18A     -0.768598
      19A     -0.684810    20A     -0.656895    21A     -0.626512
      22A     -0.611538    23A     -0.604327    24A     -0.583632
      25A     -0.555406    26A     -0.551718    27A     -0.535727
      28A     -0.513149    29A     -0.502484    30A     -0.496294
      31A     -0.482032    32A     -0.470433    33A     -0.455179
      34A     -0.450323    35A     -0.433023    36A     -0.402783

  @DF-RHF Final Energy:  -387.11823672974009

   => Energetics <=

    Nuclear Repulsion Energy =            446.6672881713553238
    One-Electron Energy =               -1410.0796573016402817
    Two-Electron Energy =                 576.2941324005444130
    DFT Exchange-Correlation Energy =       0.0000000000000000
    Empirical Dispersion Energy =           0.0000000000000000
    PCM Polarization Energy =               0.0000000000000000
    EFP Energy =                            0.0000000000000000
    Total Energy =                       -387.1182367297406017

  Mulliken Charges: (a.u.)
   Center  Symbol    Alpha    Beta     Spin     Total
       1     H     0.42702  0.42702  0.00000  0.14595
       2     C     2.83962  2.83962  0.00000  0.32077
       3     C     3.21002  3.21002  0.00000 -0.42004
       4     O     4.23542  4.23542  0.00000 -0.47084
       5     C     3.15560  3.15560  0.00000 -0.31119
       6     H     0.40014  0.40014  0.00000  0.19971
       7     H     0.41210  0.41210  0.00000  0.17580
       8     C     3.16093  3.16093  0.00000 -0.32186
       9     H     0.41807  0.41807  0.00000  0.16385
      10     H     0.41754  0.41754  0.00000  0.16492
      11     C     3.15396  3.15396  0.00000 -0.30793
      12     H     0.42881  0.42881  0.00000  0.14237
      13     H     0.39179  0.39179  0.00000  0.21643
      14     C     3.15253  3.15253  0.00000 -0.30507
      15     H     0.42542  0.42542  0.00000  0.14916
      16     H     0.42440  0.42440  0.00000  0.15120
      17     C     3.15222  3.15222  0.00000 -0.30444
      18     H     0.42531  0.42531  0.00000  0.14938
      19     H     0.41981  0.41981  0.00000  0.16037
      20     C     3.24077  3.24077  0.00000 -0.48153
      21     H     0.42152  0.42152  0.00000  0.15696
      22     H     0.42344  0.42344  0.00000  0.15311
      23     H     0.42295  0.42295  0.00000  0.15410
      24     H     0.42055  0.42055  0.00000  0.15891
      25     H     0.42005  0.42005  0.00000  0.15990

   Total alpha = 36.00000, Total beta = 36.00000, Total charge = -0.00000
