                              Psi4 1.0.54 Driver

  ==> Input File <==

--------------------------------------------------------------------------
set {
	reference rhf
	basis cc-pvtz
}

set_num_threads( 4 )
memory 2 gb

molecule MOL {
0 1

H	 3.721907	 -0.933076	 -0.066039
O	 2.824271	 -1.154299	 0.131461
C	 2.076458	 -0.067370	 -0.038225
C	 0.626018	 -0.337582	 0.258241
O	 2.538288	 0.965419	 -0.381593
C	 -0.267326	 0.883135	 0.076490
H	 0.325620	 -1.161483	 -0.378003
H	 0.574537	 -0.713685	 1.275261
C	 -1.726822	 0.642622	 0.463839
H	 -0.210803	 1.217591	 -0.953497
H	 0.129920	 1.693110	 0.675679
C	 -2.480891	 -0.340606	 -0.429852
H	 -2.243098	 1.597649	 0.438609
H	 -1.776542	 0.301208	 1.495542
C	 -2.341272	 -1.786244	 0.036104
H	 -3.532951	 -0.068963	 -0.450171
H	 -2.125869	 -0.265529	 -1.452729
H	 -2.886376	 -2.462128	 -0.612530
H	 -2.725365	 -1.911439	 1.042829
H	 -1.301881	 -2.097388	 0.039174

	symmetry c1
}
set optking {
	frozen_dihedral = ("
		16 12 9 6
	")
}

ee,wfn = optimize('scf', return_wfn=True)
oeprop( wfn, 'DIPOLE', 'QUADRUPOLE', 'MULLIKEN_CHARGES')
f=open( 'psi4out.xyz', 'w' )
f.write( "20  " )
f.write( str(ee) + "\n" )
f.write( MOL.save_string_xyz() )
f.close()
--------------------------------------------------------------------------

    Molecular point group: c1
  Charge       = 0
  Multiplicity = 1
  Basis Set: CC-PVTZ
  Basis Set:
  @DF-RHF Final Energy:  -384.08832342377940
    Total Energy =                       -384.0883234237797978
    Molecular point group: c1
  Basis Set: CC-PVTZ
  Basis Set:
  Basis Set: CC-PVTZ
  Basis Set:
  @DF-RHF Final Energy:  -384.08558321548628
    Total Energy =                       -384.0855832154859968
  Basis Set: CC-PVTZ
  Basis Set:
  Basis Set: CC-PVTZ
  Basis Set:
  @DF-RHF Final Energy:  -384.09001059038303
    Total Energy =                       -384.0900105903834856
  Basis Set: CC-PVTZ
  Basis Set:
  Basis Set: CC-PVTZ
  Basis Set:
  @DF-RHF Final Energy:  -384.09019134521725
    Total Energy =                       -384.0901913452175904
  Basis Set: CC-PVTZ
  Basis Set:
  Basis Set: CC-PVTZ
  Basis Set:
  @DF-RHF Final Energy:  -384.09001824289589
    Total Energy =                       -384.0900182428961216
  Basis Set: CC-PVTZ
  Basis Set:
  Basis Set: CC-PVTZ
  Basis Set:
  @DF-RHF Final Energy:  -384.09026300753271
    Total Energy =                       -384.0902630075329398
  Basis Set: CC-PVTZ
  Basis Set:
  Charge       = 0
  Multiplicity = 1
  Basis Set: CC-PVTZ
  Basis Set:

    Orbital Energies (a.u.)
    -----------------------

    Doubly Occupied:

       1A    -20.603995     2A    -20.540674     3A    -11.373413
       4A    -11.238593     5A    -11.221048     6A    -11.219238
       7A    -11.218568     8A    -11.211460     9A     -1.477631
      10A     -1.369160    11A     -1.095722    12A     -1.039851
      13A     -0.965064    14A     -0.876432    15A     -0.813369
      16A     -0.776402    17A     -0.703889    18A     -0.693218
      19A     -0.667543    20A     -0.626082    21A     -0.613676
      22A     -0.599117    23A     -0.580260    24A     -0.555317
      25A     -0.536061    26A     -0.520452    27A     -0.498903
      28A     -0.484547    29A     -0.470064    30A     -0.465724
      31A     -0.456822    32A     -0.443712

  @DF-RHF Final Energy:  -384.09026730978815

   => Energetics <=

    Nuclear Repulsion Energy =            382.1484282396910430
    One-Electron Energy =               -1280.5653673593576514
    Two-Electron Energy =                 514.3266718098788033
    DFT Exchange-Correlation Energy =       0.0000000000000000
    Empirical Dispersion Energy =           0.0000000000000000
    PCM Polarization Energy =               0.0000000000000000
    EFP Energy =                            0.0000000000000000
    Total Energy =                       -384.0902673097878051
    Molecular point group: c1
  Basis Set: CC-PVTZ
  Basis Set:

  -Total Gradient:
     Atom            X                  Y                   Z
    ------   -----------------  -----------------  -----------------
       1       -0.000118312909     0.000054172277    -0.000008657236
       2       -0.000079282283    -0.000067680149     0.000037885996
       3        0.000138039634     0.000004470974    -0.000002726851
       4        0.000077905738    -0.000013487554    -0.000007647286
       5       -0.000079276848     0.000051220865    -0.000017097762
       6        0.000194017931    -0.000230093577     0.000242187281
       7        0.000001692711     0.000033526951     0.000023577969
       8       -0.000011396896    -0.000001481199    -0.000035780502
       9       -0.000183777482     0.000226733170    -0.000288837476
      10       -0.000004507466    -0.000014275710     0.000038502783
      11        0.000031329977    -0.000013320151    -0.000001562486
      12        0.000152267131     0.000142192654    -0.000372173397
      13       -0.000004738346    -0.000004189281    -0.000004509128
      14        0.000005047957    -0.000000999940    -0.000022214087
      15       -0.000060936512     0.000018053224    -0.000012156570
      16       -0.000109078154    -0.000214982314     0.000420293708
      17        0.000006297352    -0.000009390922     0.000029513780
      18        0.000009613832     0.000018709417     0.000006362484
      19        0.000011860253     0.000003704906    -0.000016336448
      20        0.000023234387     0.000017116357    -0.000008624775

  **** Optimization is complete! (in 7 steps) ****
    Final optimized geometry and variables:
    Molecular point group: c1

    Geometry (in Angstrom), charge = 0, multiplicity = 1:

    H            3.573355610255    -0.685253549236     0.050144457361
    O            2.676199452387    -0.911506240118     0.243855709892
    C            1.905447215336     0.128317217394    -0.062982082339
    C            0.453790504880    -0.154916479789     0.218272281090
    O            2.349719282280     1.132276460870    -0.501754584160
    C           -0.462745682543     1.010699858260    -0.129856603317
    H            0.201860404492    -1.051448532772    -0.333942011052
    H            0.379597293294    -0.419267538649     1.268197804140
    C           -1.924930686984     0.851139177998     0.296931448385
    H           -0.417283064587     1.188101162267    -1.198875346055
    H           -0.066554057770     1.905013107567     0.335164393305
    C           -2.730615388848    -0.265890478095    -0.385192696656
    H           -2.411995519038     1.796799578221     0.084864777629
    H           -1.977879035585     0.725813094413     1.375957292695
    C           -2.684609112090    -1.628223300286     0.306164944134
    H           -3.770020225590     0.042841912609    -0.424636275449
    H           -2.409672050225    -0.366282849327    -1.418547734334
    H           -3.312974102467    -2.341466500889    -0.215127214618
    H           -3.049908816089    -1.552973748666     1.324929560225
    H           -1.686739433470    -2.044657062158     0.347537143558

  Mulliken Charges: (a.u.)
   Center  Symbol    Alpha    Beta     Spin     Total
       1     H     0.38226  0.38226  0.00000  0.23547
       2     O     4.16022  4.16022  0.00000 -0.32045
       3     C     2.80479  2.80479  0.00000  0.39042
       4     C     3.11817  3.11817  0.00000 -0.23634
       5     O     4.19048  4.19048  0.00000 -0.38097
       6     C     3.08954  3.08954  0.00000 -0.17909
       7     H     0.43571  0.43571  0.00000  0.12857
       8     H     0.43501  0.43501  0.00000  0.12998
       9     C     3.10467  3.10467  0.00000 -0.20933
      10     H     0.44633  0.44633  0.00000  0.10734
      11     H     0.43881  0.43881  0.00000  0.12239
      12     C     3.09681  3.09681  0.00000 -0.19362
      13     H     0.44143  0.44143  0.00000  0.11714
      14     H     0.45421  0.45421  0.00000  0.09158
      15     C     3.14995  3.14995  0.00000 -0.29990
      16     H     0.44541  0.44541  0.00000  0.10917
      17     H     0.45165  0.45165  0.00000  0.09671
      18     H     0.44615  0.44615  0.00000  0.10770
      19     H     0.45337  0.45337  0.00000  0.09327
      20     H     0.45502  0.45502  0.00000  0.08996

   Total alpha = 32.00000, Total beta = 32.00000, Total charge = -0.00000

*** Psi4 exiting successfully. Buy a developer a beer!
