  ==> Input File <==

--------------------------------------------------------------------------
set {
	reference rhf
	basis 6-31G*
}

set_num_threads( 4 )
memory 2 gb

molecule MOL {
0 1

H	 -2.153054	 -2.250733	 0.000000
O	 -2.462445	 -1.355403	 0.000000
C	 -1.434260	 -0.483044	 0.000000
C	 -0.196358	 -0.955914	 -0.422732
C	 -1.572848	 0.833148	 0.397925
H	 -0.112588	 -1.982162	 -0.727279
C	 0.893346	 -0.110003	 -0.444559
H	 -2.524269	 1.211430	 0.726947
C	 -0.463418	 1.674469	 0.370179
H	 1.846192	 -0.483015	 -0.772454
C	 0.773713	 1.214862	 -0.048691
C	 -0.616587	 3.050125	 0.788041
H	 1.619483	 1.875166	 -0.064589
N	 -0.739468	 4.130713	 1.116878

	symmetry c1
}
set optking {
	frozen_dihedral = ("
		5 3 2 1
	")
}

ee = optimize('scf')
oeprop('DIPOLE', 'QUADRUPOLE', 'MULLIKEN_CHARGES')
f=open( 'psi4out.xyz', 'w' )
f.write( "14  " )
f.write( str(ee) + "\n" )
f.write( MOL.save_string_xyz() )
f.close()
--------------------------------------------------------------------------

    Molecular point group: c1
  Charge       = 0
  Multiplicity = 1
  Basis Set: 6-31G*
  Basis Set:
  @DF-RHF Final Energy:  -397.28871740207472
    Total Energy =                       -397.2887174020748944
    Molecular point group: c1
  Basis Set: 6-31G*
  Basis Set:
  Basis Set: 6-31G*
  Basis Set:
  @DF-RHF Final Energy:  -396.86148648057576
    Total Energy =                       -396.8614864805755360
  Basis Set: 6-31G*
  Basis Set:
  Basis Set: 6-31G*
  Basis Set:
  @DF-RHF Final Energy:  -396.87501284445921
    Total Energy =                       -396.8750128444591496
  Basis Set: 6-31G*
  Basis Set:
  Basis Set: 6-31G*
  Basis Set:
  @DF-RHF Final Energy:  -396.91010260102325
    Total Energy =                       -396.9101026010235955
  Basis Set: 6-31G*
  Basis Set:
  @DF-RHF Final Energy:  -396.96032832399203
    Total Energy =                       -396.9603283239919733
  @DF-RHF Final Energy:  -396.87943002005790
    Total Energy =                       -396.8794300200580665
  @DF-RHF Final Energy:  -397.10918283761816
    Total Energy =                       -397.1091828376180501
  @DF-RHF Final Energy:  -397.17397796263651
    Total Energy =                       -397.1739779626370819
  @DF-RHF Final Energy:  -397.22002105158447
    Total Energy =                       -397.2200210515841263
  @DF-RHF Final Energy:  -397.26049046281594
    Total Energy =                       -397.2604904628155964
  @DF-RHF Final Energy:  -397.20436540492369
    Total Energy =                       -397.2043654049241468
  @DF-RHF Final Energy:  -397.27891881511391
    Total Energy =                       -397.2789188151137409
  @DF-RHF Final Energy:  -397.15471801767620
    Total Energy =                       -397.1547180176762026
  @DF-RHF Final Energy:  -397.15185847789769
    Total Energy =                       -397.1518584778976901
  @DF-RHF Final Energy:  -397.15886938182439
    Total Energy =                       -397.1588693818243883
  @DF-RHF Final Energy:  -397.21114012560980
    Total Energy =                       -397.2111401256096315
  @DF-RHF Final Energy:  -397.25470335514615
    Total Energy =                       -397.2547033551460345
  @DF-RHF Final Energy:  -397.28455839942330
    Total Energy =                       -397.2845583994236449
  @DF-RHF Final Energy:  -397.29010404241870
    Total Energy =                       -397.2901040424193297
  @DF-RHF Final Energy:  -397.28546624383250
    Total Energy =                       -397.2854662438321611
  @DF-RHF Final Energy:  -397.29094012751767
    Total Energy =                       -397.2909401275175014
  @DF-RHF Final Energy:  -397.29089522365678
    Total Energy =                       -397.2908952236563209
  @DF-RHF Final Energy:  -397.29089531802998
    Total Energy =                       -397.2908953180299250
  @DF-RHF Final Energy:  -397.29068200760639
    Total Energy =                       -397.2906820076060512
  @DF-RHF Final Energy:  -397.29034048665011
    Total Energy =                       -397.2903404866499386
  @DF-RHF Final Energy:  -397.29038185628497
    Total Energy =                       -397.2903818562849665
  @DF-RHF Final Energy:  -397.29101888382780
    Total Energy =                       -397.2910188838279737
  @DF-RHF Final Energy:  -397.29097547130198
    Total Energy =                       -397.2909754713015218
  @DF-RHF Final Energy:  -397.29102370867531
    Total Energy =                       -397.2910237086753114
  @DF-RHF Final Energy:  -397.26267714483328
    Total Energy =                       -397.2626771448329919
  @DF-RHF Final Energy:  -397.27638054316617
    Total Energy =                       -397.2763805431662831
  @DF-RHF Final Energy:  -397.28247271785824
    Total Energy =                       -397.2824727178578996
  @DF-RHF Final Energy:  -397.28564327371367
    Total Energy =                       -397.2856432737133900
  @DF-RHF Final Energy:  -397.28976597201051
    Total Energy =                       -397.2897659720106276
  @DF-RHF Final Energy:  -397.29106864740396
    Total Energy =                       -397.2910686474040176
  @DF-RHF Final Energy:  -397.29075408061692
    Total Energy =                       -397.2907540806170346
  Basis Set: 6-31G*
  Basis Set:
  @DF-RHF Final Energy:  -397.29105831762911
    Total Energy =                       -397.2910583176291084
  Basis Set: 6-31G*
  Basis Set:
  Basis Set: 6-31G*
  Basis Set:
  @DF-RHF Final Energy:  -397.29097231391472
    Total Energy =                       -397.2909723139146081
  Basis Set: 6-31G*
  Basis Set:
  Basis Set: 6-31G*
  Basis Set:
  @DF-RHF Final Energy:  -397.29106946653462
    Total Energy =                       -397.2910694665346227
  Basis Set: 6-31G*
  Basis Set:
  Charge       = 0
  Multiplicity = 1
  Basis Set: 6-31G*
  Basis Set:

    Orbital Energies (a.u.)
    -----------------------

    Doubly Occupied:

       1A    -20.611435     2A    -15.574391     3A    -11.325382
       4A    -11.293527     5A    -11.275575     6A    -11.264348
       7A    -11.259580     8A    -11.259459     9A    -11.258980
      10A     -1.431615    11A     -1.230295    12A     -1.181871
      13A     -1.062751    14A     -1.039739    15A     -0.898474
      16A     -0.857706    17A     -0.793275    18A     -0.714015
      19A     -0.692103    20A     -0.672253    21A     -0.629991
      22A     -0.617411    23A     -0.587363    24A     -0.564120
      25A     -0.546941    26A     -0.538166    27A     -0.522930
      28A     -0.473068    29A     -0.470143    30A     -0.362504
      31A     -0.338414

  @DF-RHF Final Energy:  -397.29104424929153

   => Energetics <=

    Nuclear Repulsion Energy =            379.2225859361561788
    One-Electron Energy =               -1290.3316093254716179
    Two-Electron Energy =                 513.8179791400234535
    DFT Exchange-Correlation Energy =       0.0000000000000000
    Empirical Dispersion Energy =           0.0000000000000000
    PCM Polarization Energy =               0.0000000000000000
    EFP Energy =                            0.0000000000000000
    Total Energy =                       -397.2910442492919856
    Molecular point group: c1
  Basis Set: 6-31G*
  Basis Set:

  -Total Gradient:
     Atom            X                  Y                   Z
    ------   -----------------  -----------------  -----------------
       1       -0.000003626724    -0.000032750617     0.001763128379
       2        0.000232465980    -0.000009688355    -0.001641804229
       3       -0.000119073604     0.000026145302    -0.001492234491
       4       -0.000322745944     0.000029946983     0.000046224606
       5        0.000323897109    -0.000138801419     0.001250038196
       6       -0.000040123938    -0.000051031064    -0.000006974223
       7        0.000173758828     0.000119854572     0.000026624576
       8        0.000051931906     0.000155508676     0.000023273129
       9       -0.000060979269    -0.000155288339     0.000163046456
      10        0.000043407932     0.000037065291    -0.000010309839
      11        0.000113205063     0.000051260165    -0.000030432229
      12       -0.000558490042    -0.007184755268    -0.002220747663
      13        0.000038132274    -0.000040336469    -0.000019503419
      14        0.000128240436     0.007192870546     0.002149670752

    Molecular point group: c1

    Geometry (in Angstrom), charge = 0, multiplicity = 1:

    H           -1.569287081450    -3.027867189469    -0.153549818740
    O           -1.810855944450    -2.112081068555    -0.163813953680
    C           -0.716472408210    -1.321190516607    -0.196752612172
    C            0.522955894649    -1.778339155470    -0.616825876312
    C           -0.870704101317    -0.004057679762     0.206137424608
    H            0.638038287526    -2.800814316189    -0.933138319976
    C            1.609692923656    -0.918323992014    -0.636079361018
    H           -1.832458692379     0.339078042748     0.535505087636
    C            0.223430666906     0.846415822163     0.173122313242
    H            2.566353144196    -1.282615562245    -0.962630905571
    C            1.472676960716     0.399484488125    -0.245191986116
    C            0.062658739332     2.221332720599     0.592473889266
    H            2.309601621626     1.071115414245    -0.260483250045
    N           -0.058212473270     3.298162319963     0.934492372131

  Mulliken Charges: (a.u.)
   Center  Symbol    Alpha    Beta     Spin     Total
       1     H     0.26901  0.26901  0.00000  0.46198
       2     O     4.37678  4.37678  0.00000 -0.75355
       3     C     2.79512  2.79512  0.00000  0.40975
       4     C     3.13242  3.13242  0.00000 -0.26484
       5     C     3.11197  3.11197  0.00000 -0.22393
       6     H     0.39489  0.39489  0.00000  0.21021
       7     C     3.09528  3.09528  0.00000 -0.19057
       8     H     0.37337  0.37337  0.00000  0.25325
       9     C     2.99300  2.99300  0.00000  0.01401
      10     H     0.38892  0.38892  0.00000  0.22217
      11     C     3.09777  3.09777  0.00000 -0.19553
      12     C     2.86480  2.86480  0.00000  0.27039
      13     H     0.38118  0.38118  0.00000  0.23764
      14     N     3.72549  3.72549  0.00000 -0.45097

   Total alpha = 31.00000, Total beta = 31.00000, Total charge = -0.00000
