                              Psi4 1.0.54 Driver

  ==> Input File <==

--------------------------------------------------------------------------
set {
	reference rhf
	basis cc-pvtz
}

set_num_threads( 4 )
memory 2 gb

molecule MOL {
0 1

H	 1.946317	 0.485149	 -1.078803
O	 1.173979	 -0.057436	 -1.129426
C	 0.489979	 0.078084	 0.002623
C	 -0.763662	 -0.754014	 0.000816
O	 0.853219	 0.784160	 0.878651
C	 -2.038001	 0.074705	 -0.000833
H	 -0.712945	 -1.405886	 -0.864342
H	 -0.715137	 -1.405770	 0.866182
H	 -2.087267	 0.710831	 -0.874232
H	 -2.903419	 -0.576199	 -0.001922
H	 -2.089467	 0.710909	 0.872389

	symmetry c1
}
set optking {
	frozen_dihedral = ("
		2 3 4 7
	")
}

ee,wfn = optimize('scf', return_wfn=True)
oeprop( wfn, 'DIPOLE', 'QUADRUPOLE', 'MULLIKEN_CHARGES')
f=open( 'psi4out.xyz', 'w' )
f.write( "11  " )
f.write( str(ee) + "\n" )
f.write( MOL.save_string_xyz() )
f.close()
--------------------------------------------------------------------------

    Molecular point group: c1
  Charge       = 0
  Multiplicity = 1
  Basis Set: CC-PVTZ
  Basis Set:
  @DF-RHF Final Energy:  -266.95057045388972
    Total Energy =                       -266.9505704538896680
    Molecular point group: c1
  Basis Set: CC-PVTZ
  Basis Set:
  Basis Set: CC-PVTZ
  Basis Set:
  @DF-RHF Final Energy:  -266.95121441930849
    Total Energy =                       -266.9512144193084282
  Basis Set: CC-PVTZ
  Basis Set:
  Basis Set: CC-PVTZ
  Basis Set:
  @DF-RHF Final Energy:  -266.95098032173246
    Total Energy =                       -266.9509803217323451
  Basis Set: CC-PVTZ
  Basis Set:
  Basis Set: CC-PVTZ
  Basis Set:
  @DF-RHF Final Energy:  -266.95126570392426
    Total Energy =                       -266.9512657039241503
  Basis Set: CC-PVTZ
  Basis Set:
  Charge       = 0
  Multiplicity = 1
  Basis Set: CC-PVTZ
  Basis Set:

    Orbital Energies (a.u.)
    -----------------------

    Doubly Occupied:

       1A    -20.607342     2A    -20.538679     3A    -11.374071
       4A    -11.241533     5A    -11.226923     6A     -1.479090
       7A     -1.369138     8A     -1.067505     9A     -0.915885
      10A     -0.813994    11A     -0.707062    12A     -0.690830
      13A     -0.649183    14A     -0.614480    15A     -0.596272
      16A     -0.540630    17A     -0.527580    18A     -0.512422
      19A     -0.478939    20A     -0.445533

  @DF-RHF Final Energy:  -266.95128830796693

   => Energetics <=

    Nuclear Repulsion Energy =            180.1630201161188722
    One-Electron Energy =                -721.4344320735262954
    Two-Electron Energy =                 274.3201236494405180
    DFT Exchange-Correlation Energy =       0.0000000000000000
    Empirical Dispersion Energy =           0.0000000000000000
    PCM Polarization Energy =               0.0000000000000000
    EFP Energy =                            0.0000000000000000
    Total Energy =                       -266.9512883079668768
    Molecular point group: c1
  Basis Set: CC-PVTZ
  Basis Set:

  -Total Gradient:
     Atom            X                  Y                   Z
    ------   -----------------  -----------------  -----------------
       1        0.000029024408     0.000023814443    -0.000005201717
       2        0.000051154048     0.000139358405     0.000053336514
       3       -0.000136778423    -0.000337754476    -0.000101540698
       4       -0.000115342456     0.000136814660     0.000008383491
       5        0.000097404457     0.000064920149    -0.000001972482
       6        0.000026741050    -0.000020032109    -0.000002202113
       7        0.000058554897     0.000005817333     0.000104760888
       8        0.000017356784     0.000022316337    -0.000027015906
       9       -0.000032229905    -0.000014452129     0.000031410024
      10       -0.000016874055     0.000030663019    -0.000017050838
      11        0.000020989197    -0.000051465631    -0.000042907163

  **** Optimization is complete! (in 5 steps) ****
    Final optimized geometry and variables:
    Molecular point group: c1

    Geometry (in Angstrom), charge = 0, multiplicity = 1:

    H            2.009467008331     0.433608816027    -0.935235571021
    O            1.241118431029    -0.110924402235    -1.023816114769
    C            0.510923448364     0.013639333183     0.078365067852
    C           -0.757596149549    -0.798495885784     0.045759556978
    O            0.840013514238     0.710256824768     0.976410299490
    C           -1.989827430639     0.106864171527     0.006448483557
    H           -0.740389734202    -1.464881871879    -0.803982229134
    H           -0.770563593868    -1.394972224222     0.949087602265
    H           -2.004283257149     0.708432801397    -0.894694703371
    H           -2.891223035678    -0.492061079676     0.022718118967
    H           -2.002457678370     0.770772218220     0.859759840061

  Mulliken Charges: (a.u.)
   Center  Symbol    Alpha    Beta     Spin     Total
       1     H     0.37981  0.37981  0.00000  0.24038
       2     O     4.16002  4.16002  0.00000 -0.32004
       3     C     2.80040  2.80040  0.00000  0.39921
       4     C     3.08996  3.08996  0.00000 -0.17993
       5     O     4.19951  4.19951  0.00000 -0.39901
       6     C     3.14669  3.14669  0.00000 -0.29337
       7     H     0.43959  0.43959  0.00000  0.12082
       8     H     0.44224  0.44224  0.00000  0.11551
       9     H     0.45160  0.45160  0.00000  0.09680
      10     H     0.44799  0.44799  0.00000  0.10401
      11     H     0.44219  0.44219  0.00000  0.11562

   Total alpha = 20.00000, Total beta = 20.00000, Total charge = -0.00000

*** Psi4 exiting successfully. Buy a developer a beer!
