                              Psi4 1.0.54 Driver

  ==> Input File <==

--------------------------------------------------------------------------
set {
	reference rhf
	basis cc-pvtz
}

set_num_threads( 4 )
memory 2 gb

molecule MOL {
0 1

H	 -0.718397	 -0.039264	 -2.285974
C	 -0.795643	 -0.797658	 -1.510245
O	 -1.401606	 -0.295183	 -0.366624
H	 -1.405427	 -1.610004	 -1.877867
H	 0.202601	 -1.177440	 -1.300103
C	 -0.718530	 0.758693	 0.228682
C	 0.718529	 0.758687	 -0.228709
H	 -1.176498	 1.708665	 -0.046615
H	 -0.748705	 0.673525	 1.312779
O	 1.401606	 -0.295166	 0.366636
H	 0.748705	 0.673477	 -1.312803
H	 1.176496	 1.708671	 0.046552
C	 2.714315	 -0.441627	 -0.061017
H	 2.765292	 -0.641548	 -1.128869
H	 3.305661	 0.447341	 0.150952
H	 3.143725	 -1.278506	 0.470147

	symmetry c1
}
set optking {
	frozen_dihedral = ("
		2 3 6 7
	")
}

ee,wfn = optimize('scf', return_wfn=True)
oeprop( wfn, 'DIPOLE', 'QUADRUPOLE', 'MULLIKEN_CHARGES')
f=open( 'psi4out.xyz', 'w' )
f.write( "16  " )
f.write( str(ee) + "\n" )
f.write( MOL.save_string_xyz() )
f.close()
--------------------------------------------------------------------------

    Molecular point group: c1
  Charge       = 0
  Multiplicity = 1
  Basis Set: CC-PVTZ
  Basis Set:
  @DF-RHF Final Energy:  -307.07626642392620
    Total Energy =                       -307.0762664239264268
    Molecular point group: c1
  Basis Set: CC-PVTZ
  Basis Set:
  Basis Set: CC-PVTZ
  Basis Set:
  @DF-RHF Final Energy:  -307.07619381863753
    Total Energy =                       -307.0761938186376483
  Basis Set: CC-PVTZ
  Basis Set:
  Basis Set: CC-PVTZ
  Basis Set:
  @DF-RHF Final Energy:  -307.08942429177000
    Total Energy =                       -307.0894242917702286
  Basis Set: CC-PVTZ
  Basis Set:
  Basis Set: CC-PVTZ
  Basis Set:
  @DF-RHF Final Energy:  -307.09008326665662
    Total Energy =                       -307.0900832666566203
  Basis Set: CC-PVTZ
  Basis Set:
  Basis Set: CC-PVTZ
  Basis Set:
  @DF-RHF Final Energy:  -307.09019758384233
    Total Energy =                       -307.0901975838423823
  Basis Set: CC-PVTZ
  Basis Set:
  Basis Set: CC-PVTZ
  Basis Set:
  @DF-RHF Final Energy:  -307.09020836332678
    Total Energy =                       -307.0902083633268376
  Basis Set: CC-PVTZ
  Basis Set:
  Charge       = 0
  Multiplicity = 1
  Basis Set: CC-PVTZ
  Basis Set:

    Orbital Energies (a.u.)
    -----------------------

    Doubly Occupied:

       1A    -20.556751     2A    -20.541242     3A    -11.274579
       4A    -11.269037     5A    -11.267248     6A    -11.256505
       7A     -1.394413     8A     -1.368327     9A     -1.030842
      10A     -0.951696    11A     -0.900381    12A     -0.810641
      13A     -0.695693    14A     -0.684075    15A     -0.659481
      16A     -0.638145    17A     -0.628749    18A     -0.593636
      19A     -0.560235    20A     -0.541068    21A     -0.518607
      22A     -0.494779    23A     -0.448094    24A     -0.427582
      25A     -0.408513

  @DF-RHF Final Energy:  -307.09020999094633

   => Energetics <=

    Nuclear Repulsion Energy =            264.4463650506958743
    One-Electron Energy =                -943.2325084097965373
    Two-Electron Energy =                 371.6959333681544990
    DFT Exchange-Correlation Energy =       0.0000000000000000
    Empirical Dispersion Energy =           0.0000000000000000
    PCM Polarization Energy =               0.0000000000000000
    EFP Energy =                            0.0000000000000000
    Total Energy =                       -307.0902099909461072
    Molecular point group: c1
  Basis Set: CC-PVTZ
  Basis Set:

  -Total Gradient:
     Atom            X                  Y                   Z
    ------   -----------------  -----------------  -----------------
       1       -0.000018796537    -0.000000868470     0.000007751894
       2        0.002365776293    -0.001592555310     0.001433015313
       3       -0.004116216993     0.003238641546    -0.003249748607
       4        0.000004444003     0.000017981703     0.000047981114
       5       -0.000035576791    -0.000026619060    -0.000003803663
       6        0.003111078804    -0.003158445305     0.003783506154
       7       -0.001207252953     0.001539153520    -0.002065165859
       8       -0.000039477090     0.000009220943     0.000005293000
       9       -0.000023788670    -0.000017779189     0.000017180620
      10       -0.000032127696     0.000025478769     0.000017732326
      11       -0.000028857395    -0.000002831531     0.000008482860
      12       -0.000019994998    -0.000022565015    -0.000002530152
      13        0.000033896730    -0.000028450445     0.000028452385
      14       -0.000001738791     0.000007456062    -0.000020289502
      15       -0.000008718018     0.000013398973    -0.000000461899
      16        0.000017350094    -0.000001217193    -0.000007395983

  **** Optimization is complete! (in 7 steps) ****
    Final optimized geometry and variables:
    Molecular point group: c1

    Geometry (in Angstrom), charge = 0, multiplicity = 1:

    H           -1.272692674010    -0.476246087654    -2.071167569231
    C           -1.070095507523    -1.197110492331    -1.281650001041
    O           -1.616354620715    -0.808329794370    -0.061888779634
    H           -1.547840256443    -2.128484601869    -1.549296477923
    H           -0.001811944995    -1.360157224938    -1.216841662418
    C           -1.191349669850     0.373005342275     0.553140586913
    C            0.143490568437     0.950663554361     0.132660134816
    H           -1.936309989191     1.147523977397     0.375795654956
    H           -1.164142499861     0.179222068690     1.617404430359
    O            1.183456516103     0.111807231083     0.521866247330
    H            0.178240772318     1.128521808188    -0.939613304315
    H            0.238239058925     1.920205483776     0.620515915294
    C            2.451986725911     0.588858804888     0.214141861589
    H            2.579762383559     0.720203505689    -0.858322187323
    H            2.647520768196     1.541173521529     0.702269585202
    H            3.172178256444    -0.135994064712     0.564004235767

  Mulliken Charges: (a.u.)
   Center  Symbol    Alpha    Beta     Spin     Total
       1     H     0.47501  0.47501  0.00000  0.04998
       2     C     3.03678  3.03678  0.00000 -0.07357
       3     O     4.18035  4.18035  0.00000 -0.36070
       4     H     0.44270  0.44270  0.00000  0.11461
       5     H     0.46253  0.46253  0.00000  0.07495
       6     C     2.95569  2.95569  0.00000  0.08862
       7     C     3.00300  3.00300  0.00000 -0.00601
       8     H     0.47204  0.47204  0.00000  0.05593
       9     H     0.45824  0.45824  0.00000  0.08352
      10     O     4.17446  4.17446  0.00000 -0.34891
      11     H     0.46328  0.46328  0.00000  0.07345
      12     H     0.45624  0.45624  0.00000  0.08752
      13     C     3.03812  3.03812  0.00000 -0.07624
      14     H     0.47038  0.47038  0.00000  0.05923
      15     H     0.46688  0.46688  0.00000  0.06624
      16     H     0.44430  0.44430  0.00000  0.11139

   Total alpha = 25.00000, Total beta = 25.00000, Total charge =  0.00000

*** Psi4 exiting successfully. Buy a developer a beer!
