                              Psi4 1.0.54 Driver

  ==> Input File <==

--------------------------------------------------------------------------
set {
	reference rhf
	basis cc-pvtz
}

set_num_threads( 4 )
memory 2 gb

molecule MOL {
0 1

H	 -3.901199	 -2.491878	 0.964142
C	 -3.260909	 -1.640428	 0.857509
C	 -2.053165	 -1.798355	 0.374022
H	 -3.628329	 -0.676235	 1.149285
O	 -1.189946	 -0.765863	 0.237511
H	 -1.677811	 -2.758662	 0.070628
C	 0.026572	 -0.995256	 -0.379403
C	 1.057223	 0.049888	 -0.004615
H	 -0.054361	 -1.010670	 -1.459674
H	 0.397526	 -1.952058	 -0.044198
F	 2.203233	 -0.234060	 -0.590375
F	 0.698147	 1.254887	 -0.392621
F	 1.266440	 0.094219	 1.288722

	symmetry c1
}
set optking {
	frozen_dihedral = ("
		3 5 7 9
	")
}

ee,wfn = optimize('scf', return_wfn=True)
oeprop( wfn, 'DIPOLE', 'QUADRUPOLE', 'MULLIKEN_CHARGES')
f=open( 'psi4out.xyz', 'w' )
f.write( "13  " )
f.write( str(ee) + "\n" )
f.write( MOL.save_string_xyz() )
f.close()
--------------------------------------------------------------------------

    Molecular point group: c1
  Charge       = 0
  Multiplicity = 1
  Basis Set: CC-PVTZ
  Basis Set:
  @DF-RHF Final Energy:  -527.74017162318000
    Total Energy =                       -527.7401716231803448
    Molecular point group: c1
  Basis Set: CC-PVTZ
  Basis Set:
  Basis Set: CC-PVTZ
  Basis Set:
  @DF-RHF Final Energy:  -527.74139401296156
    Total Energy =                       -527.7413940129613366
  Basis Set: CC-PVTZ
  Basis Set:
  Basis Set: CC-PVTZ
  Basis Set:
  @DF-RHF Final Energy:  -527.74163007753964
    Total Energy =                       -527.7416300775399804
  Basis Set: CC-PVTZ
  Basis Set:
  Basis Set: CC-PVTZ
  Basis Set:
  @DF-RHF Final Energy:  -527.74167513295663
    Total Energy =                       -527.7416751329562885
  Basis Set: CC-PVTZ
  Basis Set:
  @DF-RHF Final Energy:  -527.74170702777496
    Total Energy =                       -527.7417070277750781
  Basis Set: CC-PVTZ
  Basis Set:
  @DF-RHF Final Energy:  -527.74176824133497
    Total Energy =                       -527.7417682413345119
  Basis Set: CC-PVTZ
  Basis Set:
  Basis Set: CC-PVTZ
  Basis Set:
  @DF-RHF Final Energy:  -527.74179575168682
    Total Energy =                       -527.7417957516870501
  Basis Set: CC-PVTZ
  Basis Set:
  Basis Set: CC-PVTZ
  Basis Set:
  @DF-RHF Final Energy:  -527.74179912688282
    Total Energy =                       -527.7417991268827109
  Basis Set: CC-PVTZ
  Basis Set:
  Charge       = 0
  Multiplicity = 1
  Basis Set: CC-PVTZ
  Basis Set:

    Orbital Energies (a.u.)
    -----------------------

    Doubly Occupied:

       1A    -26.339649     2A    -26.336387     3A    -26.336095
       4A    -20.602823     5A    -11.498023     6A    -11.319349
       7A    -11.300768     8A    -11.219346     9A     -1.748404
      10A     -1.644442    11A     -1.642990    12A     -1.445381
      13A     -1.091049    14A     -1.020077    15A     -0.929647
      16A     -0.844632    17A     -0.838125    18A     -0.811832
      19A     -0.804069    20A     -0.729807    21A     -0.719910
      22A     -0.705750    23A     -0.685248    24A     -0.664725
      25A     -0.659402    26A     -0.648091    27A     -0.643663
      28A     -0.588964    29A     -0.563170    30A     -0.531133
      31A     -0.512428    32A     -0.362783

  @DF-RHF Final Energy:  -527.74179973906598

   => Energetics <=

    Nuclear Repulsion Energy =            407.8395694069702131
    One-Electron Energy =               -1539.5864150585875905
    Two-Electron Energy =                 604.0050459125517364
    DFT Exchange-Correlation Energy =       0.0000000000000000
    Empirical Dispersion Energy =           0.0000000000000000
    PCM Polarization Energy =               0.0000000000000000
    EFP Energy =                            0.0000000000000000
    Total Energy =                       -527.7417997390656410
    Molecular point group: c1
  Basis Set: CC-PVTZ
  Basis Set:

  -Total Gradient:
     Atom            X                  Y                   Z
    ------   -----------------  -----------------  -----------------
       1        0.000006771187    -0.000003815240     0.000026672496
       2        0.000057302360    -0.000001059193    -0.000007468208
       3        0.000149699575    -0.000130931644     0.000232872523
       4        0.000016963800    -0.000026059716    -0.000002199276
       5       -0.000249822870     0.000360960548    -0.000443291968
       6       -0.000032441518     0.000023188044     0.000041562802
       7       -0.000018498423    -0.000718776007     0.000110289585
       8       -0.000032224640     0.000034926823    -0.000008445930
       9        0.000106815203     0.000497003722     0.000054522929
      10        0.000010691587     0.000017362544    -0.000004804221
      11       -0.000018573714    -0.000012861492    -0.000008326968
      12        0.000016627114    -0.000032661273     0.000007850276
      13       -0.000013309667    -0.000007277124     0.000000765960

  **** Optimization is complete! (in 9 steps) ****
    Final optimized geometry and variables:
    Molecular point group: c1

    Geometry (in Angstrom), charge = 0, multiplicity = 1:

    H           -3.905793693216    -2.089870938414     0.635474921870
    C           -3.270694289498    -1.234152312097     0.529578874795
    C           -1.995006359427    -1.401688089345     0.279817921945
    H           -3.694957677925    -0.256648551586     0.649044521148
    O           -1.130036105923    -0.367836946559     0.195505478170
    H           -1.557667240915    -2.377490792743     0.158682485436
    C            0.010992999079    -0.565432685516    -0.563112448218
    C            1.031588111986     0.477031208123    -0.171114515522
    H           -0.188080715004    -0.452197591841    -1.622702452888
    H            0.454326412251    -1.538505582874    -0.385770586373
    F            2.119611449335     0.311443144357    -0.897614067307
    F            0.595881436064     1.696811589577    -0.375809456972
    F            1.375062464035     0.378350017589     1.091332586909

  Mulliken Charges: (a.u.)
   Center  Symbol    Alpha    Beta     Spin     Total
       1     H     0.42494  0.42494  0.00000  0.15012
       2     C     3.18868  3.18868  0.00000 -0.37735
       3     C     2.96921  2.96921  0.00000  0.06158
       4     H     0.42292  0.42292  0.00000  0.15415
       5     O     4.14101  4.14101  0.00000 -0.28202
       6     H     0.43652  0.43652  0.00000  0.12696
       7     C     3.00049  3.00049  0.00000 -0.00097
       8     C     2.67333  2.67333  0.00000  0.65334
       9     H     0.45598  0.45598  0.00000  0.08805
      10     H     0.46004  0.46004  0.00000  0.07991
      11     F     4.61248  4.61248  0.00000 -0.22495
      12     F     4.60679  4.60679  0.00000 -0.21358
      13     F     4.60762  4.60762  0.00000 -0.21523

   Total alpha = 32.00000, Total beta = 32.00000, Total charge = -0.00000

*** Psi4 exiting successfully. Buy a developer a beer!
