  ==> Input File <==

--------------------------------------------------------------------------
set {
	reference rhf
	basis cc-pvtz
}

set_num_threads( 4 )
memory 2 gb

molecule MOL {
0 1

H	 2.252046	 -1.517674	 -2.006470
O	 2.618130	 -0.801187	 -1.519283
C	 1.680662	 -0.172945	 -0.787814
C	 2.087074	 0.907463	 -0.017964
C	 0.359042	 -0.564937	 -0.783227
H	 3.119472	 1.195527	 -0.036128
C	 1.171668	 1.588844	 0.750868
H	 0.017960	 -1.394356	 -1.367201
C	 -0.532034	 0.141680	 0.000000
H	 1.494871	 2.422575	 1.342629
C	 -0.161373	 1.214013	 0.772006
N	 -1.937041	 -0.281114	 0.000000
H	 -0.883000	 1.733385	 1.363808
O	 -2.159542	 -1.446261	 0.000000
O	 -2.764978	 0.565773	 0.000000

	symmetry c1
}
set optking {
	frozen_dihedral = ("
		11 9 12 14
	")
}

ee = optimize('scf')
oeprop('DIPOLE', 'QUADRUPOLE', 'MULLIKEN_CHARGES')
f=open( 'psi4out.xyz', 'w' )
f.write( "15  " )
f.write( str(ee) + "\n" )
f.write( MOL.save_string_xyz() )
f.close()
--------------------------------------------------------------------------

    Molecular point group: c1
  Charge       = 0
  Multiplicity = 1
  Basis Set: CC-PVTZ
  Basis Set:
  @DF-RHF Final Energy:  -509.21595692798411
    Total Energy =                       -509.2159569279845073
    Molecular point group: c1
  Basis Set: CC-PVTZ
  Basis Set:
  Basis Set: CC-PVTZ
  Basis Set:
  @DF-RHF Final Energy:  -509.20938310096648
    Total Energy =                       -509.2093831009665337
  Basis Set: CC-PVTZ
  Basis Set:
  Basis Set: CC-PVTZ
  Basis Set:
  @DF-RHF Final Energy:  -509.21606591488853
    Total Energy =                       -509.2160659148889863
  Basis Set: CC-PVTZ
  Basis Set:
  Basis Set: CC-PVTZ
  Basis Set:
  @DF-RHF Final Energy:  -509.21631708550757
    Total Energy =                       -509.2163170855071712
  Basis Set: CC-PVTZ
  Basis Set:
  Basis Set: CC-PVTZ
  Basis Set:
  @DF-RHF Final Energy:  -509.21631767783418
    Total Energy =                       -509.2163176778338993
  Basis Set: CC-PVTZ
  Basis Set:
  Charge       = 0
  Multiplicity = 1
  Basis Set: CC-PVTZ
  Basis Set:

    Orbital Energies (a.u.)
    -----------------------

    Doubly Occupied:

       1A    -20.609443     2A    -20.597023     3A    -20.596594
       4A    -15.850210     5A    -11.329089     6A    -11.310830
       7A    -11.264159     8A    -11.263635     9A    -11.258869
      10A    -11.254546    11A     -1.645132    12A     -1.442189
      13A     -1.428053    14A     -1.203766    15A     -1.096435
      16A     -1.049131    17A     -0.966992    18A     -0.884074
      19A     -0.832501    20A     -0.794267    21A     -0.762534
      22A     -0.740992    23A     -0.725970    24A     -0.711807
      25A     -0.675382    26A     -0.636232    27A     -0.622668
      28A     -0.597886    29A     -0.563292    30A     -0.548427
      31A     -0.528184    32A     -0.494806    33A     -0.491942
      34A     -0.459320    35A     -0.378515    36A     -0.346600

  @DF-RHF Final Energy:  -509.21631790296340

   => Energetics <=

    Nuclear Repulsion Energy =            504.5819860073326026
    One-Electron Energy =               -1695.6736246412199307
    Two-Electron Energy =                 681.8753207309239315
    DFT Exchange-Correlation Energy =       0.0000000000000000
    Empirical Dispersion Energy =           0.0000000000000000
    PCM Polarization Energy =               0.0000000000000000
    EFP Energy =                            0.0000000000000000
    Total Energy =                       -509.2163179029632829
    Molecular point group: c1
  Basis Set: CC-PVTZ
  Basis Set:

  -Total Gradient:
     Atom            X                  Y                   Z
    ------   -----------------  -----------------  -----------------
       1       -0.000001304392     0.000006017934    -0.000009170777
       2        0.000005180812    -0.000018514852     0.000011180487
       3       -0.000007327404     0.000025026333     0.000006110787
       4        0.000000172928     0.000006484436    -0.000028382372
       5       -0.000028089052     0.000026559141    -0.000005116309
       6       -0.000000549226     0.000000548401     0.000000624280
       7       -0.000001326476    -0.000023920635     0.000030083987
       8       -0.000002531050    -0.000008282407    -0.000004203800
       9       -0.001094058641     0.003339884528    -0.002454541132
      10       -0.000001481956     0.000001676096    -0.000003084945
      11        0.000796401857    -0.002347787959     0.002822384009
      12        0.000215009348    -0.000932088536    -0.004726605419
      13        0.000002019742     0.000001236604    -0.000000479314
      14        0.000120068409    -0.000070158565     0.004352315000
      15       -0.000002184891    -0.000006680518     0.000008885518

  **** Optimization is complete! (in 6 steps) ****
    Final optimized geometry and variables:
    Molecular point group: c1

    Geometry (in Angstrom), charge = 0, multiplicity = 1:

    H            2.272313834925    -1.587598199055    -1.818349624609
    O            2.634967910963    -0.866075290871    -1.336129208693
    C            1.696630893699    -0.237672056841    -0.607441232458
    C            2.103043140163     0.837690163138     0.170140043238
    C            0.374164132908    -0.629671239134    -0.604304699995
    H            3.137388971366     1.118669048102     0.162033658735
    C            1.186870721532     1.519061805433     0.937771558558
    H            0.036658233168    -1.474965943029    -1.169705590450
    C           -0.518131705902     0.095314873336     0.156944515598
    H            1.513043151382     2.341626193327     1.543473472125
    C           -0.151089449695     1.159172579814     0.938975810629
    N           -1.913611654018    -0.345369541095     0.182558387976
    H           -0.878177736274     1.686837013642     1.518898936282
    O           -2.114417784353    -1.514205590791     0.168470388919
    O           -2.748146852126     0.492718558922     0.248641043277

  Mulliken Charges: (a.u.)
   Center  Symbol    Alpha    Beta     Spin     Total
       1     H     0.38438  0.38438  0.00000  0.23124
       2     O     4.16778  4.16778  0.00000 -0.33556
       3     C     2.84453  2.84453  0.00000  0.31093
       4     C     3.10014  3.10014  0.00000 -0.20028
       5     C     3.13906  3.13906  0.00000 -0.27812
       6     H     0.41353  0.41353  0.00000  0.17293
       7     C     3.05464  3.05464  0.00000 -0.10928
       8     H     0.41494  0.41494  0.00000  0.17012
       9     C     2.94465  2.94465  0.00000  0.11069
      10     H     0.41611  0.41611  0.00000  0.16777
      11     C     3.10469  3.10469  0.00000 -0.20938
      12     N     3.26923  3.26923  0.00000  0.46155
      13     H     0.40535  0.40535  0.00000  0.18930
      14     O     4.17132  4.17132  0.00000 -0.34264
      15     O     4.16964  4.16964  0.00000 -0.33927

   Total alpha = 36.00000, Total beta = 36.00000, Total charge =  0.00000
