  ==> Input File <==

--------------------------------------------------------------------------
set {
	reference rhf
	basis 6-31G*
}

set_num_threads( 4 )
memory 2 gb

molecule MOL {
0 1

H	 -3.085996	 1.046588	 -1.410460
C	 -2.441548	 1.528896	 -2.155905
C	 -1.459778	 2.527986	 -1.598627
O	 -2.547963	 1.251498	 -3.306329
C	 -0.617569	 1.949525	 -0.453060
H	 -0.836764	 2.884835	 -2.410551
H	 -2.039004	 3.372126	 -1.226365
C	 0.339954	 0.841438	 -0.898696
H	 -0.049284	 2.757559	 -0.002042
H	 -1.278097	 1.572519	 0.326252
C	 1.180775	 0.282413	 0.250794
H	 0.997163	 1.229553	 -1.674124
H	 -0.222109	 0.030944	 -1.358832
C	 2.148627	 -0.814315	 -0.201312
H	 1.731669	 1.097697	 0.712919
H	 0.520406	 -0.116078	 1.019886
C	 3.580890	 -0.659131	 0.322722
H	 2.166869	 -0.852443	 -1.289387
H	 1.762857	 -1.776509	 0.128956
C	 4.324889	 0.564933	 -0.213704
H	 4.142010	 -1.551473	 0.056605
H	 3.564836	 -0.624694	 1.410140
H	 4.342616	 0.565491	 -1.300421
H	 3.866655	 1.493402	 0.110242
H	 5.353900	 0.572371	 0.132816

	symmetry c1
}
set optking {
	frozen_dihedral = ("
		8 11 14 18
	")
}

ee = optimize('scf')
oeprop('DIPOLE', 'QUADRUPOLE', 'MULLIKEN_CHARGES')
f=open( 'psi4out.xyz', 'w' )
f.write( "25  " )
f.write( str(ee) + "\n" )
f.write( MOL.save_string_xyz() )
f.close()
--------------------------------------------------------------------------

    Molecular point group: c1
  Charge       = 0
  Multiplicity = 1
  Basis Set: 6-31G*
  Basis Set:
  @DF-RHF Final Energy:  -387.11702079594500
    Total Energy =                       -387.1170207959449954
    Molecular point group: c1
  Basis Set: 6-31G*
  Basis Set:
  Basis Set: 6-31G*
  Basis Set:
  @DF-RHF Final Energy:  -387.11706153325179
    Total Energy =                       -387.1170615332516718
  Basis Set: 6-31G*
  Basis Set:
  Basis Set: 6-31G*
  Basis Set:
  @DF-RHF Final Energy:  -387.11729400689802
    Total Energy =                       -387.1172940068979642
  Basis Set: 6-31G*
  Basis Set:
  Basis Set: 6-31G*
  Basis Set:
  @DF-RHF Final Energy:  -387.11726800182623
    Total Energy =                       -387.1172680018264600
  Basis Set: 6-31G*
  Basis Set:
  @DF-RHF Final Energy:  -387.11743889453868
    Total Energy =                       -387.1174388945386227
  @DF-RHF Final Energy:  -387.11746952440961
    Total Energy =                       -387.1174695244103532
  Basis Set: 6-31G*
  Basis Set:
  @DF-RHF Final Energy:  -387.11747029278257
    Total Energy =                       -387.1174702927830822
  Basis Set: 6-31G*
  Basis Set:
  Basis Set: 6-31G*
  Basis Set:
  @DF-RHF Final Energy:  -387.11747009400307
    Total Energy =                       -387.1174700940035791
  Basis Set: 6-31G*
  Basis Set:
  Basis Set: 6-31G*
  Basis Set:
  @DF-RHF Final Energy:  -387.11747617628481
    Total Energy =                       -387.1174761762852086
  Basis Set: 6-31G*
  Basis Set:
  Charge       = 0
  Multiplicity = 1
  Basis Set: 6-31G*
  Basis Set:

    Orbital Energies (a.u.)
    -----------------------

    Doubly Occupied:

       1A    -20.561940     2A    -11.326119     3A    -11.235187
       4A    -11.234591     5A    -11.224155     6A    -11.219800
       7A    -11.218321     8A    -11.216622     9A    -11.210915
      10A     -1.401887    11A     -1.103102    12A     -1.068881
      13A     -1.012610    14A     -0.942364    15A     -0.875149
      16A     -0.819948    17A     -0.788182    18A     -0.783369
      19A     -0.664279    20A     -0.660741    21A     -0.630759
      22A     -0.624832    23A     -0.606813    24A     -0.591882
      25A     -0.572156    26A     -0.552935    27A     -0.534063
      28A     -0.522042    29A     -0.512301    30A     -0.495491
      31A     -0.488454    32A     -0.483087    33A     -0.463622
      34A     -0.455144    35A     -0.440869    36A     -0.409497

  @DF-RHF Final Energy:  -387.11747609545245

   => Energetics <=

    Nuclear Repulsion Energy =            441.8998972722351368
    One-Electron Energy =               -1400.1305315960953521
    Two-Electron Energy =                 571.1131582284078831
    DFT Exchange-Correlation Energy =       0.0000000000000000
    Empirical Dispersion Energy =           0.0000000000000000
    PCM Polarization Energy =               0.0000000000000000
    EFP Energy =                            0.0000000000000000
    Total Energy =                       -387.1174760954522753
    Molecular point group: c1
  Basis Set: 6-31G*
  Basis Set:

  -Total Gradient:
     Atom            X                  Y                   Z
    ------   -----------------  -----------------  -----------------
       1       -0.000008597807     0.000007299741    -0.000001934242
       2        0.000022135244    -0.000022341109     0.000005399685
       3        0.000001929304     0.000012619136    -0.000000977581
       4       -0.000008644943     0.000006665610    -0.000001961644
       5        0.000008014836     0.000006385240    -0.000003989174
       6       -0.000000678780     0.000000175433    -0.000001273290
       7        0.000002007553     0.000001789982     0.000000823827
       8        0.001103180816     0.001106364849    -0.000271062827
       9       -0.000001617613     0.000002948342     0.000006739597
      10        0.000000849978    -0.000003430374    -0.000006460806
      11       -0.001973530890    -0.001909900319     0.000382424799
      12       -0.000001159135    -0.000008625078    -0.000007596619
      13       -0.000005007661    -0.000000570169     0.000006347690
      14        0.002498566443     0.002268107284    -0.000121846558
      15        0.000004514449     0.000004286123     0.000007024817
      16        0.000007444258    -0.000001723665    -0.000000993373
      17        0.000006209162    -0.000006389597     0.000001705847
      18       -0.001640566649    -0.001469414711     0.000006622785
      19       -0.000002686623     0.000004372330    -0.000009399937
      20       -0.000001316817    -0.000009762261     0.000001573016
      21        0.000005208123    -0.000000348226     0.000006960254
      22       -0.000002029770     0.000005138989    -0.000002558877
      23       -0.000010072504     0.000001937050     0.000004326912
      24       -0.000008033365     0.000007444777     0.000002992591
      25        0.000003882405    -0.000003029379    -0.000002886891

  **** Optimization is complete! (in 10 steps) ****
    Final optimized geometry and variables:
    Molecular point group: c1

    Geometry (in Angstrom), charge = 0, multiplicity = 1:

    H           -3.598143796578     0.181301529644    -0.538063314667
    C           -2.946324607853     0.700792232159    -1.251547948357
    C           -1.996868810749     1.698251535187    -0.637980077824
    O           -3.026113882819     0.465682829391    -2.413534067390
    C           -1.167454062840     1.095969031123     0.504786977562
    H           -1.364049245413     2.095485157253    -1.423195520115
    H           -2.600640522631     2.517407150134    -0.249468056981
    C           -0.176623707209     0.025493505941     0.041923015546
    H           -0.627177942816     1.898818753947     0.998280216616
    H           -1.836479703626     0.676667922465     1.254459303566
    C            0.666804334939    -0.542771347501     1.185344437850
    H            0.482611340525     0.450158181468    -0.712207512402
    H           -0.711407065750    -0.785896112262    -0.449186017935
    C            1.653588838593    -1.643067308209     0.736445658217
    H            1.210106289192     0.276673100842     1.649543361821
    H            0.010317495186    -0.934817065133     1.958063162164
    C            3.077210231482    -1.487053012223     1.282710891695
    H            1.688121670027    -1.687000622409    -0.350134256016
    H            1.267680546112    -2.610205121454     1.047538572808
    C            3.852341207094    -0.320087752674     0.668857325189
    H            3.626813342604    -2.406286989331     1.096585436125
    H            3.037058432753    -1.370908779487     2.363905921426
    H            3.951685201049    -0.444455452435    -0.405845367186
    H            3.362218465140     0.632317911603     0.846027874207
    H            4.851863912473    -0.254327552786     1.087523714856

  Mulliken Charges: (a.u.)
   Center  Symbol    Alpha    Beta     Spin     Total
       1     H     0.43261  0.43261  0.00000  0.13479
       2     C     2.83078  2.83078  0.00000  0.33843
       3     C     3.20810  3.20810  0.00000 -0.41620
       4     O     4.23779  4.23779  0.00000 -0.47558
       5     C     3.16719  3.16719  0.00000 -0.33438
       6     H     0.39972  0.39972  0.00000  0.20055
       7     H     0.40661  0.40661  0.00000  0.18679
       8     C     3.15701  3.15701  0.00000 -0.31403
       9     H     0.41299  0.41299  0.00000  0.17403
      10     H     0.41957  0.41957  0.00000  0.16086
      11     C     3.15575  3.15575  0.00000 -0.31150
      12     H     0.41742  0.41742  0.00000  0.16515
      13     H     0.41807  0.41807  0.00000  0.16387
      14     C     3.15706  3.15706  0.00000 -0.31413
      15     H     0.42079  0.42079  0.00000  0.15842
      16     H     0.42054  0.42054  0.00000  0.15892
      17     C     3.15409  3.15409  0.00000 -0.30818
      18     H     0.41956  0.41956  0.00000  0.16088
      19     H     0.41888  0.41888  0.00000  0.16223
      20     C     3.24052  3.24052  0.00000 -0.48103
      21     H     0.42050  0.42050  0.00000  0.15900
      22     H     0.42291  0.42291  0.00000  0.15417
      23     H     0.42105  0.42105  0.00000  0.15791
      24     H     0.42187  0.42187  0.00000  0.15625
      25     H     0.41860  0.41860  0.00000  0.16279

   Total alpha = 36.00000, Total beta = 36.00000, Total charge =  0.00000
