  ==> Input File <==

--------------------------------------------------------------------------
set {
	reference rhf
	basis 6-31G*
}

set_num_threads( 4 )
memory 2 gb

molecule MOL {
0 1

H	 2.591676	 2.013956	 0.335017
O	 3.341076	 1.666752	 -0.126416
C	 3.569581	 0.339145	 0.272707
C	 2.539767	 -0.640285	 -0.279495
H	 4.553106	 0.084646	 -0.100901
H	 3.608576	 0.269204	 1.359154
C	 1.115811	 -0.397273	 0.226630
H	 2.556196	 -0.582511	 -1.364741
H	 2.852081	 -1.648031	 -0.010655
C	 0.115918	 -1.429151	 -0.302766
H	 0.797950	 0.599468	 -0.066350
H	 1.109961	 -0.420744	 1.316472
C	 0.633807	 -2.293924	 -1.457885
H	 -0.200452	 -2.073597	 0.515431
H	 -0.776845	 -0.905539	 -0.638182
C	 1.776497	 -3.244196	 -1.089483
H	 -0.196255	 -2.882741	 -1.842733
H	 0.950711	 -1.648684	 -2.275855
C	 2.187113	 -4.159031	 -2.245298
H	 1.475868	 -3.854436	 -0.238989
H	 2.645456	 -2.676664	 -0.765258
C	 3.331883	 -5.104186	 -1.882192
H	 1.326412	 -4.741858	 -2.566226
H	 2.478570	 -3.551059	 -3.099294
H	 3.059402	 -5.748972	 -1.051392
H	 3.598292	 -5.740316	 -2.720643
H	 4.220627	 -4.550834	 -1.591846

	symmetry c1
}
set optking {
	frozen_dihedral = ("
		14 10 7 4
	")
}

ee = optimize('scf')
oeprop('DIPOLE', 'QUADRUPOLE', 'MULLIKEN_CHARGES')
f=open( 'psi4out.xyz', 'w' )
f.write( "27  " )
f.write( str(ee) + "\n" )
f.write( MOL.save_string_xyz() )
f.close()
--------------------------------------------------------------------------

    Molecular point group: c1
  Charge       = 0
  Multiplicity = 1
  Basis Set: 6-31G*
  Basis Set:
  @DF-RHF Final Energy:  -388.23984068535452
    Total Energy =                       -388.2398406853540109
    Molecular point group: c1
  Basis Set: 6-31G*
  Basis Set:
  Basis Set: 6-31G*
  Basis Set:
  @DF-RHF Final Energy:  -388.26241688874154
    Total Energy =                       -388.2624168887417682
  Basis Set: 6-31G*
  Basis Set:
  Basis Set: 6-31G*
  Basis Set:
  @DF-RHF Final Energy:  -388.26754408606303
    Total Energy =                       -388.2675440860634808
  Basis Set: 6-31G*
  Basis Set:
  Basis Set: 6-31G*
  Basis Set:
  @DF-RHF Final Energy:  -388.26904935986789
    Total Energy =                       -388.2690493598672674
  Basis Set: 6-31G*
  Basis Set:
  @DF-RHF Final Energy:  -388.26968137597453
    Total Energy =                       -388.2696813759737324
  @DF-RHF Final Energy:  -388.26978977421231
    Total Energy =                       -388.2697897742124269
  @DF-RHF Final Energy:  -388.26997772385386
    Total Energy =                       -388.2699777238537990
  Basis Set: 6-31G*
  Basis Set:
  @DF-RHF Final Energy:  -388.26998926127067
    Total Energy =                       -388.2699892612708936
  Basis Set: 6-31G*
  Basis Set:
  Basis Set: 6-31G*
  Basis Set:
  @DF-RHF Final Energy:  -388.26999463949568
    Total Energy =                       -388.2699946394952804
  Basis Set: 6-31G*
  Basis Set:
  Basis Set: 6-31G*
  Basis Set:
  @DF-RHF Final Energy:  -388.26999579508373
    Total Energy =                       -388.2699957950840144
  Basis Set: 6-31G*
  Basis Set:
  Charge       = 0
  Multiplicity = 1
  Basis Set: 6-31G*
  Basis Set:

    Orbital Energies (a.u.)
    -----------------------

    Doubly Occupied:

       1A    -20.552553     2A    -11.267398     3A    -11.221053
       4A    -11.217784     5A    -11.214831     6A    -11.214731
       7A    -11.214571     8A    -11.212342     9A    -11.208449
      10A     -1.359309    11A     -1.091063    12A     -1.058196
      13A     -1.009103    14A     -0.950948    15A     -0.887187
      16A     -0.832847    17A     -0.794594    18A     -0.767273
      19A     -0.696043    20A     -0.648990    21A     -0.638493
      22A     -0.612292    23A     -0.602272    24A     -0.586255
      25A     -0.566528    26A     -0.553309    27A     -0.551281
      28A     -0.520734    29A     -0.514322    30A     -0.496259
      31A     -0.481485    32A     -0.474701    33A     -0.466772
      34A     -0.455554    35A     -0.449413    36A     -0.434220
      37A     -0.423836

  @DF-RHF Final Energy:  -388.26999622907141

   => Energetics <=

    Nuclear Repulsion Energy =            467.5716172467865022
    One-Electron Energy =               -1453.1892391816752479
    Two-Electron Energy =                 597.3476257058167675
    DFT Exchange-Correlation Energy =       0.0000000000000000
    Empirical Dispersion Energy =           0.0000000000000000
    PCM Polarization Energy =               0.0000000000000000
    EFP Energy =                            0.0000000000000000
    Total Energy =                       -388.2699962290720350
    Molecular point group: c1
  Basis Set: 6-31G*
  Basis Set:

  -Total Gradient:
     Atom            X                  Y                   Z
    ------   -----------------  -----------------  -----------------
       1        0.000001082452     0.000006386662    -0.000001246807
       2       -0.000004711848     0.000017105033     0.000005852055
       3       -0.000002951609    -0.000005660861    -0.000017893841
       4       -0.000676427631     0.001604423888    -0.002281228084
       5       -0.000003723431     0.000001668732     0.000002328258
       6        0.000002082335    -0.000003135756    -0.000006780237
       7        0.000335193968    -0.001939200567     0.003591063014
       8        0.000019758143    -0.000001050389    -0.000004917072
       9       -0.000023311228     0.000019360205    -0.000024205340
      10        0.003475933647    -0.001828749923    -0.002048195022
      11       -0.000011111351    -0.000003202644    -0.000006109149
      12       -0.000011590330    -0.000002677503    -0.000003077571
      13       -0.000011189515     0.000019608852    -0.000000197181
      14       -0.003102058101     0.002088362307     0.000779379028
      15        0.000008569288    -0.000004688874    -0.000017004176
      16        0.000063311693     0.000025906221     0.000016243857
      17       -0.000029249687     0.000023774824     0.000006753043
      18        0.000003688537    -0.000003786151     0.000000205836
      19       -0.000018997753    -0.000005044940     0.000017873708
      20        0.000010867476    -0.000002895361    -0.000017813643
      21       -0.000015504310    -0.000008268419     0.000004671924
      22       -0.000000150299     0.000002920601     0.000001326598
      23       -0.000002730483    -0.000002728971    -0.000009630852
      24       -0.000000117750    -0.000001215775     0.000015623575
      25       -0.000001830357     0.000000088102    -0.000001578878
      26        0.000000558613     0.000001071051    -0.000001379351
      27       -0.000005390469     0.000001629646    -0.000000063693

  **** Optimization is complete! (in 11 steps) ****
    Final optimized geometry and variables:
    Molecular point group: c1

    Geometry (in Angstrom), charge = 0, multiplicity = 1:

    H            0.092928858851     3.927106851499     1.036473606321
    O            0.918748842274     3.702263434566     0.633851852820
    C            1.385003646605     2.482645357979     1.152670625305
    C            0.637688199977     1.267132385479     0.610276679626
    H            2.427524778230     2.422035684217     0.867572093228
    H            1.348193794323     2.492109934854     2.241304275103
    C           -0.834471894456     1.235539216997     1.035040527958
    H            0.722639860794     1.275753523070    -0.471022790506
    H            1.154478051768     0.380719809916     0.967308909819
    C           -1.741058298121     0.091016086482     0.498554525161
    H           -1.278790958783     2.175101878398     0.717064946684
    H           -0.882647227773     1.236411576396     2.121588222413
    C           -1.274372132558    -0.734957108091    -0.711400961068
    H           -1.991090682239    -0.582133891806     1.314889385069
    H           -2.689238994523     0.547817686695     0.229140208782
    C           -0.333569359600    -1.900010183527    -0.388486149883
    H           -2.161829012205    -1.149975702855    -1.184187189500
    H           -0.821157793657    -0.087791307424    -1.457610226449
    C            0.052871691744    -2.712255187755    -1.626333983460
    H           -0.821497174924    -2.555681598242     0.331164589576
    H            0.570057484377    -1.541079420093     0.094045271359
    C            0.969061028390    -3.892518163242    -1.304768320106
    H           -0.848572483113    -3.078066722883    -2.113546355562
    H            0.544288203093    -2.060221951751    -2.345387041379
    H            0.492119822019    -4.582343818550    -0.614120399236
    H            1.225730500417    -4.447656132194    -2.201750321516
    H            1.895709658024    -3.556732790046    -0.847680784809

  Mulliken Charges: (a.u.)
   Center  Symbol    Alpha    Beta     Spin     Total
       1     H     0.27961  0.27961  0.00000  0.44078
       2     O     4.37106  4.37106  0.00000 -0.74213
       3     C     2.99711  2.99711  0.00000  0.00579
       4     C     3.16463  3.16463  0.00000 -0.32926
       5     H     0.41429  0.41429  0.00000  0.17142
       6     H     0.43206  0.43206  0.00000  0.13587
       7     C     3.16305  3.16305  0.00000 -0.32610
       8     H     0.41347  0.41347  0.00000  0.17306
       9     H     0.42277  0.42277  0.00000  0.15447
      10     C     3.15720  3.15720  0.00000 -0.31440
      11     H     0.42613  0.42613  0.00000  0.14774
      12     H     0.42207  0.42207  0.00000  0.15587
      13     C     3.15732  3.15732  0.00000 -0.31464
      14     H     0.42092  0.42092  0.00000  0.15816
      15     H     0.41901  0.41901  0.00000  0.16198
      16     C     3.15222  3.15222  0.00000 -0.30444
      17     H     0.42109  0.42109  0.00000  0.15783
      18     H     0.41987  0.41987  0.00000  0.16026
      19     C     3.15182  3.15182  0.00000 -0.30364
      20     H     0.42471  0.42471  0.00000  0.15057
      21     H     0.42109  0.42109  0.00000  0.15782
      22     C     3.23915  3.23915  0.00000 -0.47829
      23     H     0.42319  0.42319  0.00000  0.15362
      24     H     0.42274  0.42274  0.00000  0.15451
      25     H     0.42201  0.42201  0.00000  0.15599
      26     H     0.41925  0.41925  0.00000  0.16151
      27     H     0.42217  0.42217  0.00000  0.15565

   Total alpha = 37.00000, Total beta = 37.00000, Total charge = -0.00000
