                              Psi4 1.0.54 Driver

  ==> Input File <==

--------------------------------------------------------------------------
set {
	reference rhf
	basis cc-pvtz
}

set_num_threads( 4 )
memory 2 gb

molecule MOL {
0 1

O	 0.749630	 1.305591	 -0.000460
C	 0.576499	 0.134701	 -0.003900
C	 -0.765656	 -0.550508	 -0.002152
O	 1.564816	 -0.744612	 -0.000631
C	 -1.945526	 0.411052	 0.000603
H	 -0.794329	 -1.203792	 -0.868145
H	 -0.791555	 -1.205429	 0.862701
C	 -3.282915	 -0.321280	 0.002596
H	 -1.880300	 1.059126	 -0.864925
H	 -1.877207	 1.057892	 0.866807
H	 -3.388495	 -0.952755	 -0.873419
H	 -4.107811	 0.380864	 0.004116
H	 -3.385717	 -0.953283	 0.878571
C	 1.508097	 -1.781094	 0.958795
H	 1.508902	 -1.374689	 1.959239
H	 2.389101	 -2.381337	 0.799954
H	 0.619493	 -2.379125	 0.821739

	symmetry c1
}
set optking {
	frozen_dihedral = ("
		14 4 2 1
	")
}

ee,wfn = optimize('scf', return_wfn=True)
oeprop( wfn, 'DIPOLE', 'QUADRUPOLE', 'MULLIKEN_CHARGES')
f=open( 'psi4out.xyz', 'w' )
f.write( "17  " )
f.write( str(ee) + "\n" )
f.write( MOL.save_string_xyz() )
f.close()
--------------------------------------------------------------------------

    Molecular point group: c1
  Charge       = 0
  Multiplicity = 1
  Basis Set: CC-PVTZ
  Basis Set:
  @DF-RHF Final Energy:  -345.01058713861624
    Total Energy =                       -345.0105871386160175
    Molecular point group: c1
  Basis Set: CC-PVTZ
  Basis Set:
  Basis Set: CC-PVTZ
  Basis Set:
  @DF-RHF Final Energy:  -344.71525757049443
    Total Energy =                       -344.7152575704942592
  Basis Set: CC-PVTZ
  Basis Set:
  Basis Set: CC-PVTZ
  Basis Set:
  @DF-RHF Final Energy:  -344.86856784852705
    Total Energy =                       -344.8685678485269364
  Basis Set: CC-PVTZ
  Basis Set:
  Basis Set: CC-PVTZ
  Basis Set:
  @DF-RHF Final Energy:  -344.98873706809030
    Total Energy =                       -344.9887370680903018
  Basis Set: CC-PVTZ
  Basis Set:
  @DF-RHF Final Energy:  -345.01328915241749
    Total Energy =                       -345.0132891524178831
  @DF-RHF Final Energy:  -345.01555049548585
    Total Energy =                       -345.0155504954858543
  @DF-RHF Final Energy:  -345.01662457418348
    Total Energy =                       -345.0166245741830835
  @DF-RHF Final Energy:  -345.01696699289903
    Total Energy =                       -345.0169669928987446
  Basis Set: CC-PVTZ
  Basis Set:
  @DF-RHF Final Energy:  -345.01699691832226
    Total Energy =                       -345.0169969183222065
  Basis Set: CC-PVTZ
  Basis Set:
  Basis Set: CC-PVTZ
  Basis Set:
  @DF-RHF Final Energy:  -345.01700006154385
    Total Energy =                       -345.0170000615438539
  Basis Set: CC-PVTZ
  Basis Set:
  Basis Set: CC-PVTZ
  Basis Set:
  @DF-RHF Final Energy:  -345.01700115070037
    Total Energy =                       -345.0170011507002528
  Basis Set: CC-PVTZ
  Basis Set:
  Charge       = 0
  Multiplicity = 1
  Basis Set: CC-PVTZ
  Basis Set:

    Orbital Energies (a.u.)
    -----------------------

    Doubly Occupied:

       1A    -20.585165     2A    -20.538758     3A    -11.367344
       4A    -11.292438     5A    -11.241778     6A    -11.224362
       7A    -11.216569     8A     -1.463170     9A     -1.370295
      10A     -1.083264    11A     -0.988932    12A     -0.964346
      13A     -0.838369    14A     -0.767041    15A     -0.703420
      16A     -0.685123    17A     -0.677091    18A     -0.641066
      19A     -0.613459    20A     -0.581575    21A     -0.568054
      22A     -0.547904    23A     -0.521602    24A     -0.497289
      25A     -0.491863    26A     -0.483879    27A     -0.456682
      28A     -0.437003

  @DF-RHF Final Energy:  -345.01700128536100

   => Energetics <=

    Nuclear Repulsion Energy =            313.9519066303889190
    One-Electron Energy =               -1092.2421335043322870
    Two-Electron Energy =                 433.2732255885821360
    DFT Exchange-Correlation Energy =       0.0000000000000000
    Empirical Dispersion Energy =           0.0000000000000000
    PCM Polarization Energy =               0.0000000000000000
    EFP Energy =                            0.0000000000000000
    Total Energy =                       -345.0170012853611752
    Molecular point group: c1
  Basis Set: CC-PVTZ
  Basis Set:

  -Total Gradient:
     Atom            X                  Y                   Z
    ------   -----------------  -----------------  -----------------
       1       -0.001527119385    -0.001056081965     0.003423547538
       2        0.002272098796     0.002297446591    -0.003364737153
       3        0.000029523113    -0.000007277033    -0.000044671594
       4       -0.000684896288    -0.002898479932    -0.002875812151
       5       -0.000034125901     0.000024270423     0.000004571626
       6       -0.000017319908     0.000011204327    -0.000000435527
       7        0.000004391359    -0.000013143009     0.000018485672
       8        0.000041226308    -0.000043666156    -0.000015469250
       9        0.000020745208    -0.000006648234    -0.000004242355
      10        0.000008387929    -0.000016601362    -0.000004121006
      11       -0.000002066537     0.000020471086     0.000009030588
      12       -0.000023804118    -0.000004731367     0.000009341026
      13       -0.000025831599     0.000016177008    -0.000003678184
      14       -0.000052402764     0.001638256202     0.002886037505
      15        0.000059505930    -0.000032692842    -0.000063615830
      16       -0.000068585532     0.000017480474     0.000000996303
      17        0.000000273393     0.000054015786     0.000024772794

  **** Optimization is complete! (in 12 steps) ****
    Final optimized geometry and variables:
    Molecular point group: c1

    Geometry (in Angstrom), charge = 0, multiplicity = 1:

    O            0.408854192736     1.611476923502     0.585251692252
    C            0.582188143653     0.473663223442     0.341203640783
    C           -0.411137082306    -0.392714630864    -0.399855585175
    O            1.729723168035    -0.122220616186     0.700728704094
    C           -1.570356321188     0.391490443871    -1.000897546784
    H            0.130673080400    -0.937869189534    -1.166291040503
    H           -0.787256750101    -1.141060230310     0.291748551182
    C           -2.553378529859    -0.511043929407    -1.738420681578
    H           -1.179239347006     1.142230435716    -1.676946693221
    H           -2.080417542383     0.931354586949    -0.213454683830
    H           -2.070145368725    -1.040686985940    -2.552867300153
    H           -3.366894243738     0.067555205273    -2.158877465741
    H           -2.985651252266    -1.251735926557    -1.073376048041
    C            1.704843408277    -1.342117744717     1.401273003075
    H            1.070664067010    -1.273709146170     2.276759643739
    H            2.717905599091    -1.529416793532     1.717448701905
    H            1.374237444827    -2.162212373181     0.776648154049

  Mulliken Charges: (a.u.)
   Center  Symbol    Alpha    Beta     Spin     Total
       1     O     4.17009  4.17009  0.00000 -0.34017
       2     C     2.79988  2.79988  0.00000  0.40025
       3     C     3.12405  3.12405  0.00000 -0.24810
       4     O     4.14683  4.14683  0.00000 -0.29365
       5     C     3.08104  3.08104  0.00000 -0.16208
       6     H     0.43726  0.43726  0.00000  0.12547
       7     H     0.44507  0.44507  0.00000  0.10986
       8     C     3.15012  3.15012  0.00000 -0.30023
       9     H     0.44522  0.44522  0.00000  0.10956
      10     H     0.44345  0.44345  0.00000  0.11309
      11     H     0.45581  0.45581  0.00000  0.08839
      12     H     0.44443  0.44443  0.00000  0.11114
      13     H     0.45661  0.45661  0.00000  0.08677
      14     C     3.04615  3.04615  0.00000 -0.09229
      15     H     0.45767  0.45767  0.00000  0.08466
      16     H     0.43555  0.43555  0.00000  0.12890
      17     H     0.46078  0.46078  0.00000  0.07844

   Total alpha = 28.00000, Total beta = 28.00000, Total charge = -0.00000

*** Psi4 exiting successfully. Buy a developer a beer!
