                              Psi4 1.0.54 Driver

  ==> Input File <==

--------------------------------------------------------------------------
set {
	reference rhf
	basis cc-pvtz
}

set_num_threads( 4 )
memory 2 gb

molecule MOL {
0 1

H	 0.010765	 -0.305595	 0.666595
N	 -0.625934	 -0.663929	 -0.000707
C	 -1.978635	 -0.158664	 0.001017
C	 -0.178572	 -1.600336	 -0.866496
H	 -2.519057	 -0.493535	 -0.876362
H	 -1.938890	 0.917202	 -0.004137
H	 -2.514266	 -0.485137	 0.884506
C	 1.275584	 -1.978466	 -0.689663
O	 -0.864932	 -2.093004	 -1.712229
H	 1.443902	 -2.380047	 0.302809
H	 1.535992	 -2.720682	 -1.426121
H	 1.910966	 -1.109110	 -0.812666

	symmetry c1
}
set optking {
	frozen_dihedral = ("
		4 2 3 5
	")
}

ee,wfn = optimize('scf', return_wfn=True)
oeprop( wfn, 'DIPOLE', 'QUADRUPOLE', 'MULLIKEN_CHARGES')
f=open( 'psi4out.xyz', 'w' )
f.write( "12  " )
f.write( str(ee) + "\n" )
f.write( MOL.save_string_xyz() )
f.close()
--------------------------------------------------------------------------

    Molecular point group: c1
  Charge       = 0
  Multiplicity = 1
  Basis Set: CC-PVTZ
  Basis Set:
  @DF-RHF Final Energy:  -247.10056603892454
    Total Energy =                       -247.1005660389245122
    Molecular point group: c1
  Basis Set: CC-PVTZ
  Basis Set:
  Basis Set: CC-PVTZ
  Basis Set:
  @DF-RHF Final Energy:  -247.10091563187515
    Total Energy =                       -247.1009156318751820
  Basis Set: CC-PVTZ
  Basis Set:
  Basis Set: CC-PVTZ
  Basis Set:
  @DF-RHF Final Energy:  -247.10083831542468
    Total Energy =                       -247.1008383154246530
  Basis Set: CC-PVTZ
  Basis Set:
  Basis Set: CC-PVTZ
  Basis Set:
  @DF-RHF Final Energy:  -247.10100188568791
    Total Energy =                       -247.1010018856877650
  Basis Set: CC-PVTZ
  Basis Set:
  Basis Set: CC-PVTZ
  Basis Set:
  @DF-RHF Final Energy:  -247.10100498481921
    Total Energy =                       -247.1010049848189283
  Basis Set: CC-PVTZ
  Basis Set:
  Basis Set: CC-PVTZ
  Basis Set:
  @DF-RHF Final Energy:  -247.10100832351981
    Total Energy =                       -247.1010083235196930
  Basis Set: CC-PVTZ
  Basis Set:
  Charge       = 0
  Multiplicity = 1
  Basis Set: CC-PVTZ
  Basis Set:

    Orbital Energies (a.u.)
    -----------------------

    Doubly Occupied:

       1A    -20.506711     2A    -15.574863     3A    -11.336844
       4A    -11.252463     5A    -11.228090     6A     -1.388531
       7A     -1.231003     8A     -1.016697     9A     -0.932851
      10A     -0.788191    11A     -0.690967    12A     -0.651696
      13A     -0.635374    14A     -0.586768    15A     -0.582988
      16A     -0.555658    17A     -0.544994    18A     -0.511218
      19A     -0.417321    20A     -0.389362

  @DF-RHF Final Energy:  -247.10100894615579

   => Energetics <=

    Nuclear Repulsion Energy =            181.6478269074166860
    One-Electron Energy =                -695.8524911757017435
    Two-Electron Energy =                 267.1036553221290433
    DFT Exchange-Correlation Energy =       0.0000000000000000
    Empirical Dispersion Energy =           0.0000000000000000
    PCM Polarization Energy =               0.0000000000000000
    EFP Energy =                            0.0000000000000000
    Total Energy =                       -247.1010089461560710
    Molecular point group: c1
  Basis Set: CC-PVTZ
  Basis Set:

  -Total Gradient:
     Atom            X                  Y                   Z
    ------   -----------------  -----------------  -----------------
       1        0.000034558898    -0.000035956556    -0.000019136960
       2       -0.000097856594    -0.000053480033     0.000213347444
       3        0.000028108127     0.000079904221    -0.000186627132
       4        0.000050784450     0.000029648529    -0.000125502949
       5       -0.000030646393    -0.000091423963     0.000054271739
       6        0.000011353332     0.000019676930     0.000013704206
       7        0.000015643946     0.000015102139     0.000019777173
       8       -0.000012085435    -0.000015954095     0.000038358621
       9       -0.000025188716     0.000031646764    -0.000000342237
      10        0.000022591473     0.000010846882     0.000008133482
      11       -0.000000205717    -0.000000982744    -0.000000881063
      12        0.000002942628     0.000010971927    -0.000015102330

  **** Optimization is complete! (in 7 steps) ****
    Final optimized geometry and variables:
    Molecular point group: c1

    Geometry (in Angstrom), charge = 0, multiplicity = 1:

    H            0.477998471298     0.985946499609     1.320713846267
    N           -0.144525578811     0.642359572662     0.632513606153
    C           -1.502704568915     1.132525520196     0.628395624342
    C            0.307326876259    -0.309215529657    -0.214548327640
    H           -2.000337105278     0.750689510981    -0.246836016130
    H           -1.515138287287     2.214954813085     0.596927995148
    H           -2.045535267759     0.804288295332     1.507579844201
    C            1.757960844939    -0.691704279327    -0.017345805717
    O           -0.374416333052    -0.812439402692    -1.057599495745
    H            1.910979538250    -1.091627641005     0.978421668234
    H            2.025585992026    -1.437353798886    -0.747838459610
    H            2.398213371700     0.174929656388    -0.133538318961

  Mulliken Charges: (a.u.)
   Center  Symbol    Alpha    Beta     Spin     Total
       1     H     0.41041  0.41041  0.00000  0.17917
       2     N     3.62172  3.62172  0.00000 -0.24345
       3     C     3.08552  3.08552  0.00000 -0.17104
       4     C     2.83663  2.83663  0.00000  0.32675
       5     H     0.43148  0.43148  0.00000  0.13704
       6     H     0.45523  0.45523  0.00000  0.08955
       7     H     0.45629  0.45629  0.00000  0.08742
       8     C     3.15358  3.15358  0.00000 -0.30716
       9     O     4.21551  4.21551  0.00000 -0.43102
      10     H     0.45008  0.45008  0.00000  0.09984
      11     H     0.43354  0.43354  0.00000  0.13293
      12     H     0.45001  0.45001  0.00000  0.09999

   Total alpha = 20.00000, Total beta = 20.00000, Total charge = -0.00000

*** Psi4 exiting successfully. Buy a developer a beer!
