  ==> Input File <==

--------------------------------------------------------------------------
set {
	reference rhf
	basis cc-pvtz
}

set_num_threads( 4 )
memory 2 gb

molecule MOL {
0 1

H	 2.884018	 0.847261	 -1.164007
N	 2.070096	 0.270104	 -1.167251
C	 1.263552	 0.494993	 0.021953
H	 2.381285	 -0.677749	 -1.212787
C	 -0.016533	 -0.325589	 -0.026925
H	 1.011109	 1.549541	 0.056540
H	 1.798210	 0.270832	 0.946007
C	 -1.280353	 0.525521	 0.047747
H	 -0.016686	 -0.912532	 -0.939714
H	 -0.014099	 -1.037598	 0.796369
C	 -2.560681	 -0.301323	 -0.007747
H	 -1.279957	 1.241025	 -0.770189
H	 -1.270445	 1.110526	 0.963468
H	 -2.617064	 -0.872870	 -0.928010
H	 -3.439525	 0.331102	 0.043462
H	 -2.609427	 -1.002736	 0.818585

	symmetry c1
}
set optking {
	frozen_dihedral = ("
		6 3 5 9
	")
}

ee = optimize('scf')
oeprop('DIPOLE', 'QUADRUPOLE', 'MULLIKEN_CHARGES')
f=open( 'psi4out.xyz', 'w' )
f.write( "16  " )
f.write( str(ee) + "\n" )
f.write( MOL.save_string_xyz() )
f.close()
--------------------------------------------------------------------------

    Molecular point group: c1
  Charge       = 0
  Multiplicity = 1
  Basis Set: CC-PVTZ
  Basis Set:
  @DF-RHF Final Energy:  -212.39427830562354
    Total Energy =                       -212.3942783056234589
    Molecular point group: c1
  Basis Set: CC-PVTZ
  Basis Set:
  Basis Set: CC-PVTZ
  Basis Set:
  @DF-RHF Final Energy:  -212.39455276404493
    Total Energy =                       -212.3945527640448745
  Basis Set: CC-PVTZ
  Basis Set:
  Basis Set: CC-PVTZ
  Basis Set:
  @DF-RHF Final Energy:  -212.39463562225711
    Total Energy =                       -212.3946356222571126
  Basis Set: CC-PVTZ
  Basis Set:
  Charge       = 0
  Multiplicity = 1
  Basis Set: CC-PVTZ
  Basis Set:

    Orbital Energies (a.u.)
    -----------------------

    Doubly Occupied:

       1A    -15.527155     2A    -11.238152     3A    -11.211225
       4A    -11.207736     5A    -11.204217     6A     -1.177371
       7A     -1.058359     8A     -0.957144     9A     -0.845181
      10A     -0.792105    11A     -0.657438    12A     -0.645789
      13A     -0.596999    14A     -0.576996    15A     -0.571468
      16A     -0.515608    17A     -0.504736    18A     -0.466788
      19A     -0.465261    20A     -0.462366    21A     -0.382013

  @DF-RHF Final Energy:  -212.39463640947113

   => Energetics <=

    Nuclear Repulsion Energy =            186.7938922065156646
    One-Electron Energy =                -656.2488399927185583
    Two-Electron Energy =                 257.0603113767318746
    DFT Exchange-Correlation Energy =       0.0000000000000000
    Empirical Dispersion Energy =           0.0000000000000000
    PCM Polarization Energy =               0.0000000000000000
    EFP Energy =                            0.0000000000000000
    Total Energy =                       -212.3946364094709907
    Molecular point group: c1
  Basis Set: CC-PVTZ
  Basis Set:

  -Total Gradient:
     Atom            X                  Y                   Z
    ------   -----------------  -----------------  -----------------
       1        0.000011518043     0.000004939436    -0.000017079765
       2       -0.000009333356     0.000048935201     0.000072037412
       3        0.000077049351    -0.000139303469    -0.000459506183
       4       -0.000029569309     0.000020629512     0.000027806856
       5       -0.000221228688     0.000344640838    -0.000093695753
       6        0.000013011829    -0.000010614957     0.000284654962
       7        0.000009516594     0.000014355011     0.000027206325
       8        0.000028938905    -0.000040134061     0.000023326293
       9        0.000149292461    -0.000248450921     0.000132066679
      10        0.000000375175    -0.000002930609    -0.000002736102
      11       -0.000026433094    -0.000003131017    -0.000002299754
      12        0.000007025276    -0.000000365971     0.000007358367
      13       -0.000006560770     0.000007929741     0.000007143700
      14        0.000001978865    -0.000000647651     0.000003779067
      15       -0.000006420634    -0.000000324517    -0.000003031104
      16        0.000000839350     0.000004473435    -0.000007030999

  **** Optimization is complete! (in 4 steps) ****
    Final optimized geometry and variables:
    Molecular point group: c1

    Geometry (in Angstrom), charge = 0, multiplicity = 1:

    H            2.972274531513     0.722820059055    -0.920284083837
    N            2.152172684402     0.153688708309    -0.935683982595
    C            1.349260594980     0.365844202715     0.261251930920
    H            2.456734761329    -0.795827753487    -0.994029819649
    C            0.050288627628    -0.457028536049     0.218382075313
    H            1.108913138416     1.421679379205     0.304981236629
    H            1.896027819763     0.138881116213     1.175496387627
    C           -1.215906338025     0.393437255768     0.280783497097
    H            0.040570622219    -1.037051241641    -0.698273777399
    H            0.036634671899    -1.171969309809     1.035782741913
    C           -2.495741680818    -0.433250384565     0.230500275038
    H           -1.206721675260     1.099155916171    -0.544787441885
    H           -1.205912403238     0.986955604103     1.191425838925
    H           -2.550264711459    -1.012526790185    -0.685207683963
    H           -3.374597902837     0.199848322413     0.274087281177
    H           -2.546935700819    -1.127605707965     1.062842088450

  Mulliken Charges: (a.u.)
   Center  Symbol    Alpha    Beta     Spin     Total
       1     H     0.42991  0.42991  0.00000  0.14018
       2     N     3.68759  3.68759  0.00000 -0.37517
       3     C     3.03278  3.03278  0.00000 -0.06556
       4     H     0.43080  0.43080  0.00000  0.13841
       5     C     3.08392  3.08392  0.00000 -0.16784
       6     H     0.45895  0.45895  0.00000  0.08210
       7     H     0.46396  0.46396  0.00000  0.07209
       8     C     3.08639  3.08639  0.00000 -0.17278
       9     H     0.45464  0.45464  0.00000  0.09071
      10     H     0.45441  0.45441  0.00000  0.09118
      11     C     3.15071  3.15071  0.00000 -0.30142
      12     H     0.45083  0.45083  0.00000  0.09834
      13     H     0.45564  0.45564  0.00000  0.08872
      14     H     0.45429  0.45429  0.00000  0.09142
      15     H     0.44900  0.44900  0.00000  0.10200
      16     H     0.45619  0.45619  0.00000  0.08763

   Total alpha = 21.00000, Total beta = 21.00000, Total charge = -0.00000
