  ==> Input File <==

--------------------------------------------------------------------------
set {
	reference rhf
	basis cc-pvtz
}

set_num_threads( 4 )
memory 2 gb

molecule MOL {
0 1

O	 -2.374409	 1.338660	 -0.336961
C	 -2.104891	 0.204655	 -0.107126
C	 -0.881910	 -0.448129	 -0.720509
C	 -2.949910	 -0.638219	 0.818225
C	 -0.556886	 0.166848	 -2.087624
H	 -1.097707	 -1.502460	 -0.838534
H	 -0.028886	 -0.346330	 -0.058049
C	 0.663172	 -0.480661	 -2.739312
H	 -1.427173	 0.061323	 -2.722993
H	 -0.377699	 1.233537	 -1.976430
C	 1.068787	 0.133262	 -4.080387
H	 0.474100	 -1.542828	 -2.873601
H	 1.504788	 -0.405589	 -2.056193
C	 0.056461	 -0.067413	 -5.205467
H	 2.015845	 -0.303029	 -4.382112
H	 1.254815	 1.195757	 -3.946851
H	 -0.152909	 -1.121347	 -5.357049
H	 0.437434	 0.330385	 -6.138948
H	 -0.883740	 0.429776	 -5.000272
H	 -3.440322	 -1.417144	 0.243099
H	 -3.694377	 -0.025850	 1.303346
H	 -2.331085	 -1.129829	 1.560495

	symmetry c1
}
set optking {
	frozen_dihedral = ("
		6 3 2 1
	")
}

ee = optimize('scf')
oeprop('DIPOLE', 'QUADRUPOLE', 'MULLIKEN_CHARGES')
f=open( 'psi4out.xyz', 'w' )
f.write( "22  " )
f.write( str(ee) + "\n" )
f.write( MOL.save_string_xyz() )
f.close()
--------------------------------------------------------------------------

    Molecular point group: c1
  Charge       = 0
  Multiplicity = 1
  Basis Set: CC-PVTZ
  Basis Set:
  @DF-RHF Final Energy:  -348.22334379452730
    Total Energy =                       -348.2233437945270111
    Molecular point group: c1
  Basis Set: CC-PVTZ
  Basis Set:
  Basis Set: CC-PVTZ
  Basis Set:
  @DF-RHF Final Energy:  -348.22433684244749
    Total Energy =                       -348.2243368424473715
  Basis Set: CC-PVTZ
  Basis Set:
  Basis Set: CC-PVTZ
  Basis Set:
  @DF-RHF Final Energy:  -348.22345542947517
    Total Energy =                       -348.2234554294751092
  Basis Set: CC-PVTZ
  Basis Set:
  Basis Set: CC-PVTZ
  Basis Set:
  @DF-RHF Final Energy:  -348.22468117875678
    Total Energy =                       -348.2246811787568959
  Basis Set: CC-PVTZ
  Basis Set:
  Basis Set: CC-PVTZ
  Basis Set:
  @DF-RHF Final Energy:  -348.22469010426653
    Total Energy =                       -348.2246901042661307
  Basis Set: CC-PVTZ
  Basis Set:
  Basis Set: CC-PVTZ
  Basis Set:
  @DF-RHF Final Energy:  -348.22467825367193
    Total Energy =                       -348.2246782536722094
  Basis Set: CC-PVTZ
  Basis Set:
  Basis Set: CC-PVTZ
  Basis Set:
  @DF-RHF Final Energy:  -348.22469391371902
    Total Energy =                       -348.2246939137198751
  Basis Set: CC-PVTZ
  Basis Set:
  Charge       = 0
  Multiplicity = 1
  Basis Set: CC-PVTZ
  Basis Set:

    Orbital Energies (a.u.)
    -----------------------

    Doubly Occupied:

       1A    -20.537942     2A    -11.320654     3A    -11.230042
       4A    -11.227025     5A    -11.216410     6A    -11.215817
       7A    -11.214842     8A    -11.206796     9A     -1.398401
      10A     -1.092408    11A     -1.044231    12A     -1.002151
      13A     -0.936260    14A     -0.855615    15A     -0.782556
      16A     -0.732146    17A     -0.655953    18A     -0.653181
      19A     -0.631901    20A     -0.612121    21A     -0.605083
      22A     -0.581339    23A     -0.559466    24A     -0.549649
      25A     -0.522964    26A     -0.517179    27A     -0.499683
      28A     -0.484741    29A     -0.465398    30A     -0.463484
      31A     -0.459774    32A     -0.400608

  @DF-RHF Final Energy:  -348.22469399015415

   => Energetics <=

    Nuclear Repulsion Energy =            372.8179488803658614
    One-Electron Energy =               -1210.7336420311703478
    Two-Electron Energy =                 489.6909991606501080
    DFT Exchange-Correlation Energy =       0.0000000000000000
    Empirical Dispersion Energy =           0.0000000000000000
    PCM Polarization Energy =               0.0000000000000000
    EFP Energy =                            0.0000000000000000
    Total Energy =                       -348.2246939901543783
    Molecular point group: c1
  Basis Set: CC-PVTZ
  Basis Set:

  -Total Gradient:
     Atom            X                  Y                   Z
    ------   -----------------  -----------------  -----------------
       1        0.000835282264     0.000457816080     0.001008730720
       2       -0.001015152334    -0.000670814533    -0.001131106908
       3       -0.000380593123     0.000425239325    -0.001070383864
       4       -0.000047426430    -0.000015805506    -0.000047601210
       5       -0.000006361070    -0.000005860354     0.000002693485
       6        0.000581157934    -0.000195981504     0.001209333323
       7        0.000000062959    -0.000004034455     0.000001510954
       8       -0.000004094498    -0.000004709657    -0.000003985335
       9        0.000007540028    -0.000003958251     0.000015622303
      10       -0.000001429930     0.000007355607    -0.000009547376
      11       -0.000014160133     0.000021857968     0.000007340510
      12       -0.000010700092    -0.000000091699    -0.000002871665
      13        0.000003543863    -0.000007618707    -0.000000166267
      14        0.000004600457    -0.000003673026    -0.000009057760
      15        0.000000162100     0.000002844760     0.000007731317
      16       -0.000004205009     0.000004815192    -0.000001331535
      17       -0.000004287419    -0.000003364500    -0.000000311898
      18        0.000002413011    -0.000004691574    -0.000000545675
      19        0.000015460735     0.000000315337    -0.000010105431
      20        0.000013075278    -0.000006402008     0.000019753998
      21        0.000009815221     0.000001334807     0.000002675673
      22        0.000015296186     0.000005426698     0.000011622641

  **** Optimization is complete! (in 8 steps) ****
    Final optimized geometry and variables:
    Molecular point group: c1

    Geometry (in Angstrom), charge = 0, multiplicity = 1:

    O           -1.561360759934     1.298542012308     1.479549513607
    C           -1.242881154725     0.178190158191     1.711310077704
    C           -0.055692105388    -0.477246046246     1.033449270727
    C           -1.980763983005    -0.657812950093     2.730430677951
    C            0.314854277263     0.133312044743    -0.312310415341
    H           -0.235499595854    -1.544690972676     0.949549716392
    H            0.774504763574    -0.379184092107     1.731821213233
    C            1.549006257922    -0.523734332607    -0.927011134849
    H           -0.533150643040     0.044089372089    -0.981602019085
    H            0.487717139009     1.194417545994    -0.181878325111
    C            2.011922566112     0.101190468751    -2.244180054527
    H            1.357962584745    -1.583462182583    -1.082976538138
    H            2.366837889400    -0.465892380088    -0.213442320361
    C            1.040407028131    -0.073294228519    -3.408916375131
    H            2.964887925126    -0.341847479670    -2.516563073955
    H            2.202875900886     1.159557656705    -2.089498150499
    H            0.822838506676    -1.122764839292    -3.580905167434
    H            1.461623388000     0.329258295393    -4.322923818598
    H            0.100569845204     0.435600263889    -3.233217507339
    H           -2.509145477307    -1.458603921569     2.223358149262
    H           -2.687416840032    -0.045977623391     3.269754154105
    H           -1.284403972352    -1.119494835619     3.421689671626

  Mulliken Charges: (a.u.)
   Center  Symbol    Alpha    Beta     Spin     Total
       1     O     4.17298  4.17298  0.00000 -0.34595
       2     C     2.86053  2.86053  0.00000  0.27893
       3     C     3.11151  3.11151  0.00000 -0.22302
       4     C     3.15280  3.15280  0.00000 -0.30560
       5     C     3.08865  3.08865  0.00000 -0.17730
       6     H     0.44501  0.44501  0.00000  0.10997
       7     H     0.44412  0.44412  0.00000  0.11176
       8     C     3.09600  3.09600  0.00000 -0.19200
       9     H     0.44955  0.44955  0.00000  0.10090
      10     H     0.44014  0.44014  0.00000  0.11972
      11     C     3.09002  3.09002  0.00000 -0.18004
      12     H     0.45529  0.45529  0.00000  0.08941
      13     H     0.44990  0.44990  0.00000  0.10020
      14     C     3.15278  3.15278  0.00000 -0.30556
      15     H     0.44860  0.44860  0.00000  0.10280
      16     H     0.45314  0.45314  0.00000  0.09372
      17     H     0.45588  0.45588  0.00000  0.08824
      18     H     0.44612  0.44612  0.00000  0.10775
      19     H     0.45159  0.45159  0.00000  0.09682
      20     H     0.44896  0.44896  0.00000  0.10208
      21     H     0.43596  0.43596  0.00000  0.12808
      22     H     0.45045  0.45045  0.00000  0.09909

   Total alpha = 32.00000, Total beta = 32.00000, Total charge = -0.00000
