                              Psi4 1.0.54 Driver

  ==> Input File <==

--------------------------------------------------------------------------
set {
	reference rhf
	basis cc-pvtz
}

set_num_threads( 4 )
memory 2 gb

molecule MOL {
0 1

H	 3.889604	 0.356866	 -0.089510
N	 3.091268	 -0.241216	 -0.065538
C	 1.860978	 0.530248	 0.016256
H	 3.192566	 -0.835836	 0.730398
C	 0.644130	 -0.381765	 -0.031064
H	 1.835721	 1.204666	 -0.833114
H	 1.808789	 1.151975	 0.911067
C	 -0.678115	 0.376691	 0.025731
H	 0.693998	 -0.977147	 -0.936845
H	 0.693309	 -1.082142	 0.800523
C	 -0.796154	 1.466018	 -1.036642
H	 -0.793361	 0.825103	 1.009906
H	 -1.503487	 -0.322445	 -0.087591
C	 -2.116672	 2.226139	 -0.972436
H	 0.027827	 2.165294	 -0.925461
H	 -0.685145	 1.019984	 -2.021274
H	 -2.241589	 2.713139	 -0.010944
H	 -2.167696	 2.990966	 -1.738884
H	 -2.960157	 1.558645	 -1.114986

	symmetry c1
}
set optking {
	frozen_dihedral = ("
		12 8 5 9
	")
}

ee,wfn = optimize('scf', return_wfn=True)
oeprop( wfn, 'DIPOLE', 'QUADRUPOLE', 'MULLIKEN_CHARGES')
f=open( 'psi4out.xyz', 'w' )
f.write( "19  " )
f.write( str(ee) + "\n" )
f.write( MOL.save_string_xyz() )
f.close()
--------------------------------------------------------------------------

    Molecular point group: c1
  Charge       = 0
  Multiplicity = 1
  Basis Set: CC-PVTZ
  Basis Set:
  @DF-RHF Final Energy:  -251.44465993062096
    Total Energy =                       -251.4446599306207872
    Molecular point group: c1
  Basis Set: CC-PVTZ
  Basis Set:
  Basis Set: CC-PVTZ
  Basis Set:
  @DF-RHF Final Energy:  -251.44550765092279
    Total Energy =                       -251.4455076509226501
  Basis Set: CC-PVTZ
  Basis Set:
  Basis Set: CC-PVTZ
  Basis Set:
  @DF-RHF Final Energy:  -251.44608586273174
    Total Energy =                       -251.4460858627318771
  Basis Set: CC-PVTZ
  Basis Set:
  Basis Set: CC-PVTZ
  Basis Set:
  @DF-RHF Final Energy:  -251.44613756090521
    Total Energy =                       -251.4461375609052993
  Basis Set: CC-PVTZ
  Basis Set:
  Basis Set: CC-PVTZ
  Basis Set:
  @DF-RHF Final Energy:  -251.44614142451471
    Total Energy =                       -251.4461414245148489
  Basis Set: CC-PVTZ
  Basis Set:
  Charge       = 0
  Multiplicity = 1
  Basis Set: CC-PVTZ
  Basis Set:

    Orbital Energies (a.u.)
    -----------------------

    Doubly Occupied:

       1A    -15.526345     2A    -11.237581     3A    -11.211957
       4A    -11.210736     5A    -11.208078     6A    -11.205716
       7A     -1.178230     8A     -1.073589     9A     -0.997658
      10A     -0.900095    11A     -0.831478    12A     -0.773926
      13A     -0.665958    14A     -0.638013    15A     -0.614951
      16A     -0.595281    17A     -0.571071    18A     -0.550296
      19A     -0.526773    20A     -0.500635    21A     -0.490166
      22A     -0.461302    23A     -0.456888    24A     -0.448138
      25A     -0.383837

  @DF-RHF Final Energy:  -251.44614216864750

   => Energetics <=

    Nuclear Repulsion Energy =            249.4728398194057490
    One-Electron Energy =                -833.3205620605590411
    Two-Electron Energy =                 332.4015800725056238
    DFT Exchange-Correlation Energy =       0.0000000000000000
    Empirical Dispersion Energy =           0.0000000000000000
    PCM Polarization Energy =               0.0000000000000000
    EFP Energy =                            0.0000000000000000
    Total Energy =                       -251.4461421686476683
    Molecular point group: c1
  Basis Set: CC-PVTZ
  Basis Set:

  -Total Gradient:
     Atom            X                  Y                   Z
    ------   -----------------  -----------------  -----------------
       1       -0.000019085362     0.000007743961     0.000001134655
       2       -0.000013285659    -0.000027508525    -0.000001940817
       3       -0.000003808391     0.000036638083    -0.000001016401
       4        0.000002823962    -0.000004851878     0.000005748893
       5        0.000773131640     0.001397928321    -0.000993949459
       6       -0.000003463149     0.000002543115    -0.000005812396
       7       -0.000000438374     0.000004181105     0.000003586973
       8        0.000887000727     0.001536186128    -0.000497852492
       9       -0.000790147247    -0.001404416919     0.000899049423
      10       -0.000017622896     0.000002830790     0.000001917653
      11        0.000002544010    -0.000029975993    -0.000054352984
      12       -0.000856400300    -0.001516263036     0.000625760835
      13        0.000021799033    -0.000007456019    -0.000000469447
      14        0.000009869867    -0.000001795149     0.000029328347
      15       -0.000000808914     0.000000974943    -0.000000388054
      16        0.000003908800     0.000001054343    -0.000017022917
      17       -0.000011419963     0.000006131296     0.000014870855
      18        0.000014072211     0.000002513698     0.000000242678
      19        0.000001330008    -0.000006458260    -0.000008835346

  **** Optimization is complete! (in 6 steps) ****
    Final optimized geometry and variables:
    Molecular point group: c1

    Geometry (in Angstrom), charge = 0, multiplicity = 1:

    H            3.577282010223    -0.422466037514     0.407935752655
    N            2.745507992402    -0.973487797501     0.411349560391
    C            1.559125053796    -0.133406658266     0.367826529724
    H            2.761158442496    -1.527327438682     1.242120850684
    C            0.304046286514    -0.990882913560     0.283459528362
    H            1.638016717242     0.496185672238    -0.509828702843
    H            1.478834182236     0.534196591968     1.227788400287
    C           -1.014759575370    -0.218833906886     0.339475407088
    H            0.345492859278    -1.594800550712    -0.617375362422
    H            0.317414798382    -1.696091175281     1.111705401725
    C           -1.200710759288     0.837713062666    -0.747532326506
    H           -1.125528391729     0.240660859464     1.319212754077
    H           -1.825678101591    -0.938331172842     0.263005726689
    C           -2.587043488165     1.473320317057    -0.719164154915
    H           -0.453579820470     1.617180984256    -0.640808158722
    H           -1.032000754675     0.383690284570    -1.720627011506
    H           -2.777037281554     1.954368756325     0.234792135154
    H           -2.691209581017     2.224279315436    -1.493954038828
    H           -3.361967407778     0.729696978613    -0.872525918722

  Mulliken Charges: (a.u.)
   Center  Symbol    Alpha    Beta     Spin     Total
       1     H     0.43000  0.43000  0.00000  0.13999
       2     N     3.68993  3.68993  0.00000 -0.37986
       3     C     3.02719  3.02719  0.00000 -0.05437
       4     H     0.43091  0.43091  0.00000  0.13818
       5     C     3.08935  3.08935  0.00000 -0.17870
       6     H     0.45450  0.45450  0.00000  0.09100
       7     H     0.46780  0.46780  0.00000  0.06441
       8     C     3.10119  3.10119  0.00000 -0.20238
       9     H     0.44835  0.44835  0.00000  0.10331
      10     H     0.45528  0.45528  0.00000  0.08945
      11     C     3.08730  3.08730  0.00000 -0.17460
      12     H     0.45456  0.45456  0.00000  0.09088
      13     H     0.44957  0.44957  0.00000  0.10086
      14     C     3.14944  3.14944  0.00000 -0.29887
      15     H     0.45352  0.45352  0.00000  0.09297
      16     H     0.45253  0.45253  0.00000  0.09495
      17     H     0.45551  0.45551  0.00000  0.08898
      18     H     0.44854  0.44854  0.00000  0.10291
      19     H     0.45455  0.45455  0.00000  0.09090

   Total alpha = 25.00000, Total beta = 25.00000, Total charge = -0.00000

*** Psi4 exiting successfully. Buy a developer a beer!
