                              Psi4 1.0.54 Driver

  ==> Input File <==

--------------------------------------------------------------------------
set {
	reference rhf
	basis cc-pvtz
}

set_num_threads( 4 )
memory 2 gb

molecule MOL {
0 1

H	 -2.266619	 1.169943	 0.000098
O	 -1.438073	 1.611259	 0.000041
C	 -0.408657	 0.734701	 0.000005
C	 -0.625638	 -0.483468	 0.616764
C	 0.815648	 1.029999	 -0.588203
H	 -1.583948	 -0.673254	 1.058979
C	 0.380520	 -1.425389	 0.654149
C	 1.808389	 0.064997	 -0.535648
C	 1.050845	 2.359809	 -1.260878
H	 0.204830	 -2.368882	 1.134704
C	 1.606194	 -1.155717	 0.076714
H	 2.760304	 0.277909	 -0.985642
H	 0.934199	 3.188323	 -0.567858
H	 2.053495	 2.413592	 -1.659928
H	 0.365001	 2.519991	 -2.088093
H	 2.393525	 -1.883621	 0.101947

	symmetry c1
}
set optking {
	frozen_dihedral = ("
		4 3 2 1
	")
}

ee,wfn = optimize('scf', return_wfn=True)
oeprop( wfn, 'DIPOLE', 'QUADRUPOLE', 'MULLIKEN_CHARGES')
f=open( 'psi4out.xyz', 'w' )
f.write( "16  " )
f.write( str(ee) + "\n" )
f.write( MOL.save_string_xyz() )
f.close()
--------------------------------------------------------------------------

    Molecular point group: c1
  Charge       = 0
  Multiplicity = 1
  Basis Set: CC-PVTZ
  Basis Set:
  @DF-RHF Final Energy:  -344.71707633678750
    Total Energy =                       -344.7170763367874997
    Molecular point group: c1
  Basis Set: CC-PVTZ
  Basis Set:
  Basis Set: CC-PVTZ
  Basis Set:
  @DF-RHF Final Energy:  -344.71907946850280
    Total Energy =                       -344.7190794685026844
  Basis Set: CC-PVTZ
  Basis Set:
  Basis Set: CC-PVTZ
  Basis Set:
  @DF-RHF Final Energy:  -344.71925108234274
    Total Energy =                       -344.7192510823427938
  Basis Set: CC-PVTZ
  Basis Set:
  Basis Set: CC-PVTZ
  Basis Set:
  @DF-RHF Final Energy:  -344.71926539550935
    Total Energy =                       -344.7192653955095238
  Basis Set: CC-PVTZ
  Basis Set:
  Charge       = 0
  Multiplicity = 1
  Basis Set: CC-PVTZ
  Basis Set:

    Orbital Energies (a.u.)
    -----------------------

    Doubly Occupied:

       1A    -20.580026     2A    -11.289497     3A    -11.229454
       4A    -11.228609     5A    -11.225868     6A    -11.223647
       7A    -11.218063     8A    -11.213174     9A     -1.409323
      10A     -1.152955    11A     -1.047390    12A     -1.006340
      13A     -0.932193    14A     -0.845961    15A     -0.802873
      16A     -0.734937    17A     -0.674522    18A     -0.654586
      19A     -0.615193    20A     -0.598020    21A     -0.577279
      22A     -0.562223    23A     -0.545695    24A     -0.540521
      25A     -0.502288    26A     -0.484968    27A     -0.475644
      28A     -0.333566    29A     -0.311253

  @DF-RHF Final Energy:  -344.71926923054747

   => Energetics <=

    Nuclear Repulsion Energy =            350.8797480663027386
    One-Electron Energy =               -1163.1658972704685766
    Two-Electron Energy =                 467.5668799736185974
    DFT Exchange-Correlation Energy =       0.0000000000000000
    Empirical Dispersion Energy =           0.0000000000000000
    PCM Polarization Energy =               0.0000000000000000
    EFP Energy =                            0.0000000000000000
    Total Energy =                       -344.7192692305472974
    Molecular point group: c1
  Basis Set: CC-PVTZ
  Basis Set:

  -Total Gradient:
     Atom            X                  Y                   Z
    ------   -----------------  -----------------  -----------------
       1        0.000019455132    -0.000039462331    -0.002345198556
       2        0.000352257570     0.000355506299     0.003727431589
       3       -0.000953864057    -0.001002548113    -0.002919921446
       4        0.000578228885     0.000703019067     0.001491654846
       5       -0.000056319417     0.000088398315     0.000060777826
       6        0.000032165979    -0.000010593770    -0.000007329244
       7       -0.000031889435    -0.000025017755     0.000034623086
       8        0.000013540296    -0.000116926851    -0.000014215269
       9        0.000063099776     0.000022287337    -0.000024807281
      10        0.000029925744    -0.000025996207    -0.000005299383
      11        0.000045447156     0.000098236307    -0.000034555212
      12       -0.000003056082     0.000014032678    -0.000002945266
      13       -0.000019242723    -0.000001989184     0.000006495373
      14       -0.000022730128    -0.000023896729     0.000013206155
      15       -0.000017821735    -0.000002649992    -0.000005435929
      16       -0.000029196963    -0.000032399068     0.000025518713

  **** Optimization is complete! (in 5 steps) ****
    Final optimized geometry and variables:
    Molecular point group: c1

    Geometry (in Angstrom), charge = 0, multiplicity = 1:

    H           -2.587064429451     0.871878753662     0.115011287266
    O           -1.731301344934     1.260385642720     0.104796870915
    C           -0.767580008378     0.305463874065     0.136871840871
    C           -0.975836154838    -0.906375614389     0.763373824307
    C            0.459555136615     0.613369375543    -0.441470182799
    H           -1.926222608155    -1.110121556533     1.222127492578
    C            0.035632188506    -1.849026035758     0.802957148747
    C            1.456298381337    -0.342285635431    -0.379002144572
    C            0.675008666352     1.947713502332    -1.106051562213
    H           -0.135554488308    -2.791803069780     1.286359829732
    C            1.257299287320    -1.568978824638     0.231951028357
    H            2.410126127532    -0.124056229740    -0.822060859633
    H            0.542863220904     2.761189261218    -0.402851287274
    H            1.673614175745     2.011331011593    -1.516706324469
    H           -0.035843744853     2.103206569155    -1.908500966837
    H            2.049982290916    -2.291146719676     0.260663069665

  Mulliken Charges: (a.u.)
   Center  Symbol    Alpha    Beta     Spin     Total
       1     H     0.38646  0.38646  0.00000  0.22708
       2     O     4.17882  4.17882  0.00000 -0.35764
       3     C     2.87020  2.87020  0.00000  0.25959
       4     C     3.12858  3.12858  0.00000 -0.25717
       5     C     2.99526  2.99526  0.00000  0.00949
       6     H     0.43261  0.43261  0.00000  0.13479
       7     C     3.07303  3.07303  0.00000 -0.14606
       8     C     3.08452  3.08452  0.00000 -0.16904
       9     C     3.14138  3.14138  0.00000 -0.28276
      10     H     0.42261  0.42261  0.00000  0.15478
      11     C     3.08821  3.08821  0.00000 -0.17643
      12     H     0.42504  0.42504  0.00000  0.14993
      13     H     0.44606  0.44606  0.00000  0.10787
      14     H     0.45411  0.45411  0.00000  0.09178
      15     H     0.44835  0.44835  0.00000  0.10331
      16     H     0.42476  0.42476  0.00000  0.15048

   Total alpha = 29.00000, Total beta = 29.00000, Total charge = -0.00000

*** Psi4 exiting successfully. Buy a developer a beer!
