  ==> Input File <==

--------------------------------------------------------------------------
set {
	reference rhf
	basis 6-31G*
}

set_num_threads( 4 )
memory 2 gb

molecule MOL {
0 1

H	 -2.118061	 -1.596406	 0.267967
O	 -2.310168	 -0.871793	 -0.309793
C	 -2.026376	 0.340750	 0.341611
C	 -0.673256	 0.843270	 -0.132153
H	 -2.792215	 1.080697	 0.115987
H	 -2.013526	 0.200402	 1.421792
C	 0.486613	 -0.083066	 0.235839
H	 -0.715586	 0.970948	 -1.210718
H	 -0.508072	 1.829858	 0.297090
C	 1.840406	 0.433480	 -0.254303
H	 0.300215	 -1.068318	 -0.178947
H	 0.519509	 -0.203625	 1.318070
C	 3.000220	 -0.489290	 0.118523
H	 1.809207	 0.553576	 -1.335192
H	 2.021860	 1.424500	 0.157276
H	 2.864959	 -1.479103	 -0.307933
H	 3.946603	 -0.099227	 -0.243630
H	 3.080049	 -0.602997	 1.196117

	symmetry c1
}
set optking {
	frozen_dihedral = ("
		1 2 3 4
	")
}

ee = optimize('scf')
oeprop('DIPOLE', 'QUADRUPOLE', 'MULLIKEN_CHARGES')
f=open( 'psi4out.xyz', 'w' )
f.write( "18  " )
f.write( str(ee) + "\n" )
f.write( MOL.save_string_xyz() )
f.close()
--------------------------------------------------------------------------

    Molecular point group: c1
  Charge       = 0
  Multiplicity = 1
  Basis Set: 6-31G*
  Basis Set:
  @DF-RHF Final Energy:  -271.17758685476940
    Total Energy =                       -271.1775868547695154
    Molecular point group: c1
  Basis Set: 6-31G*
  Basis Set:
  Basis Set: 6-31G*
  Basis Set:
  @DF-RHF Final Energy:  -271.17843595820256
    Total Energy =                       -271.1784359582026127
  Basis Set: 6-31G*
  Basis Set:
  Basis Set: 6-31G*
  Basis Set:
  @DF-RHF Final Energy:  -271.17866285549508
    Total Energy =                       -271.1786628554950767
  Basis Set: 6-31G*
  Basis Set:
  Basis Set: 6-31G*
  Basis Set:
  @DF-RHF Final Energy:  -271.17866422876705
    Total Energy =                       -271.1786642287670475
  Basis Set: 6-31G*
  Basis Set:
  Charge       = 0
  Multiplicity = 1
  Basis Set: 6-31G*
  Basis Set:

    Orbital Energies (a.u.)
    -----------------------

    Doubly Occupied:

       1A    -20.552381     2A    -11.268107     3A    -11.216029
       4A    -11.214781     5A    -11.212572     6A    -11.209236
       7A     -1.358612     8A     -1.079171     9A     -1.010847
      10A     -0.918567    11A     -0.824878    12A     -0.788516
      13A     -0.701698    14A     -0.641874    15A     -0.622680
      16A     -0.589768    17A     -0.574241    18A     -0.565577
      19A     -0.522877    20A     -0.506442    21A     -0.484925
      22A     -0.474835    23A     -0.465424    24A     -0.459381
      25A     -0.422305

  @DF-RHF Final Energy:  -271.17866436382144

   => Energetics <=

    Nuclear Repulsion Energy =            248.7684094887150934
    One-Electron Energy =                -860.5226959634131845
    Two-Electron Energy =                 340.5756221108768500
    DFT Exchange-Correlation Energy =       0.0000000000000000
    Empirical Dispersion Energy =           0.0000000000000000
    PCM Polarization Energy =               0.0000000000000000
    EFP Energy =                            0.0000000000000000
    Total Energy =                       -271.1786643638212695
    Molecular point group: c1
  Basis Set: 6-31G*
  Basis Set:

  -Total Gradient:
     Atom            X                  Y                   Z
    ------   -----------------  -----------------  -----------------
       1       -0.001121184371     0.000106785962     0.000489710468
       2        0.001272511950     0.000098229180    -0.000783769801
       3        0.000165214450    -0.000519112735     0.000855411671
       4       -0.000325252554     0.000259270903    -0.000575367551
       5       -0.000069163044     0.000000668731     0.000003055516
       6        0.000024362601    -0.000036493275    -0.000027829318
       7        0.000029584075     0.000039003843    -0.000038215893
       8        0.000022003573     0.000009971095     0.000017694835
       9        0.000020142377    -0.000008944554     0.000013531646
      10        0.000017248217     0.000010484339     0.000030921711
      11       -0.000035906779     0.000031488458     0.000026875460
      12        0.000005111511     0.000017263001     0.000008988782
      13       -0.000006739022    -0.000012616846    -0.000023443613
      14       -0.000009380361     0.000009868563    -0.000000411681
      15        0.000007388214    -0.000000793761     0.000008113861
      16        0.000003629994    -0.000008469758     0.000006478350
      17        0.000002585103    -0.000002484893    -0.000007362864
      18       -0.000002155930     0.000005881749    -0.000004381579

  **** Optimization is complete! (in 5 steps) ****
    Final optimized geometry and variables:
    Molecular point group: c1

    Geometry (in Angstrom), charge = 0, multiplicity = 1:

    H           -2.203580026237    -1.600900240318     0.287913762561
    O           -2.381393774634    -0.875306807409    -0.290657808115
    C           -2.028108396166     0.337378071235     0.331718602849
    C           -0.673005071228     0.846763575388    -0.141614846349
    H           -2.797593827608     1.057665610039     0.078827150713
    H           -2.033597159792     0.228293596568     1.414331684289
    C            0.491185713895    -0.073512939546     0.226399712376
    H           -0.713463033556     0.971188015929    -1.220519996625
    H           -0.509476641732     1.835237294752     0.285314398482
    C            1.846973246273     0.446940421502    -0.254046120771
    H            0.315194145941    -1.057577874330    -0.200363781892
    H            0.521937598811    -0.203307587274     1.308411168942
    C            3.005467106806    -0.481721296296     0.107717368621
    H            1.816372562418     0.582181916937    -1.332855129527
    H            2.027148706361     1.431704229222     0.172021124164
    H            2.870993303141    -1.465628000189    -0.332759230189
    H            3.952167468467    -0.087058331601    -0.248032770435
    H            3.084399424400    -0.609980230375     1.183737892754

  Mulliken Charges: (a.u.)
   Center  Symbol    Alpha    Beta     Spin     Total
       1     H     0.27955  0.27955  0.00000  0.44090
       2     O     4.37118  4.37118  0.00000 -0.74236
       3     C     3.00076  3.00076  0.00000 -0.00153
       4     C     3.15693  3.15693  0.00000 -0.31387
       5     H     0.41670  0.41670  0.00000  0.16661
       6     H     0.43172  0.43172  0.00000  0.13655
       7     C     3.15760  3.15760  0.00000 -0.31519
       8     H     0.41515  0.41515  0.00000  0.16970
       9     H     0.42577  0.42577  0.00000  0.14846
      10     C     3.15075  3.15075  0.00000 -0.30150
      11     H     0.41878  0.41878  0.00000  0.16244
      12     H     0.42828  0.42828  0.00000  0.14344
      13     C     3.23938  3.23938  0.00000 -0.47876
      14     H     0.42104  0.42104  0.00000  0.15792
      15     H     0.42346  0.42346  0.00000  0.15309
      16     H     0.42140  0.42140  0.00000  0.15719
      17     H     0.41898  0.41898  0.00000  0.16205
      18     H     0.42257  0.42257  0.00000  0.15486

   Total alpha = 25.00000, Total beta = 25.00000, Total charge =  0.00000
