  ==> Input File <==

--------------------------------------------------------------------------
set {
	reference rhf
	basis 6-31G*
}

set_num_threads( 1 )
memory 2 gb

molecule MOL {
0 1

H	 -4.236494	 0.538104	 0.039757
O	 -3.517110	 -0.026191	 -0.205115
C	 -2.306886	 0.532354	 0.237577
C	 -1.177863	 -0.397191	 -0.171080
H	 -2.156308	 1.517575	 -0.201710
H	 -2.315015	 0.655684	 1.319734
C	 0.198102	 0.111031	 0.262842
H	 -1.208843	 -0.518759	 -1.250427
H	 -1.368741	 -1.376554	 0.258909
C	 1.331804	 -0.827780	 -0.158768
H	 0.361943	 1.100838	 -0.156218
H	 0.217265	 0.229072	 1.345532
C	 2.723619	 -0.410569	 0.329459
H	 1.342964	 -0.912588	 -1.244120
H	 1.116806	 -1.824343	 0.220779
C	 3.185489	 -1.111190	 1.608576
H	 2.719436	 0.662806	 0.502486
H	 3.449906	 -0.586722	 -0.461516
H	 2.471482	 -0.962684	 2.414293
H	 3.305916	 -2.180013	 1.466130
H	 4.141878	 -0.717932	 1.939367

	symmetry c1
}
set optking {
	frozen_dihedral = ("
		2 3 4 8,
		8 4 7 10,
		4 7 10 14,
		1 2 3 5
	")
}

ee = energy('scf')
oeprop('DIPOLE', 'QUADRUPOLE', 'MULLIKEN_CHARGES')
f=open( 'psi4out.xyz', 'w' )
f.write( "21  " )
f.write( str(ee) + "\n" )
f.write( MOL.save_string_xyz() )
f.close()
--------------------------------------------------------------------------

    Molecular point group: c1

    Geometry (in Angstrom), charge = 0, multiplicity = 1:

       Center              X                  Y                   Z               Mass
    ------------   -----------------  -----------------  -----------------  -----------------
           H         -4.227668394483     0.832594719300    -0.237056863734     1.007825032070
           O         -3.508284394483     0.268299719300    -0.481928863734    15.994914619560
           C         -2.298060394483     0.826844719300    -0.039236863734    12.000000000000
           C         -1.169037394483    -0.102700280700    -0.447893863734    12.000000000000
           H         -2.147482394483     1.812065719300    -0.478523863734     1.007825032070
           H         -2.306189394483     0.950174719300     1.042920136266     1.007825032070
           C          0.206927605517     0.405521719300    -0.013971863734    12.000000000000
           H         -1.200017394483    -0.224268280700    -1.527240863734     1.007825032070
           H         -1.359915394483    -1.082063280700    -0.017904863734     1.007825032070
           C          1.340629605517    -0.533289280700    -0.435581863734    12.000000000000
           H          0.370768605517     1.395328719300    -0.433031863734     1.007825032070
           H          0.226090605517     0.523562719300     1.068718136266     1.007825032070
           C          2.732444605517    -0.116078280700     0.052645136266    12.000000000000
           H          1.351789605517    -0.618097280700    -1.520933863734     1.007825032070
           H          1.125631605517    -1.529852280700    -0.056034863734     1.007825032070
           C          3.194314605517    -0.816699280700     1.331762136266    12.000000000000
           H          2.728261605517     0.957296719300     0.225672136266     1.007825032070
           H          3.458731605517    -0.292231280700    -0.738329863734     1.007825032070
           H          2.480307605517    -0.668193280700     2.137479136266     1.007825032070
           H          3.314741605517    -1.885522280700     1.189316136266     1.007825032070
           H          4.150703605517    -0.423441280700     1.662553136266     1.007825032070

  Charge       = 0
  Multiplicity = 1
  Basis Set: 6-31G*
  Basis Set:

    Orbital Energies (a.u.)
    -----------------------

    Doubly Occupied:

       1A    -20.551897     2A    -11.267157     3A    -11.216619
       4A    -11.214003     5A    -11.212504     6A    -11.210599
       7A    -11.208613     8A     -1.358722     9A     -1.085843
      10A     -1.033666    11A     -0.955644    12A     -0.871879
      13A     -0.804760    14A     -0.785351    15A     -0.692552
      16A     -0.661497    17A     -0.620105    18A     -0.608553
      19A     -0.586283    20A     -0.564427    21A     -0.540829
      22A     -0.522103    23A     -0.507764    24A     -0.487358
      25A     -0.478886    26A     -0.461171    27A     -0.453782
      28A     -0.443148    29A     -0.434046

  @DF-RHF Final Energy:  -310.20992834809203

   => Energetics <=

    Nuclear Repulsion Energy =            310.8675196870167383
    One-Electron Energy =               -1036.4755831016900629
    Two-Electron Energy =                 415.3981350665821424
    DFT Exchange-Correlation Energy =       0.0000000000000000
    Empirical Dispersion Energy =           0.0000000000000000
    PCM Polarization Energy =               0.0000000000000000
    EFP Energy =                            0.0000000000000000
    Total Energy =                       -310.2099283480911822

  Mulliken Charges: (a.u.)
   Center  Symbol    Alpha    Beta     Spin     Total
       1     H     0.28117  0.28117  0.00000  0.43766
       2     O     4.37174  4.37174  0.00000 -0.74348
       3     C     2.98979  2.98979  0.00000  0.02042
       4     C     3.15971  3.15971  0.00000 -0.31941
       5     H     0.43292  0.43292  0.00000  0.13415
       6     H     0.43288  0.43288  0.00000  0.13424
       7     C     3.16157  3.16157  0.00000 -0.32314
       8     H     0.41469  0.41469  0.00000  0.17062
       9     H     0.41455  0.41455  0.00000  0.17090
      10     C     3.15345  3.15345  0.00000 -0.30690
      11     H     0.42280  0.42280  0.00000  0.15439
      12     H     0.42354  0.42354  0.00000  0.15291
      13     C     3.15447  3.15447  0.00000 -0.30894
      14     H     0.42018  0.42018  0.00000  0.15963
      15     H     0.42118  0.42118  0.00000  0.15765
      16     C     3.23995  3.23995  0.00000 -0.47991
      17     H     0.42220  0.42220  0.00000  0.15560
      18     H     0.42016  0.42016  0.00000  0.15969
      19     H     0.42234  0.42234  0.00000  0.15532
      20     H     0.42063  0.42063  0.00000  0.15875
      21     H     0.42007  0.42007  0.00000  0.15986

   Total alpha = 29.00000, Total beta = 29.00000, Total charge = -0.00000
