  ==> Input File <==

--------------------------------------------------------------------------
set {
	reference rhf
	basis cc-pvtz
}

set_num_threads( 4 )
memory 2 gb

molecule MOL {
0 1

H	 -3.162190	 0.493205	 -0.000107
C	 -2.363908	 -0.234727	 0.000005
O	 -1.158738	 0.454634	 -0.000087
H	 -2.464314	 -0.863616	 -0.882153
H	 -2.464327	 -0.863359	 0.882345
C	 -1.199759	 1.687842	 0.646313
C	 0.169080	 2.334147	 0.575875
H	 -1.499546	 1.555153	 1.686101
H	 -1.943833	 2.331579	 0.176634
C	 0.207083	 3.693999	 1.264141
H	 0.890889	 1.664883	 1.030851
H	 0.450102	 2.435181	 -0.466608
H	 -0.047706	 3.612238	 2.315561
H	 1.195289	 4.132429	 1.198958
H	 -0.491210	 4.387765	 0.807913

	symmetry c1
}
set optking {
	frozen_dihedral = ("
		6 3 2 4
	")
}

ee = optimize('scf')
oeprop('DIPOLE', 'QUADRUPOLE', 'MULLIKEN_CHARGES')
f=open( 'psi4out.xyz', 'w' )
f.write( "15  " )
f.write( str(ee) + "\n" )
f.write( MOL.save_string_xyz() )
f.close()
--------------------------------------------------------------------------

    Molecular point group: c1
  Charge       = 0
  Multiplicity = 1
  Basis Set: CC-PVTZ
  Basis Set:
  @DF-RHF Final Energy:  -232.22543360509366
    Total Energy =                       -232.2254336050937127
    Molecular point group: c1
  Basis Set: CC-PVTZ
  Basis Set:
  Basis Set: CC-PVTZ
  Basis Set:
  @DF-RHF Final Energy:  -232.22623511076208
    Total Energy =                       -232.2262351107621043
  Basis Set: CC-PVTZ
  Basis Set:
  Basis Set: CC-PVTZ
  Basis Set:
  @DF-RHF Final Energy:  -232.22642931084519
    Total Energy =                       -232.2264293108450488
  Basis Set: CC-PVTZ
  Basis Set:
  Charge       = 0
  Multiplicity = 1
  Basis Set: CC-PVTZ
  Basis Set:

    Orbital Energies (a.u.)
    -----------------------

    Doubly Occupied:

       1A    -20.545813     2A    -11.264653     3A    -11.261478
       4A    -11.212481     5A    -11.210587     6A     -1.379495
       7A     -1.058259     8A     -0.956121     9A     -0.877390
      10A     -0.809405    11A     -0.675474    12A     -0.654845
      13A     -0.631539    14A     -0.608974    15A     -0.564060
      16A     -0.543830    17A     -0.503285    18A     -0.489101
      19A     -0.478865    20A     -0.462456    21A     -0.414329

  @DF-RHF Final Energy:  -232.22643039823157

   => Energetics <=

    Nuclear Repulsion Energy =            189.8535370511311271
    One-Electron Energy =                -690.9550571712325109
    Two-Electron Energy =                 268.8750897218698128
    DFT Exchange-Correlation Energy =       0.0000000000000000
    Empirical Dispersion Energy =           0.0000000000000000
    PCM Polarization Energy =               0.0000000000000000
    EFP Energy =                            0.0000000000000000
    Total Energy =                       -232.2264303982315710
    Molecular point group: c1
  Basis Set: CC-PVTZ
  Basis Set:

  -Total Gradient:
     Atom            X                  Y                   Z
    ------   -----------------  -----------------  -----------------
       1       -0.000007865697     0.000024879530     0.000004502286
       2        0.001287442029    -0.002109029281     0.000898409869
       3        0.000559919624    -0.001018591959     0.002473193713
       4       -0.001182713734     0.002177133614    -0.001372343452
       5        0.000055148327     0.000015317395     0.000001661567
       6       -0.000707778791     0.001023818497    -0.001915381438
       7        0.000023018107    -0.000061203292    -0.000048812788
       8       -0.000002032040    -0.000015711628    -0.000013994191
       9       -0.000009377609    -0.000024999291    -0.000019252154
      10       -0.000032678731    -0.000010737230     0.000006243567
      11        0.000005161834     0.000001152478    -0.000001746487
      12        0.000015091599     0.000004497772    -0.000005642620
      13       -0.000000955369     0.000001575650     0.000000528872
      14       -0.000002286493    -0.000013110131    -0.000006896932
      15       -0.000000093058     0.000005007877    -0.000000469811

  **** Optimization is complete! (in 4 steps) ****
    Final optimized geometry and variables:
    Molecular point group: c1

    Geometry (in Angstrom), charge = 0, multiplicity = 1:

    H           -2.329063593086    -1.137512496926    -0.503541920540
    C           -1.473466826566    -1.808094795702    -0.493228494681
    O           -0.273515643048    -1.104445328055    -0.494081402102
    H           -1.517088838254    -2.408026266457    -1.391952925700
    H           -1.554693354210    -2.452740298094     0.377578984302
    C           -0.304747607044     0.127136852622     0.156948625104
    C            1.068873870754     0.762688798441     0.082385682742
    H           -0.600501362073    -0.001625172851     1.198581863226
    H           -1.044884103515     0.775921239486    -0.310517609757
    C            1.117205459895     2.125601318467     0.764126279708
    H            1.786632875323     0.090653203202     0.539763147577
    H            1.349408934880     0.856491674006    -0.961003975746
    H            0.862557656314     2.050817686539     1.816147192310
    H            2.108549918651     2.556650185974     0.696173916525
    H            0.423596151424     2.822221719507     0.304955606447

  Mulliken Charges: (a.u.)
   Center  Symbol    Alpha    Beta     Spin     Total
       1     H     0.47489  0.47489  0.00000  0.05023
       2     C     3.03106  3.03106  0.00000 -0.06212
       3     O     4.17411  4.17411  0.00000 -0.34822
       4     H     0.45075  0.45075  0.00000  0.09851
       5     H     0.46474  0.46474  0.00000  0.07051
       6     C     2.95584  2.95584  0.00000  0.08831
       7     C     3.08121  3.08121  0.00000 -0.16242
       8     H     0.47676  0.47676  0.00000  0.04649
       9     H     0.47456  0.47456  0.00000  0.05089
      10     C     3.15584  3.15584  0.00000 -0.31167
      11     H     0.45100  0.45100  0.00000  0.09801
      12     H     0.45122  0.45122  0.00000  0.09757
      13     H     0.45584  0.45584  0.00000  0.08832
      14     H     0.44627  0.44627  0.00000  0.10746
      15     H     0.45593  0.45593  0.00000  0.08814

   Total alpha = 21.00000, Total beta = 21.00000, Total charge =  0.00000
