  ==> Input File <==

--------------------------------------------------------------------------
set {
	reference rhf
	basis 6-31G*
}

set_num_threads( 1 )
memory 2 gb

molecule MOL {
0 1

O	 -2.042549	 -1.228399	 -0.269030
C	 -1.653912	 -0.146171	 0.050137
C	 -0.332303	 0.024011	 0.778412
C	 -2.438579	 1.106236	 -0.272369
C	 0.640195	 0.885441	 -0.042599
H	 -0.490354	 0.473358	 1.754880
H	 0.092248	 -0.963064	 0.924568
C	 1.997004	 1.056785	 0.642047
H	 0.202436	 1.866052	 -0.221072
H	 0.775070	 0.423123	 -1.015847
C	 2.969124	 1.905556	 -0.176351
H	 1.853809	 1.511711	 1.619781
H	 2.433794	 0.077049	 0.820654
H	 2.574684	 2.903922	 -0.342889
H	 3.157250	 1.458229	 -1.147922
H	 3.922880	 2.007469	 0.331576
H	 -3.277823	 0.863061	 -0.908988
H	 -1.806773	 1.843019	 -0.759671
H	 -2.802853	 1.554979	 0.648059

	symmetry c1
}
set optking {
	frozen_dihedral = ("
		11 8 5 9,
		9 5 3 2
	")
}

ee = energy('scf')
oeprop('DIPOLE', 'QUADRUPOLE', 'MULLIKEN_CHARGES')
f=open( 'psi4out.xyz', 'w' )
f.write( "19  " )
f.write( str(ee) + "\n" )
f.write( MOL.save_string_xyz() )
f.close()
--------------------------------------------------------------------------

    Molecular point group: c1

    Geometry (in Angstrom), charge = 0, multiplicity = 1:

       Center              X                  Y                   Z               Mass
    ------------   -----------------  -----------------  -----------------  -----------------
           O         -1.924596092691    -1.752561118201    -0.360595357813    15.994914619560
           C         -1.535959092691    -0.670333118201    -0.041428357813    12.000000000000
           C         -0.214350092691    -0.500151118201     0.686846642187    12.000000000000
           C         -2.320626092691     0.582073881799    -0.363934357813    12.000000000000
           C          0.758147907309     0.361278881799    -0.134164357813    12.000000000000
           H         -0.372401092691    -0.050804118201     1.663314642187     1.007825032070
           H          0.210200907309    -1.487226118201     0.833002642187     1.007825032070
           C          2.114956907309     0.532622881799     0.550481642187    12.000000000000
           H          0.320388907309     1.341889881799    -0.312637357813     1.007825032070
           H          0.893022907309    -0.101039118201    -1.107412357813     1.007825032070
           C          3.087076907309     1.381393881799    -0.267916357813    12.000000000000
           H          1.971761907309     0.987548881799     1.528215642187     1.007825032070
           H          2.551746907309    -0.447113118201     0.729088642187     1.007825032070
           H          2.692636907309     2.379759881799    -0.434454357813     1.007825032070
           H          3.275202907309     0.934066881799    -1.239487357813     1.007825032070
           H          4.040832907309     1.483306881799     0.240010642187     1.007825032070
           H         -3.159870092691     0.338898881799    -1.000553357813     1.007825032070
           H         -1.688820092691     1.318856881799    -0.851236357813     1.007825032070
           H         -2.684900092691     1.030816881799     0.556493642187     1.007825032070

  Charge       = 0
  Multiplicity = 1
  Basis Set: 6-31G*
  Basis Set:

    Orbital Energies (a.u.)
    -----------------------

    Doubly Occupied:

       1A    -20.548005     2A    -11.324219     3A    -11.232484
       4A    -11.229530     5A    -11.227488     6A    -11.226676
       7A    -11.216763     8A     -1.393121     9A     -1.095043
      10A     -1.030017    11A     -0.982073    12A     -0.892655
      13A     -0.809752    14A     -0.733654    15A     -0.663993
      16A     -0.647966    17A     -0.625549    18A     -0.614023
      19A     -0.580872    20A     -0.577774    21A     -0.552518
      22A     -0.535625    23A     -0.509627    24A     -0.501939
      25A     -0.485884    26A     -0.477418    27A     -0.470656
      28A     -0.397032

  @DF-RHF Final Energy:  -309.06302627268394

   => Energetics <=

    Nuclear Repulsion Energy =            302.0859824895976544
    One-Electron Energy =               -1017.1332272293350343
    Two-Electron Energy =                 405.9842184670539496
    DFT Exchange-Correlation Energy =       0.0000000000000000
    Empirical Dispersion Energy =           0.0000000000000000
    PCM Polarization Energy =               0.0000000000000000
    EFP Energy =                            0.0000000000000000
    Total Energy =                       -309.0630262726834303

  Mulliken Charges: (a.u.)
   Center  Symbol    Alpha    Beta     Spin     Total
       1     O     4.26087  4.26087  0.00000 -0.52175
       2     C     2.73376  2.73376  0.00000  0.53249
       3     C     3.20330  3.20330  0.00000 -0.40660
       4     C     3.29120  3.29120  0.00000 -0.58239
       5     C     3.16698  3.16698  0.00000 -0.33396
       6     H     0.41188  0.41188  0.00000  0.17624
       7     H     0.39911  0.39911  0.00000  0.20178
       8     C     3.15088  3.15088  0.00000 -0.30176
       9     H     0.42011  0.42011  0.00000  0.15979
      10     H     0.41291  0.41291  0.00000  0.17418
      11     C     3.24026  3.24026  0.00000 -0.48052
      12     H     0.42148  0.42148  0.00000  0.15705
      13     H     0.41864  0.41864  0.00000  0.16273
      14     H     0.42134  0.42134  0.00000  0.15733
      15     H     0.41950  0.41950  0.00000  0.16100
      16     H     0.41688  0.41688  0.00000  0.16625
      17     H     0.39608  0.39608  0.00000  0.20783
      18     H     0.40725  0.40725  0.00000  0.18551
      19     H     0.40759  0.40759  0.00000  0.18481

   Total alpha = 28.00000, Total beta = 28.00000, Total charge = -0.00000
