                              Psi4 1.0.54 Driver

  ==> Input File <==

--------------------------------------------------------------------------
set {
	reference rhf
	basis cc-pvtz
}

set_num_threads( 4 )
memory 2 gb

molecule MOL {
0 1

H	 -3.872995	 0.846698	 0.068018
O	 -3.026494	 1.159359	 -0.192206
C	 -2.021813	 0.336996	 0.342658
C	 -0.669613	 0.837286	 -0.127252
H	 -2.058659	 0.355493	 1.428947
H	 -2.166076	 -0.694041	 0.025590
C	 0.490865	 -0.082543	 0.241244
H	 -0.708709	 0.967192	 -1.204587
H	 -0.507562	 1.822272	 0.303070
C	 1.839800	 0.429565	 -0.255472
H	 0.305636	 -1.070211	 -0.165276
H	 0.527397	 -0.195943	 1.322876
C	 3.001144	 -0.485193	 0.119072
H	 1.804373	 0.541073	 -1.335756
H	 2.020437	 1.423114	 0.146921
H	 2.866892	 -1.477297	 -0.298806
H	 3.943543	 -0.095749	 -0.249061
H	 3.085064	 -0.590459	 1.195790

	symmetry c1
}
set optking {
	frozen_dihedral = ("
		2 3 4 8
	")
}

ee,wfn = optimize('scf', return_wfn=True)
oeprop( wfn, 'DIPOLE', 'QUADRUPOLE', 'MULLIKEN_CHARGES')
f=open( 'psi4out.xyz', 'w' )
f.write( "18  " )
f.write( str(ee) + "\n" )
f.write( MOL.save_string_xyz() )
f.close()
--------------------------------------------------------------------------

    Molecular point group: c1
  Charge       = 0
  Multiplicity = 1
  Basis Set: CC-PVTZ
  Basis Set:
  @DF-RHF Final Energy:  -271.28661100463592
    Total Energy =                       -271.2866110046360291
    Molecular point group: c1
  Basis Set: CC-PVTZ
  Basis Set:
  Basis Set: CC-PVTZ
  Basis Set:
  @DF-RHF Final Energy:  -271.28675280548333
    Total Energy =                       -271.2867528054833883
  Basis Set: CC-PVTZ
  Basis Set:
  Basis Set: CC-PVTZ
  Basis Set:
  @DF-RHF Final Energy:  -271.28677498987975
    Total Energy =                       -271.2867749898797456
  Basis Set: CC-PVTZ
  Basis Set:
  Basis Set: CC-PVTZ
  Basis Set:
  @DF-RHF Final Energy:  -271.28677646186713
    Total Energy =                       -271.2867764618672481
  Basis Set: CC-PVTZ
  Basis Set:
  Charge       = 0
  Multiplicity = 1
  Basis Set: CC-PVTZ
  Basis Set:

    Orbital Energies (a.u.)
    -----------------------

    Doubly Occupied:

       1A    -20.545583     2A    -11.265189     3A    -11.214030
       4A    -11.213339     5A    -11.209086     6A    -11.206739
       7A     -1.363465     8A     -1.081727     9A     -1.012423
      10A     -0.914351    11A     -0.820481    12A     -0.792863
      13A     -0.696735    14A     -0.663011    15A     -0.622536
      16A     -0.589506    17A     -0.573459    18A     -0.556401
      19A     -0.533134    20A     -0.493850    21A     -0.491321
      22A     -0.469589    23A     -0.464464    24A     -0.452334
      25A     -0.437279

  @DF-RHF Final Energy:  -271.28677670453146

   => Energetics <=

    Nuclear Repulsion Energy =            245.6625574249770523
    One-Electron Energy =                -854.5328766976516590
    Two-Electron Energy =                 337.5835425681431161
    DFT Exchange-Correlation Energy =       0.0000000000000000
    Empirical Dispersion Energy =           0.0000000000000000
    PCM Polarization Energy =               0.0000000000000000
    EFP Energy =                            0.0000000000000000
    Total Energy =                       -271.2867767045314622
    Molecular point group: c1
  Basis Set: CC-PVTZ
  Basis Set:

  -Total Gradient:
     Atom            X                  Y                   Z
    ------   -----------------  -----------------  -----------------
       1        0.000027290233    -0.000013735901     0.000009364679
       2       -0.000048454159    -0.000747153754    -0.000970326570
       3       -0.000039431213     0.001301279936     0.001313715008
       4        0.000598204277    -0.002080639907    -0.000501682424
       5       -0.000005020185     0.000005400660    -0.000000841665
       6        0.000009415474     0.000004943512    -0.000012932461
       7       -0.000027418027     0.000019865212    -0.000025319337
       8       -0.000489929148     0.001481163901     0.000150397600
       9       -0.000000410294     0.000000555857     0.000023219333
      10        0.000028496773     0.000009025428     0.000013604247
      11       -0.000014654824     0.000005452194     0.000005324438
      12       -0.000006685205     0.000012259773     0.000001907172
      13       -0.000027828688    -0.000008942942    -0.000010722804
      14       -0.000003439423    -0.000001583845    -0.000002123287
      15        0.000001749967     0.000011703502     0.000007487164
      16        0.000003134782    -0.000006899770     0.000004563716
      17       -0.000006173563     0.000004214629    -0.000007336065
      18        0.000001153215     0.000003091519     0.000001701256

  **** Optimization is complete! (in 5 steps) ****
    Final optimized geometry and variables:
    Molecular point group: c1

    Geometry (in Angstrom), charge = 0, multiplicity = 1:

    H           -3.736016087983     0.477048668777     0.108398069373
    O           -2.898524748453     0.754111582885    -0.214017971843
    C           -1.883507699698    -0.050246509959     0.325389148218
    C           -0.546811689353     0.458025916542    -0.177303135755
    H           -1.907910226798    -0.022277327686     1.412546859845
    H           -2.022095280119    -1.085905035001     0.021513114543
    C            0.618159207318    -0.447206103244     0.207217532305
    H           -0.607256184837     0.565140406420    -1.255521112860
    H           -0.386706397931     1.456534306496     0.218294828051
    C            1.969912793389     0.079213703442    -0.266746824065
    H            0.457588775150    -1.439949855760    -0.206512034296
    H            0.643146919808    -0.568658742706     1.288033834036
    C            3.133174347915    -0.831371629656     0.111158464067
    H            1.946081299960     0.205006204597    -1.345546799792
    H            2.135642961082     1.068171720765     0.151155600632
    H            3.013586736431    -1.819409848906    -0.320954056026
    H            4.076525204226    -0.429436896295    -0.240170078228
    H            3.204599928379    -0.949299173162     1.187407806294

  Mulliken Charges: (a.u.)
   Center  Symbol    Alpha    Beta     Spin     Total
       1     H     0.39737  0.39737  0.00000  0.20525
       2     O     4.19463  4.19463  0.00000 -0.38927
       3     C     2.96334  2.96334  0.00000  0.07332
       4     C     3.08445  3.08445  0.00000 -0.16890
       5     H     0.47368  0.47368  0.00000  0.05264
       6     H     0.47610  0.47610  0.00000  0.04779
       7     C     3.09712  3.09712  0.00000 -0.19423
       8     H     0.44974  0.44974  0.00000  0.10052
       9     H     0.45255  0.45255  0.00000  0.09489
      10     C     3.08352  3.08352  0.00000 -0.16704
      11     H     0.45532  0.45532  0.00000  0.08937
      12     H     0.45639  0.45639  0.00000  0.08721
      13     C     3.14954  3.14954  0.00000 -0.29907
      14     H     0.45350  0.45350  0.00000  0.09300
      15     H     0.45371  0.45371  0.00000  0.09258
      16     H     0.45533  0.45533  0.00000  0.08934
      17     H     0.44820  0.44820  0.00000  0.10359
      18     H     0.45550  0.45550  0.00000  0.08900

   Total alpha = 25.00000, Total beta = 25.00000, Total charge = -0.00000

*** Psi4 exiting successfully. Buy a developer a beer!
