                              Psi4 1.0.54 Driver

  ==> Input File <==

--------------------------------------------------------------------------
set {
	reference rhf
	basis cc-pvtz
}

set_num_threads( 4 )
memory 2 gb

molecule MOL {
0 1

H	 -3.034039	 -0.667848	 0.004703
O	 -2.240597	 -1.171748	 0.000934
C	 -1.159675	 -0.364500	 0.000370
C	 -0.120677	 -0.519342	 -0.894573
C	 -1.122496	 0.647198	 0.947544
H	 -0.146518	 -1.304166	 -1.628360
C	 0.956128	 0.348182	 -0.830403
H	 -1.945158	 0.738931	 1.630000
C	 -0.049046	 1.512853	 1.008575
H	 1.767791	 0.229008	 -1.523060
C	 0.999494	 1.354565	 0.107744
C	 -0.019569	 2.627877	 2.023216
H	 1.843333	 2.017110	 0.145571
H	 0.959583	 2.713987	 2.477826
H	 -0.744387	 2.464839	 2.809221
H	 -0.246694	 3.578521	 1.552755

	symmetry c1
}
set optking {
	frozen_dihedral = ("
		5 3 2 1
	")
}

ee,wfn = optimize('scf', return_wfn=True)
oeprop( wfn, 'DIPOLE', 'QUADRUPOLE', 'MULLIKEN_CHARGES')
f=open( 'psi4out.xyz', 'w' )
f.write( "16  " )
f.write( str(ee) + "\n" )
f.write( MOL.save_string_xyz() )
f.close()
--------------------------------------------------------------------------

    Molecular point group: c1
  Charge       = 0
  Multiplicity = 1
  Basis Set: CC-PVTZ
  Basis Set:
  @DF-RHF Final Energy:  -344.71648116248480
    Total Energy =                       -344.7164811624853655
    Molecular point group: c1
  Basis Set: CC-PVTZ
  Basis Set:
  Basis Set: CC-PVTZ
  Basis Set:
  @DF-RHF Final Energy:  -344.71791076083360
    Total Energy =                       -344.7179107608342861
  Basis Set: CC-PVTZ
  Basis Set:
  Basis Set: CC-PVTZ
  Basis Set:
  @DF-RHF Final Energy:  -344.71800862645944
    Total Energy =                       -344.7180086264596639
  Basis Set: CC-PVTZ
  Basis Set:
  Basis Set: CC-PVTZ
  Basis Set:
  @DF-RHF Final Energy:  -344.71801863815949
    Total Energy =                       -344.7180186381591511
  Basis Set: CC-PVTZ
  Basis Set:
  @DF-RHF Final Energy:  -344.71802198548738
    Total Energy =                       -344.7180219854874395
  @DF-RHF Final Energy:  -344.71802325552409
    Total Energy =                       -344.7180232555243720
  @DF-RHF Final Energy:  -344.71802521973120
    Total Energy =                       -344.7180252197310892
  Basis Set: CC-PVTZ
  Basis Set:
  @DF-RHF Final Energy:  -344.71802752865233
    Total Energy =                       -344.7180275286524989
  Basis Set: CC-PVTZ
  Basis Set:
  Basis Set: CC-PVTZ
  Basis Set:
  @DF-RHF Final Energy:  -344.71802975905291
    Total Energy =                       -344.7180297590530245
  Basis Set: CC-PVTZ
  Basis Set:
  Basis Set: CC-PVTZ
  Basis Set:
  @DF-RHF Final Energy:  -344.71803152882745
    Total Energy =                       -344.7180315288273391
  Basis Set: CC-PVTZ
  Basis Set:
  Charge       = 0
  Multiplicity = 1
  Basis Set: CC-PVTZ
  Basis Set:

    Orbital Energies (a.u.)
    -----------------------

    Doubly Occupied:

       1A    -20.574983     2A    -11.290157     3A    -11.241590
       4A    -11.230793     5A    -11.221591     6A    -11.219710
       7A    -11.216391     8A    -11.216310     9A     -1.403365
      10A     -1.154823    11A     -1.047375    12A     -1.006958
      13A     -0.940345    14A     -0.839023    15A     -0.804428
      16A     -0.728481    17A     -0.681648    18A     -0.654258
      19A     -0.617341    20A     -0.595225    21A     -0.579052
      22A     -0.569802    23A     -0.557408    24A     -0.527047
      25A     -0.505544    26A     -0.485199    27A     -0.469995
      28A     -0.333972    29A     -0.316801

  @DF-RHF Final Energy:  -344.71803269727138

   => Energetics <=

    Nuclear Repulsion Energy =            346.0860378958819865
    One-Electron Energy =               -1153.5489083439251772
    Two-Electron Energy =                 462.7448377507714667
    DFT Exchange-Correlation Energy =       0.0000000000000000
    Empirical Dispersion Energy =           0.0000000000000000
    PCM Polarization Energy =               0.0000000000000000
    EFP Energy =                            0.0000000000000000
    Total Energy =                       -344.7180326972717239
    Molecular point group: c1
  Basis Set: CC-PVTZ
  Basis Set:

  -Total Gradient:
     Atom            X                  Y                   Z
    ------   -----------------  -----------------  -----------------
       1        0.000047887202     0.000079793277    -0.002616879951
       2        0.000419918330    -0.000658365700     0.003844046203
       3       -0.001411554723     0.001892753427    -0.002524470880
       4       -0.000091397094    -0.000073296647    -0.000011646471
       5        0.000901212105    -0.001253379084     0.001174613566
       6        0.000028828731    -0.000069830131     0.000082346189
       7        0.000046633672     0.000098469884    -0.000023399950
       8        0.000088680838    -0.000054231124     0.000068580158
       9       -0.000025441772    -0.000009157786    -0.000021417591
      10       -0.000008669058     0.000012589695     0.000017946772
      11       -0.000006783448    -0.000009315842    -0.000017336360
      12        0.000003932529     0.000097433365     0.000075999230
      13        0.000003384641    -0.000001678646     0.000004508725
      14       -0.000143363500     0.000000176953    -0.000016813188
      15        0.000075364132     0.000049554628    -0.000108139302
      16        0.000071367412    -0.000101516270     0.000072062849

  **** Optimization is complete! (in 11 steps) ****
    Final optimized geometry and variables:
    Molecular point group: c1

    Geometry (in Angstrom), charge = 0, multiplicity = 1:

    H           -2.640413810125    -1.285184039147    -0.351440520878
    O           -1.820794442587    -1.745965584521    -0.365264046107
    C           -0.777455099605    -0.874850642223    -0.317843213940
    C            0.267763219164    -1.052964085442    -1.200011340416
    C           -0.725854978497     0.126289716010     0.636320660751
    H            0.218973235653    -1.844128670257    -1.921622896770
    C            1.358507759573    -0.208180686711    -1.124222848779
    H           -1.536639245654     0.224454622787     1.334850285806
    C            0.359008474590     0.983825678361     0.703869653530
    H            2.177464691982    -0.341780692375    -1.805436987451
    C            1.406813631109     0.804513592012    -0.187476892012
    C            0.395665139833     2.097471113874     1.720259639445
    H            2.262139978560     1.452143030285    -0.144067445508
    H            1.394851778408     2.234264412618     2.113226753768
    H           -0.268047535807     1.895238687349     2.550278213681
    H            0.088467315598     3.036276403640     1.271983024146

  Mulliken Charges: (a.u.)
   Center  Symbol    Alpha    Beta     Spin     Total
       1     H     0.38600  0.38600  0.00000  0.22799
       2     O     4.18555  4.18555  0.00000 -0.37111
       3     C     2.85274  2.85274  0.00000  0.29452
       4     C     3.12316  3.12316  0.00000 -0.24632
       5     C     3.15230  3.15230  0.00000 -0.30459
       6     H     0.41734  0.41734  0.00000  0.16533
       7     C     3.05412  3.05412  0.00000 -0.10824
       8     H     0.42707  0.42707  0.00000  0.14587
       9     C     2.94456  2.94456  0.00000  0.11087
      10     H     0.42265  0.42265  0.00000  0.15469
      11     C     3.11430  3.11430  0.00000 -0.22860
      12     C     3.14617  3.14617  0.00000 -0.29234
      13     H     0.42735  0.42735  0.00000  0.14530
      14     H     0.44817  0.44817  0.00000  0.10366
      15     H     0.45120  0.45120  0.00000  0.09759
      16     H     0.44731  0.44731  0.00000  0.10539

   Total alpha = 29.00000, Total beta = 29.00000, Total charge =  0.00000

*** Psi4 exiting successfully. Buy a developer a beer!
