  ==> Input File <==

--------------------------------------------------------------------------
set {
	reference rhf
	basis cc-pvtz
}

set_num_threads( 4 )
memory 2 gb

molecule MOL {
0 1

O	 -2.071633	 -1.227563	 -0.223463
C	 -1.652164	 -0.152425	 0.058082
C	 -0.327811	 0.006324	 0.778296
C	 -2.402515	 1.108629	 -0.298924
C	 0.843231	 -0.001575	 -0.211665
H	 -0.319484	 0.928173	 1.350354
H	 -0.227804	 -0.823091	 1.466705
C	 2.197693	 0.138030	 0.476937
H	 0.722944	 0.805202	 -0.930230
H	 0.813976	 -0.926978	 -0.776588
C	 2.663501	 1.586202	 0.581731
H	 2.143115	 -0.296826	 1.471143
H	 2.936592	 -0.440506	 -0.069747
H	 1.961373	 2.183425	 1.153899
H	 2.758050	 2.038273	 -0.399626
H	 3.628342	 1.651923	 1.070775
H	 -3.240910	 0.874416	 -0.936711
H	 -1.747554	 1.818823	 -0.790984
H	 -2.760419	 1.579708	 0.610998

	symmetry c1
}
set optking {
	frozen_dihedral = ("
		11 8 5 9
	")
}

ee = optimize('scf')
oeprop('DIPOLE', 'QUADRUPOLE', 'MULLIKEN_CHARGES')
f=open( 'psi4out.xyz', 'w' )
f.write( "19  " )
f.write( str(ee) + "\n" )
f.write( MOL.save_string_xyz() )
f.close()
--------------------------------------------------------------------------

    Molecular point group: c1
  Charge       = 0
  Multiplicity = 1
  Basis Set: CC-PVTZ
  Basis Set:
  @DF-RHF Final Energy:  -309.17359442126491
    Total Energy =                       -309.1735944212651361
    Molecular point group: c1
  Basis Set: CC-PVTZ
  Basis Set:
  Basis Set: CC-PVTZ
  Basis Set:
  @DF-RHF Final Energy:  -309.17381665060066
    Total Energy =                       -309.1738166506004859
  Basis Set: CC-PVTZ
  Basis Set:
  Basis Set: CC-PVTZ
  Basis Set:
  @DF-RHF Final Energy:  -309.17384593166923
    Total Energy =                       -309.1738459316693479
  Basis Set: CC-PVTZ
  Basis Set:
  Basis Set: CC-PVTZ
  Basis Set:
  @DF-RHF Final Energy:  -309.17387879364730
    Total Energy =                       -309.1738787936473045
  Basis Set: CC-PVTZ
  Basis Set:
  Basis Set: CC-PVTZ
  Basis Set:
  @DF-RHF Final Energy:  -309.17390827631334
    Total Energy =                       -309.1739082763132842
  Basis Set: CC-PVTZ
  Basis Set:
  Basis Set: CC-PVTZ
  Basis Set:
  @DF-RHF Final Energy:  -309.17392915457685
    Total Energy =                       -309.1739291545767401
  Basis Set: CC-PVTZ
  Basis Set:
  Charge       = 0
  Multiplicity = 1
  Basis Set: CC-PVTZ
  Basis Set:

    Orbital Energies (a.u.)
    -----------------------

    Doubly Occupied:

       1A    -20.536865     2A    -11.319216     3A    -11.229067
       4A    -11.227797     5A    -11.226961     6A    -11.223356
       7A    -11.215655     8A     -1.396918     9A     -1.092302
      10A     -1.029428    11A     -0.983903    12A     -0.895970
      13A     -0.804435    14A     -0.736523    15A     -0.661334
      16A     -0.649968    17A     -0.619380    18A     -0.612806
      19A     -0.598770    20A     -0.569525    21A     -0.555094
      22A     -0.534572    23A     -0.523097    24A     -0.502069
      25A     -0.483799    26A     -0.472714    27A     -0.467301
      28A     -0.399167

  @DF-RHF Final Energy:  -309.17392958668358

   => Energetics <=

    Nuclear Repulsion Energy =            304.2698966972174048
    One-Electron Energy =               -1021.7516727120730593
    Two-Electron Energy =                 408.3078464281722972
    DFT Exchange-Correlation Energy =       0.0000000000000000
    Empirical Dispersion Energy =           0.0000000000000000
    PCM Polarization Energy =               0.0000000000000000
    EFP Energy =                            0.0000000000000000
    Total Energy =                       -309.1739295866833572
    Molecular point group: c1
  Basis Set: CC-PVTZ
  Basis Set:

  -Total Gradient:
     Atom            X                  Y                   Z
    ------   -----------------  -----------------  -----------------
       1        0.000006732215     0.000003235284     0.000007512548
       2        0.000002926703     0.000002870167    -0.000025692848
       3        0.000003787024     0.000003618567    -0.000008670859
       4       -0.000020443804    -0.000002988562     0.000028943739
       5        0.002292747076    -0.002492442572    -0.003898404707
       6       -0.000005613697     0.000002350982     0.000002323366
       7        0.000003663575    -0.000001685527    -0.000004294826
       8       -0.001956837086     0.000733200344     0.003700211412
       9       -0.001504113683     0.001938780528     0.002455236429
      10       -0.000001672736    -0.000004496964    -0.000004962175
      11        0.001168625617    -0.000189565432    -0.002239936396
      12       -0.000004155352     0.000002387195    -0.000000434677
      13       -0.000000781309    -0.000001916876     0.000004752873
      14        0.000002090940     0.000001359558     0.000004479945
      15        0.000004559455     0.000001276266    -0.000002390301
      16       -0.000003894043    -0.000000026850    -0.000002624636
      17        0.000001891529    -0.000000425494    -0.000002220143
      18        0.000005245683    -0.000003007271    -0.000006377135
      19        0.000005241889     0.000007476659    -0.000007451611

  **** Optimization is complete! (in 7 steps) ****
    Final optimized geometry and variables:
    Molecular point group: c1

    Geometry (in Angstrom), charge = 0, multiplicity = 1:

    O           -1.985965404129    -1.434611521048    -0.393875395413
    C           -1.547069090223    -0.369072623218    -0.105152897396
    C           -0.221936090705    -0.239860289251     0.618915910489
    C           -2.273490922859     0.907625730878    -0.456457967557
    C            0.952077194452    -0.260352121277    -0.372539886068
    H           -0.201594179656     0.675624517909     1.200565915789
    H           -0.136069049961    -1.077928447031     1.298271551086
    C            2.312072489628    -0.075066559056     0.315324608053
    H            0.807514421522     0.536738377369    -1.096298892806
    H            0.923334252155    -1.197931702872    -0.912376445211
    C            2.753158913939     1.382602529944     0.416754682813
    H            2.286583138400    -0.525260882557     1.302449458461
    H            3.065658212345    -0.619676998886    -0.243641921675
    H            2.031975459951     1.984845657043     0.959907175440
    H            2.870570723649     1.818306143780    -0.569332347116
    H            3.702793324697     1.467867791906     0.931951888361
    H           -3.110277600278     0.693144926890    -1.103247203438
    H           -1.603661999937     1.612571685753    -0.935737960278
    H           -2.631868611024     1.374901926159     0.455281677050

  Mulliken Charges: (a.u.)
   Center  Symbol    Alpha    Beta     Spin     Total
       1     O     4.17707  4.17707  0.00000 -0.35414
       2     C     2.85829  2.85829  0.00000  0.28343
       3     C     3.09936  3.09936  0.00000 -0.19873
       4     C     3.15546  3.15546  0.00000 -0.31092
       5     C     3.10495  3.10495  0.00000 -0.20990
       6     H     0.44923  0.44923  0.00000  0.10155
       7     H     0.43864  0.43864  0.00000  0.12272
       8     C     3.09102  3.09102  0.00000 -0.18205
       9     H     0.45311  0.45311  0.00000  0.09377
      10     H     0.43418  0.43418  0.00000  0.13163
      11     C     3.14850  3.14850  0.00000 -0.29701
      12     H     0.45263  0.45263  0.00000  0.09473
      13     H     0.44598  0.44598  0.00000  0.10803
      14     H     0.45638  0.45638  0.00000  0.08725
      15     H     0.45389  0.45389  0.00000  0.09221
      16     H     0.44611  0.44611  0.00000  0.10778
      17     H     0.43585  0.43585  0.00000  0.12830
      18     H     0.45097  0.45097  0.00000  0.09806
      19     H     0.44837  0.44837  0.00000  0.10327

   Total alpha = 28.00000, Total beta = 28.00000, Total charge =  0.00000
