  ==> Input File <==

--------------------------------------------------------------------------
set {
	reference rhf
	basis 6-31G*
}

set_num_threads( 4 )
memory 2 gb

molecule MOL {
0 1

H	 4.175065	 -2.816283	 -0.539564
C	 3.740505	 -2.108549	 -1.238701
C	 2.326130	 -1.712819	 -0.816662
H	 4.392025	 -1.240639	 -1.278643
H	 3.743510	 -2.570717	 -2.222160
C	 1.680792	 -0.719805	 -1.785824
H	 2.356941	 -1.279666	 0.177838
H	 1.707068	 -2.606276	 -0.751938
C	 0.257096	 -0.318850	 -1.399053
H	 2.292377	 0.173032	 -1.852523
H	 1.653663	 -1.160232	 -2.779972
C	 0.169600	 0.576866	 -0.172154
H	 -0.205016	 0.230871	 -2.217606
H	 -0.366109	 -1.197167	 -1.246243
C	 -1.181045	 0.701995	 0.511084
O	 1.119224	 1.176942	 0.233468
C	 -2.285934	 -0.139295	 -0.145128
H	 -1.449051	 1.751551	 0.493206
H	 -1.071135	 0.403303	 1.551943
C	 -3.651768	 0.085446	 0.506485
H	 -2.346596	 0.110469	 -1.202272
H	 -2.034737	 -1.195320	 -0.088721
C	 -4.759797	 -0.746382	 -0.137905
H	 -3.908762	 1.140117	 0.445781
H	 -3.588286	 -0.154158	 1.565709
H	 -4.868882	 -0.505166	 -1.191300
H	 -4.548009	 -1.809175	 -0.062213
H	 -5.715422	 -0.564821	 0.343442

	symmetry c1
}
set optking {
	frozen_dihedral = ("
		16 12 15 17
	")
}

ee = optimize('scf')
oeprop('DIPOLE', 'QUADRUPOLE', 'MULLIKEN_CHARGES')
f=open( 'psi4out.xyz', 'w' )
f.write( "28  " )
f.write( str(ee) + "\n" )
f.write( MOL.save_string_xyz() )
f.close()
--------------------------------------------------------------------------

    Molecular point group: c1
  Charge       = 0
  Multiplicity = 1
  Basis Set: 6-31G*
  Basis Set:
  @DF-RHF Final Energy:  -426.16329493124704
    Total Energy =                       -426.1632949312468099
    Molecular point group: c1
  Basis Set: 6-31G*
  Basis Set:
  Basis Set: 6-31G*
  Basis Set:
  @DF-RHF Final Energy:  -426.16473270628160
    Total Energy =                       -426.1647327062815975
  Basis Set: 6-31G*
  Basis Set:
  Basis Set: 6-31G*
  Basis Set:
  @DF-RHF Final Energy:  -426.16642542162992
    Total Energy =                       -426.1664254216298104
  Basis Set: 6-31G*
  Basis Set:
  Basis Set: 6-31G*
  Basis Set:
  @DF-RHF Final Energy:  -426.16665875216336
    Total Energy =                       -426.1666587521635847
  Basis Set: 6-31G*
  Basis Set:
  @DF-RHF Final Energy:  -426.16670233251557
    Total Energy =                       -426.1667023325155697
  @DF-RHF Final Energy:  -426.16671851343915
    Total Energy =                       -426.1667185134394913
  Basis Set: 6-31G*
  Basis Set:
  @DF-RHF Final Energy:  -426.16672603356051
    Total Energy =                       -426.1667260335605079
  Basis Set: 6-31G*
  Basis Set:
  Basis Set: 6-31G*
  Basis Set:
  @DF-RHF Final Energy:  -426.16672628346544
    Total Energy =                       -426.1667262834653229
  Basis Set: 6-31G*
  Basis Set:
  Basis Set: 6-31G*
  Basis Set:
  @DF-RHF Final Energy:  -426.16673015519768
    Total Energy =                       -426.1667301551980245
  Basis Set: 6-31G*
  Basis Set:
  Charge       = 0
  Multiplicity = 1
  Basis Set: 6-31G*
  Basis Set:

    Orbital Energies (a.u.)
    -----------------------

    Doubly Occupied:

       1A    -20.545023     2A    -11.324316     3A    -11.230491
       4A    -11.230456     5A    -11.229839     6A    -11.226248
       7A    -11.216780     8A    -11.215659     9A    -11.210306
      10A    -11.204508    11A     -1.392526    12A     -1.094849
      13A     -1.076494    14A     -1.020991    15A     -0.990701
      16A     -0.906000    17A     -0.875935    18A     -0.809770
      19A     -0.799642    20A     -0.720460    21A     -0.663123
      22A     -0.661463    23A     -0.627556    24A     -0.617596
      25A     -0.607795    26A     -0.585841    27A     -0.582687
      28A     -0.571329    29A     -0.541237    30A     -0.531317
      31A     -0.521812    32A     -0.513326    33A     -0.490163
      34A     -0.487159    35A     -0.481036    36A     -0.474332
      37A     -0.468595    38A     -0.464624    39A     -0.453426
      40A     -0.391770

  @DF-RHF Final Energy:  -426.16673103341884

   => Energetics <=

    Nuclear Repulsion Energy =            531.6980308945585421
    One-Electron Energy =               -1631.6151601106550970
    Two-Electron Energy =                 673.7503981826775998
    DFT Exchange-Correlation Energy =       0.0000000000000000
    Empirical Dispersion Energy =           0.0000000000000000
    PCM Polarization Energy =               0.0000000000000000
    EFP Energy =                            0.0000000000000000
    Total Energy =                       -426.1667310334189551
    Molecular point group: c1
  Basis Set: 6-31G*
  Basis Set:

  -Total Gradient:
     Atom            X                  Y                   Z
    ------   -----------------  -----------------  -----------------
       1       -0.000003415590     0.000000328147     0.000000627589
       2       -0.000008289676     0.000000689192    -0.000010334352
       3        0.000008690842     0.000027526324     0.000034375385
       4        0.000000451007    -0.000000610861     0.000000812117
       5        0.000004852556    -0.000001154034    -0.000003800656
       6       -0.000017440107     0.000011092762     0.000022170758
       7       -0.000005447109    -0.000004551310    -0.000010888310
       8       -0.000003549494     0.000001111920    -0.000005637712
       9        0.000031427822     0.000041303619    -0.000063865999
      10        0.000028727692     0.000005217003     0.000000293113
      11       -0.000006008961     0.000004422569    -0.000005159070
      12        0.000132992821    -0.000124364177     0.000129156074
      13        0.000025988017    -0.000037514917    -0.000009184938
      14       -0.000005507336     0.000003563654     0.000039649812
      15       -0.000017004853    -0.000117279609     0.000081866758
      16       -0.000055575341     0.000058024047    -0.000107683434
      17       -0.000070481954     0.000099025262    -0.000074231833
      18       -0.000008864070     0.000016170943    -0.000002291214
      19        0.000038311948     0.000008797459    -0.000057312790
      20        0.000008764677    -0.000000240891    -0.000004910756
      21       -0.000024400667    -0.000008130455     0.000019520554
      22       -0.000005709344     0.000028251486     0.000006381130
      23       -0.000020585661    -0.000001183979     0.000010501654
      24        0.000001202704    -0.000003123343     0.000006019902
      25       -0.000011954594    -0.000001062521     0.000005992731
      26        0.000002758444     0.000000324813     0.000004915216
      27       -0.000003518537     0.000001741412    -0.000001880260
      28       -0.000016415243    -0.000008374520    -0.000005101469

  **** Optimization is complete! (in 10 steps) ****
    Final optimized geometry and variables:
    Molecular point group: c1

    Geometry (in Angstrom), charge = 0, multiplicity = 1:

    H            4.761810715584    -2.237799217083    -0.201500383471
    C            4.236958581712    -1.561719890195    -0.869355637478
    C            2.794806059574    -1.344268171062    -0.413240730406
    H            4.784914768814    -0.624265749555    -0.888063160915
    H            4.275086739590    -1.987869983993    -1.868340988284
    C            2.022649239445    -0.403384915627    -1.340996471672
    H            2.792514391316    -0.941274536105     0.593388265669
    H            2.283275495235    -2.304714416124    -0.370580181145
    C            0.570115165271    -0.177129206136    -0.921980724339
    H            2.530985826876     0.553160146611    -1.393499559773
    H            2.024991096588    -0.818277401688    -2.346564114774
    C            0.400010648512     0.715069891062     0.295256345679
    H            0.013068762090     0.288879866611    -1.733515604497
    H            0.071805725644    -1.125642076976    -0.737711273524
    C           -0.989977463575     0.932015515195     0.890360072978
    O            1.328108270354     1.279852972767     0.791684656532
    C           -2.183892148842     0.212189879701     0.260212306182
    H           -1.152689043726     2.006558538070     0.872994262630
    H           -0.907375082883     0.667065873294     1.941019755450
    C           -3.499294245505     0.566467161532     0.958311771533
    H           -2.264008332043     0.467439630880    -0.793602788912
    H           -2.040247041615    -0.864439063188     0.306756043534
    C           -4.705824832310    -0.145446099005     0.348161786495
    H           -3.652725515443     1.642239185016     0.912228860266
    H           -3.425907453965     0.313741021808     2.013660529619
    H           -4.826204989866     0.114178374080    -0.699749442868
    H           -4.598061753250    -1.224542562452     0.410868877188
    H           -5.622084191068     0.125453155651     0.862946136157

  Mulliken Charges: (a.u.)
   Center  Symbol    Alpha    Beta     Spin     Total
       1     H     0.41954  0.41954  0.00000  0.16091
       2     C     3.24029  3.24029  0.00000 -0.48057
       3     C     3.15607  3.15607  0.00000 -0.31214
       4     H     0.41853  0.41853  0.00000  0.16294
       5     H     0.42411  0.42411  0.00000  0.15179
       6     C     3.14784  3.14784  0.00000 -0.29568
       7     H     0.40753  0.40753  0.00000  0.18494
       8     H     0.42851  0.42851  0.00000  0.14297
       9     C     3.21466  3.21466  0.00000 -0.42931
      10     H     0.40811  0.40811  0.00000  0.18378
      11     H     0.42232  0.42232  0.00000  0.15535
      12     C     2.73573  2.73573  0.00000  0.52854
      13     H     0.40526  0.40526  0.00000  0.18949
      14     H     0.40861  0.40861  0.00000  0.18279
      15     C     3.20145  3.20145  0.00000 -0.40290
      16     O     4.26905  4.26905  0.00000 -0.53810
      17     C     3.16021  3.16021  0.00000 -0.32043
      18     H     0.40070  0.40070  0.00000  0.19860
      19     H     0.40065  0.40065  0.00000  0.19870
      20     C     3.15239  3.15239  0.00000 -0.30478
      21     H     0.41991  0.41991  0.00000  0.16017
      22     H     0.41971  0.41971  0.00000  0.16059
      23     C     3.23981  3.23981  0.00000 -0.47963
      24     H     0.42034  0.42034  0.00000  0.15933
      25     H     0.42027  0.42027  0.00000  0.15946
      26     H     0.42085  0.42085  0.00000  0.15829
      27     H     0.42081  0.42081  0.00000  0.15837
      28     H     0.41674  0.41674  0.00000  0.16651

   Total alpha = 40.00000, Total beta = 40.00000, Total charge = -0.00000
