  ==> Input File <==

--------------------------------------------------------------------------
set {
	reference rhf
	basis cc-pvtz
}

set_num_threads( 4 )
memory 2 gb

molecule MOL {
0 1

H	 -0.583492	 2.436837	 -1.754023
C	 0.170813	 2.223500	 -0.984380
C	 0.062554	 0.862911	 -0.350953
O	 0.988942	 3.033677	 -0.717113
C	 -1.339253	 0.577611	 0.196911
H	 0.815452	 0.781871	 0.422398
H	 0.298052	 0.137474	 -1.126424
C	 -1.813142	 -0.849710	 -0.061612
H	 -2.032833	 1.276441	 -0.256032
H	 -1.357249	 0.782269	 1.263793
H	 -1.839268	 -1.063526	 -1.124230
H	 -2.810118	 -1.001930	 0.334000
H	 -1.159274	 -1.579980	 0.402282

	symmetry c1
}
set optking {
	frozen_dihedral = ("
		6 3 5 9
	")
}

ee = optimize('scf')
oeprop('DIPOLE', 'QUADRUPOLE', 'MULLIKEN_CHARGES')
f=open( 'psi4out.xyz', 'w' )
f.write( "13  " )
f.write( str(ee) + "\n" )
f.write( MOL.save_string_xyz() )
f.close()
--------------------------------------------------------------------------

    Molecular point group: c1
  Charge       = 0
  Multiplicity = 1
  Basis Set: CC-PVTZ
  Basis Set:
  @DF-RHF Final Energy:  -231.06759745075109
    Total Energy =                       -231.0675974507509522
    Molecular point group: c1
  Basis Set: CC-PVTZ
  Basis Set:
  Basis Set: CC-PVTZ
  Basis Set:
  @DF-RHF Final Energy:  -231.06788189682243
    Total Energy =                       -231.0678818968222572
  Basis Set: CC-PVTZ
  Basis Set:
  Basis Set: CC-PVTZ
  Basis Set:
  @DF-RHF Final Energy:  -231.06566328282827
    Total Energy =                       -231.0656632828283250
  Basis Set: CC-PVTZ
  Basis Set:
  Basis Set: CC-PVTZ
  Basis Set:
  @DF-RHF Final Energy:  -231.06796173831049
    Total Energy =                       -231.0679617383104869
  Basis Set: CC-PVTZ
  Basis Set:
  Basis Set: CC-PVTZ
  Basis Set:
  @DF-RHF Final Energy:  -231.06798277105381
    Total Energy =                       -231.0679827710538348
  Basis Set: CC-PVTZ
  Basis Set:
  Basis Set: CC-PVTZ
  Basis Set:
  @DF-RHF Final Energy:  -231.06798669338966
    Total Energy =                       -231.0679866933895141
  Basis Set: CC-PVTZ
  Basis Set:
  Basis Set: CC-PVTZ
  Basis Set:
  @DF-RHF Final Energy:  -231.06798904477330
    Total Energy =                       -231.0679890447735261
  Basis Set: CC-PVTZ
  Basis Set:
  Charge       = 0
  Multiplicity = 1
  Basis Set: CC-PVTZ
  Basis Set:

    Orbital Energies (a.u.)
    -----------------------

    Doubly Occupied:

       1A    -20.552523     2A    -11.321848     3A    -11.237402
       4A    -11.234771     5A    -11.222880     6A     -1.407634
       7A     -1.086718     8A     -0.977991     9A     -0.842685
      10A     -0.794448    11A     -0.679084    12A     -0.647321
      13A     -0.622841    14A     -0.591197    15A     -0.571527
      16A     -0.529374    17A     -0.515709    18A     -0.490136
      19A     -0.485734    20A     -0.413140

  @DF-RHF Final Energy:  -231.06798942096529

   => Energetics <=

    Nuclear Repulsion Energy =            170.7230295608390236
    One-Electron Energy =                -651.1321134276156499
    Two-Electron Energy =                 249.3410944458112795
    DFT Exchange-Correlation Energy =       0.0000000000000000
    Empirical Dispersion Energy =           0.0000000000000000
    PCM Polarization Energy =               0.0000000000000000
    EFP Energy =                            0.0000000000000000
    Total Energy =                       -231.0679894209653753
    Molecular point group: c1
  Basis Set: CC-PVTZ
  Basis Set:

  -Total Gradient:
     Atom            X                  Y                   Z
    ------   -----------------  -----------------  -----------------
       1       -0.000014610483     0.000014518044     0.000020292299
       2       -0.000004873287     0.000007733432    -0.000025807194
       3        0.000649262327    -0.004087647465    -0.000300367345
       4        0.000013947169    -0.000010620889    -0.000008947436
       5       -0.000873212772    -0.002052388479    -0.003312716034
       6       -0.000407468976     0.003706898620     0.000795847426
       7        0.000011614005    -0.000001306856     0.000016023422
       8        0.000012768197    -0.000002748032     0.000017474296
       9        0.000612315894     0.002441432081     0.002802937731
      10        0.000003755911    -0.000008052542    -0.000003092182
      11       -0.000000728706     0.000001680274    -0.000000135559
      12       -0.000000644311    -0.000002772964    -0.000000523176
      13       -0.000002124968    -0.000006725220    -0.000000986248

  **** Optimization is complete! (in 8 steps) ****
    Final optimized geometry and variables:
    Molecular point group: c1

    Geometry (in Angstrom), charge = 0, multiplicity = 1:

    H           -0.144526132068     1.295900015344    -1.391495945072
    C            0.575730633705     1.064670873819    -0.595315204880
    C            0.455816925821    -0.317730851677    -0.010612179852
    O            1.365381282486     1.876311472690    -0.257065696444
    C           -0.959571389669    -0.589226530527     0.532127247208
    H            1.204105587941    -0.400879175875     0.765271712429
    H            0.694638472882    -1.019998204899    -0.805044016287
    C           -1.428067104119    -2.024396571964     0.326738442017
    H           -1.667471153729     0.103082307345     0.085293453240
    H           -0.969520835715    -0.354648600489     1.590633225555
    H           -1.489478788202    -2.268428225817    -0.728253493782
    H           -2.407636515859    -2.180644484561     0.762400252279
    H           -0.742959987314    -2.726532663850     0.789320903041

  Mulliken Charges: (a.u.)
   Center  Symbol    Alpha    Beta     Spin     Total
       1     H     0.46681  0.46681  0.00000  0.06638
       2     C     2.90349  2.90349  0.00000  0.19302
       3     C     3.08179  3.08179  0.00000 -0.16358
       4     O     4.16394  4.16394  0.00000 -0.32789
       5     C     3.09550  3.09550  0.00000 -0.19100
       6     H     0.44126  0.44126  0.00000  0.11748
       7     H     0.45048  0.45048  0.00000  0.09903
       8     C     3.14669  3.14669  0.00000 -0.29339
       9     H     0.45270  0.45270  0.00000  0.09461
      10     H     0.44474  0.44474  0.00000  0.11052
      11     H     0.45486  0.45486  0.00000  0.09028
      12     H     0.44654  0.44654  0.00000  0.10692
      13     H     0.45119  0.45119  0.00000  0.09762

   Total alpha = 20.00000, Total beta = 20.00000, Total charge = -0.00000
