  ==> Input File <==

--------------------------------------------------------------------------
set {
	reference rhf
	basis 6-31G*
}

set_num_threads( 4 )
memory 2 gb

molecule MOL {
0 1

H	 -2.646374	 -0.642757	 1.268656
C	 -2.083525	 -0.384536	 0.393091
O	 -0.807605	 -0.127164	 0.768327
F	 -2.118945	 -1.383102	 -0.486752
F	 -2.621877	 0.670592	 -0.209486
C	 0.084052	 0.273579	 -0.209957
C	 1.483128	 -0.017455	 0.317345
Cl	 -0.102267	 1.998711	 -0.565516
H	 -0.049200	 -0.265864	 -1.131379
F	 2.390278	 0.328200	 -0.571328
F	 1.594322	 -1.313055	 0.532970
F	 1.729872	 0.612897	 1.439729

	symmetry c1
}
set optking {
	frozen_dihedral = ("
		9 6 3 2
	")
}

ee = optimize('scf')
oeprop('DIPOLE', 'QUADRUPOLE', 'MULLIKEN_CHARGES')
f=open( 'psi4out.xyz', 'w' )
f.write( "12  " )
f.write( str(ee) + "\n" )
f.write( MOL.save_string_xyz() )
f.close()
--------------------------------------------------------------------------

    Molecular point group: c1
  Charge       = 0
  Multiplicity = 1
  Basis Set: 6-31G*
  Basis Set:
  @DF-RHF Final Energy: -1146.31156201258727
    Total Energy =                      -1146.3115620125875012
    Molecular point group: c1
  Basis Set: 6-31G*
  Basis Set:
  Basis Set: 6-31G*
  Basis Set:
  @DF-RHF Final Energy: -1146.31263120829908
    Total Energy =                      -1146.3126312082988534
  Basis Set: 6-31G*
  Basis Set:
  Basis Set: 6-31G*
  Basis Set:
  @DF-RHF Final Energy: -1146.31293782329908
    Total Energy =                      -1146.3129378232993076
  Basis Set: 6-31G*
  Basis Set:
  Basis Set: 6-31G*
  Basis Set:
  @DF-RHF Final Energy: -1146.31296666923731
    Total Energy =                      -1146.3129666692373121
  Basis Set: 6-31G*
  Basis Set:
  Basis Set: 6-31G*
  Basis Set:
  @DF-RHF Final Energy: -1146.31299382870907
    Total Energy =                      -1146.3129938287090681
  Basis Set: 6-31G*
  Basis Set:
  Basis Set: 6-31G*
  Basis Set:
  @DF-RHF Final Energy: -1146.31301191347370
    Total Energy =                      -1146.3130119134730194
  Basis Set: 6-31G*
  Basis Set:
  Basis Set: 6-31G*
  Basis Set:
  @DF-RHF Final Energy: -1146.31301648044655
    Total Energy =                      -1146.3130164804474589
  Basis Set: 6-31G*
  Basis Set:
  Charge       = 0
  Multiplicity = 1
  Basis Set: 6-31G*
  Basis Set:

    Orbital Energies (a.u.)
    -----------------------

    Doubly Occupied:

       1A   -104.842915     2A    -26.359645     3A    -26.358211
       4A    -26.357314     5A    -26.347117     6A    -26.343131
       7A    -20.650058     8A    -11.527653     9A    -11.489163
      10A    -11.400511    11A    -10.577740    12A     -8.047102
      13A     -8.043539    14A     -8.043464    15A     -1.760912
      16A     -1.716609    17A     -1.657304    18A     -1.655798
      19A     -1.637783    20A     -1.485019    21A     -1.179114
      22A     -1.054962    23A     -0.985190    24A     -0.918251
      25A     -0.858462    26A     -0.851722    27A     -0.845587
      28A     -0.817878    29A     -0.810815    30A     -0.791068
      31A     -0.728604    32A     -0.725895    33A     -0.707709
      34A     -0.698007    35A     -0.679103    36A     -0.674484
      37A     -0.658224    38A     -0.657336    39A     -0.643640
      40A     -0.636832    41A     -0.595974    42A     -0.575242
      43A     -0.524839    44A     -0.475503    45A     -0.468376

  @DF-RHF Final Energy: -1146.31301699015512

   => Energetics <=

    Nuclear Repulsion Energy =            736.4663365471373027
    One-Electron Energy =               -3055.8310999251980320
    Two-Electron Energy =                1173.0517463879057232
    DFT Exchange-Correlation Energy =       0.0000000000000000
    Empirical Dispersion Energy =           0.0000000000000000
    PCM Polarization Energy =               0.0000000000000000
    EFP Energy =                            0.0000000000000000
    Total Energy =                      -1146.3130169901548925
    Molecular point group: c1
  Basis Set: 6-31G*
  Basis Set:

  -Total Gradient:
     Atom            X                  Y                   Z
    ------   -----------------  -----------------  -----------------
       1        0.000016562915     0.000019002198     0.000017484006
       2       -0.000578982290     0.002471922385     0.000303703699
       3        0.001490410650    -0.004146447283    -0.000197100034
       4        0.000005932737    -0.000113198859    -0.000058800792
       5       -0.000026867205     0.000047204530     0.000037381178
       6       -0.002859452548     0.003657145821    -0.001153763035
       7       -0.000015859917     0.000011973962     0.000026191772
       8       -0.000008459807     0.000009433674     0.000006920092
       9        0.001935540920    -0.001956986530     0.001024952178
      10       -0.000001232488    -0.000015569195     0.000020586260
      11        0.000016533810    -0.000023723430    -0.000029272059
      12        0.000025873225     0.000039242745     0.000001716735

  **** Optimization is complete! (in 8 steps) ****
    Final optimized geometry and variables:
    Molecular point group: c1

    Geometry (in Angstrom), charge = 0, multiplicity = 1:

    H           -2.538860051956    -1.018501582384     1.217704781277
    C           -2.048377566872    -0.643485198699     0.340547075290
    O           -0.769765991517    -0.340356531075     0.678826649688
    F           -2.067708452406    -1.564261093208    -0.622732266544
    F           -2.696248182237     0.413487933708    -0.126886740000
    C            0.129257417116     0.036806146054    -0.299132910393
    C            1.508609611293    -0.272588657764     0.273348032289
    CL           0.015959678412     1.754496272349    -0.722334499396
    H            0.014007494006    -0.544062664339    -1.198153028606
    F            2.443867802420     0.025754048262    -0.602857580076
    F            1.587167354759    -1.563521451639     0.527801002326
    F            1.744847875340     0.383991932083     1.382858456624

  Mulliken Charges: (a.u.)
   Center  Symbol    Alpha    Beta     Spin     Total
       1     H     0.40294  0.40294  0.00000  0.19413
       2     C     2.55700  2.55700  0.00000  0.88600
       3     O     4.30581  4.30581  0.00000 -0.61162
       4     F     4.68826  4.68826  0.00000 -0.37651
       5     F     4.68044  4.68044  0.00000 -0.36087
       6     C     3.04437  3.04437  0.00000 -0.08874
       7     C     2.43215  2.43215  0.00000  1.13569
       8    CL     8.50100  8.50100  0.00000 -0.00200
       9     H     0.36799  0.36799  0.00000  0.26402
      10     F     4.67467  4.67467  0.00000 -0.34933
      11     F     4.67666  4.67666  0.00000 -0.35333
      12     F     4.66872  4.66872  0.00000 -0.33744

   Total alpha = 45.00000, Total beta = 45.00000, Total charge =  0.00000
