  ==> Input File <==

--------------------------------------------------------------------------
set {
	reference rhf
	basis cc-pvtz
}

set_num_threads( 4 )
memory 2 gb

molecule MOL {
0 1

O	 0.749630	 1.305591	 -0.000460
C	 0.576499	 0.134701	 -0.003900
C	 -0.765656	 -0.550508	 -0.002152
O	 1.564816	 -0.744612	 -0.000631
C	 -1.945526	 0.411052	 0.000603
H	 -0.794329	 -1.203792	 -0.868145
H	 -0.791555	 -1.205429	 0.862701
C	 -2.746373	 0.340795	 -1.295017
H	 -1.583801	 1.420013	 0.157277
H	 -2.587090	 0.186904	 0.844127
H	 -2.131908	 0.592790	 -2.153063
H	 -3.579819	 1.032386	 -1.271965
H	 -3.147412	 -0.654180	 -1.457869
C	 2.884339	 -0.237801	 0.002883
H	 3.064150	 0.362814	 -0.876312
H	 3.533055	 -1.098529	 0.004958
H	 3.059365	 0.363432	 0.882614

	symmetry c1
}
set optking {
	frozen_dihedral = ("
		9 5 3 6
	")
}

ee = optimize('scf')
oeprop('DIPOLE', 'QUADRUPOLE', 'MULLIKEN_CHARGES')
f=open( 'psi4out.xyz', 'w' )
f.write( "17  " )
f.write( str(ee) + "\n" )
f.write( MOL.save_string_xyz() )
f.close()
--------------------------------------------------------------------------

    Molecular point group: c1
  Charge       = 0
  Multiplicity = 1
  Basis Set: CC-PVTZ
  Basis Set:
  @DF-RHF Final Energy:  -345.03047212832780
    Total Energy =                       -345.0304721283278013
    Molecular point group: c1
  Basis Set: CC-PVTZ
  Basis Set:
  Basis Set: CC-PVTZ
  Basis Set:
  @DF-RHF Final Energy:  -345.03057625004891
    Total Energy =                       -345.0305762500489664
  Basis Set: CC-PVTZ
  Basis Set:
  Basis Set: CC-PVTZ
  Basis Set:
  @DF-RHF Final Energy:  -345.03079696971616
    Total Energy =                       -345.0307969697163344
  Basis Set: CC-PVTZ
  Basis Set:
  Basis Set: CC-PVTZ
  Basis Set:
  @DF-RHF Final Energy:  -345.03090980679207
    Total Energy =                       -345.0309098067921809
  Basis Set: CC-PVTZ
  Basis Set:
  @DF-RHF Final Energy:  -345.03092145515262
    Total Energy =                       -345.0309214551526793
  Basis Set: CC-PVTZ
  Basis Set:
  @DF-RHF Final Energy:  -345.03092505103035
    Total Energy =                       -345.0309250510305219
  Basis Set: CC-PVTZ
  Basis Set:
  Basis Set: CC-PVTZ
  Basis Set:
  @DF-RHF Final Energy:  -345.03092773816451
    Total Energy =                       -345.0309277381644506
  Basis Set: CC-PVTZ
  Basis Set:
  Basis Set: CC-PVTZ
  Basis Set:
  @DF-RHF Final Energy:  -345.03092943209884
    Total Energy =                       -345.0309294320987874
  Basis Set: CC-PVTZ
  Basis Set:
  Charge       = 0
  Multiplicity = 1
  Basis Set: CC-PVTZ
  Basis Set:

    Orbital Energies (a.u.)
    -----------------------

    Doubly Occupied:

       1A    -20.597002     2A    -20.535378     3A    -11.365833
       4A    -11.279038     5A    -11.234341     6A    -11.218378
       7A    -11.210483     8A     -1.473302     9A     -1.366822
      10A     -1.078536    11A     -1.002158    12A     -0.939264
      13A     -0.829106    14A     -0.768716    15A     -0.704332
      16A     -0.685236    17A     -0.676619    18A     -0.626322
      19A     -0.606495    20A     -0.571676    21A     -0.570583
      22A     -0.533914    23A     -0.526038    24A     -0.488715
      25A     -0.484585    26A     -0.477274    27A     -0.461841
      28A     -0.443328

  @DF-RHF Final Energy:  -345.03092971769524

   => Energetics <=

    Nuclear Repulsion Energy =            314.7321770023522731
    One-Electron Energy =               -1094.0155786591660672
    Two-Electron Energy =                 434.2524719391187773
    DFT Exchange-Correlation Energy =       0.0000000000000000
    Empirical Dispersion Energy =           0.0000000000000000
    PCM Polarization Energy =               0.0000000000000000
    EFP Energy =                            0.0000000000000000
    Total Energy =                       -345.0309297176950167
    Molecular point group: c1
  Basis Set: CC-PVTZ
  Basis Set:

  -Total Gradient:
     Atom            X                  Y                   Z
    ------   -----------------  -----------------  -----------------
       1        0.000001378312    -0.000013025423     0.000023652846
       2       -0.000003724266     0.000025180575    -0.000013838495
       3       -0.001240698419    -0.001591529480     0.000793018494
       4        0.000009392823    -0.000004468964    -0.000013165897
       5        0.000030879773     0.000032676678     0.002041697195
       6        0.001022575630     0.001291466961    -0.000963467693
       7       -0.000003212402     0.000013726732     0.000008851065
       8       -0.000003669801     0.000000295108    -0.000004121470
       9        0.000190336247     0.000247746702    -0.001868477930
      10        0.000001371888    -0.000001337714    -0.000001738626
      11        0.000000673056     0.000000228065     0.000001046166
      12       -0.000001205019     0.000000404506    -0.000001984308
      13        0.000000241650     0.000000596322     0.000000900829
      14       -0.000006360545    -0.000003375126    -0.000004836458
      15        0.000002401288     0.000000727520     0.000000378621
      16        0.000001660245     0.000000421218     0.000000617471
      17       -0.000002040458     0.000000266324     0.000001468193

  **** Optimization is complete! (in 9 steps) ****
    Final optimized geometry and variables:
    Molecular point group: c1

    Geometry (in Angstrom), charge = 0, multiplicity = 1:

    O            0.683147449584     1.208865382084     0.118154611561
    C            0.502410490257     0.040871827113     0.181452555112
    C           -0.840080174644    -0.651743087043     0.204228186195
    O            1.487897905913    -0.840262664997     0.231388153599
    C           -2.046413635187     0.296733267855     0.206377814529
    H           -0.846989545195    -1.298285418991    -0.666861841598
    H           -0.836941492978    -1.311087317583     1.063152358772
    C           -2.835052568947     0.261527065051    -1.100243898954
    H           -1.699280265102     1.305703307703     0.375732362834
    H           -2.703717492024     0.039817080431     1.028382697500
    H           -2.208242228442     0.545952791359    -1.938702043487
    H           -3.672217086824     0.948743565914    -1.066241699189
    H           -3.227794358720    -0.730232108990    -1.299526427888
    C            2.809226245923    -0.339518136702     0.203029904038
    H            2.989423904176     0.209740524388    -0.709146583959
    H            3.454981445932    -1.201169548118     0.252244813959
    H            2.989093096238     0.309838098985     1.046902558069

  Mulliken Charges: (a.u.)
   Center  Symbol    Alpha    Beta     Spin     Total
       1     O     4.19680  4.19680  0.00000 -0.39360
       2     C     2.80248  2.80248  0.00000  0.39505
       3     C     3.10629  3.10629  0.00000 -0.21258
       4     O     4.14732  4.14732  0.00000 -0.29465
       5     C     3.08963  3.08963  0.00000 -0.17927
       6     H     0.44015  0.44015  0.00000  0.11970
       7     H     0.43274  0.43274  0.00000  0.13452
       8     C     3.14866  3.14866  0.00000 -0.29732
       9     H     0.43765  0.43765  0.00000  0.12469
      10     H     0.45013  0.45013  0.00000  0.09974
      11     H     0.45264  0.45264  0.00000  0.09472
      12     H     0.44841  0.44841  0.00000  0.10318
      13     H     0.45677  0.45677  0.00000  0.08645
      14     C     3.03623  3.03623  0.00000 -0.07245
      15     H     0.45445  0.45445  0.00000  0.09110
      16     H     0.44544  0.44544  0.00000  0.10911
      17     H     0.45420  0.45420  0.00000  0.09159

   Total alpha = 28.00000, Total beta = 28.00000, Total charge = -0.00000
