                              Psi4 1.0.54 Driver

  ==> Input File <==

--------------------------------------------------------------------------
set {
	reference rhf
	basis cc-pvtz
}

set_num_threads( 4 )
memory 2 gb

molecule MOL {
0 1

H	 1.320139	 0.450313	 0.990371
C	 0.848385	 0.440008	 0.000011
C	 -0.623497	 0.751021	 0.000090
O	 1.491360	 0.197350	 -0.961729
C	 -1.523725	 -0.474323	 -0.000013
H	 -0.813143	 1.382932	 -0.864897
H	 -0.813071	 1.382716	 0.865253
H	 -1.342980	 -1.087348	 -0.873016
H	 -2.565269	 -0.177464	 0.000070
H	 -1.342898	 -1.087564	 0.872820

	symmetry c1
}
set optking {
	frozen_dihedral = ("
		4 2 3 6
	")
}

ee,wfn = optimize('scf', return_wfn=True)
oeprop( wfn, 'DIPOLE', 'QUADRUPOLE', 'MULLIKEN_CHARGES')
f=open( 'psi4out.xyz', 'w' )
f.write( "10  " )
f.write( str(ee) + "\n" )
f.write( MOL.save_string_xyz() )
f.close()
--------------------------------------------------------------------------

    Molecular point group: c1
  Charge       = 0
  Multiplicity = 1
  Basis Set: CC-PVTZ
  Basis Set:
  @DF-RHF Final Energy:  -192.02097015237621
    Total Energy =                       -192.0209701523761794
    Molecular point group: c1
  Basis Set: CC-PVTZ
  Basis Set:
  Basis Set: CC-PVTZ
  Basis Set:
  @DF-RHF Final Energy:  -192.02082871138936
    Total Energy =                       -192.0208287113892993
  Basis Set: CC-PVTZ
  Basis Set:
  Basis Set: CC-PVTZ
  Basis Set:
  @DF-RHF Final Energy:  -192.02132263365212
    Total Energy =                       -192.0213226336521473
  Basis Set: CC-PVTZ
  Basis Set:
  Basis Set: CC-PVTZ
  Basis Set:
  @DF-RHF Final Energy:  -192.02186179425127
    Total Energy =                       -192.0218617942512935
  Basis Set: CC-PVTZ
  Basis Set:
  Basis Set: CC-PVTZ
  Basis Set:
  @DF-RHF Final Energy:  -192.02190618241423
    Total Energy =                       -192.0219061824141704
  Basis Set: CC-PVTZ
  Basis Set:
  Charge       = 0
  Multiplicity = 1
  Basis Set: CC-PVTZ
  Basis Set:

    Orbital Energies (a.u.)
    -----------------------

    Doubly Occupied:

       1A    -20.553451     2A    -11.322974     3A    -11.237508
       4A    -11.230055     5A     -1.408662     6A     -1.064328
       7A     -0.905472     8A     -0.788525     9A     -0.684604
      10A     -0.643070    11A     -0.606058    12A     -0.577747
      13A     -0.541734    14A     -0.510103    15A     -0.499104
      16A     -0.414328

  @DF-RHF Final Energy:  -192.02190780839538

   => Energetics <=

    Nuclear Repulsion Energy =            118.4641489686189857
    One-Electron Energy =                -494.9966687543068247
    Two-Electron Energy =                 184.5106119772925126
    DFT Exchange-Correlation Energy =       0.0000000000000000
    Empirical Dispersion Energy =           0.0000000000000000
    PCM Polarization Energy =               0.0000000000000000
    EFP Energy =                            0.0000000000000000
    Total Energy =                       -192.0219078083953264
    Molecular point group: c1
  Basis Set: CC-PVTZ
  Basis Set:

  -Total Gradient:
     Atom            X                  Y                   Z
    ------   -----------------  -----------------  -----------------
       1       -0.000003703074    -0.000021695386     0.000028585807
       2        0.000399237678     0.002360038402     0.000099020310
       3       -0.000254388897    -0.002011138248    -0.000961502916
       4       -0.000243333050    -0.001433220314     0.000053908599
       5       -0.000002189130     0.000016636560     0.000049458795
       6        0.000109017557     0.001146928714     0.000741922658
       7        0.000028817650    -0.000023867088     0.000009358803
       8        0.000012659434    -0.000008931392    -0.000024594779
       9       -0.000036763081    -0.000000640050    -0.000002896328
      10       -0.000009355082    -0.000024111198     0.000006739047

  **** Optimization is complete! (in 6 steps) ****
    Final optimized geometry and variables:
    Molecular point group: c1

    Geometry (in Angstrom), charge = 0, multiplicity = 1:

    H            1.170204060844     0.256494038135     1.344044337909
    C            0.755943676349     0.276836297518     0.328442259164
    C           -0.729486923748     0.515305238990     0.219799314524
    O            1.459059655558     0.076871079860    -0.600903707225
    C           -1.481903674990    -0.812067999316     0.087861412301
    H           -0.909125662300     1.141361096846    -0.645075213067
    H           -1.070911093096     1.049574112103     1.099697501658
    H           -1.165820174891    -1.340451734971    -0.801898028442
    H           -2.547894673918    -0.636132950917     0.022247128255
    H           -1.303030840760    -1.453583403611     0.943792893068

  Mulliken Charges: (a.u.)
   Center  Symbol    Alpha    Beta     Spin     Total
       1     H     0.46075  0.46075  0.00000  0.07850
       2     C     2.90427  2.90427  0.00000  0.19146
       3     C     3.08196  3.08196  0.00000 -0.16392
       4     O     4.16769  4.16769  0.00000 -0.33538
       5     C     3.14556  3.14556  0.00000 -0.29112
       6     H     0.44309  0.44309  0.00000  0.11382
       7     H     0.45226  0.45226  0.00000  0.09549
       8     H     0.44348  0.44348  0.00000  0.11304
       9     H     0.44686  0.44686  0.00000  0.10627
      10     H     0.45408  0.45408  0.00000  0.09185

   Total alpha = 16.00000, Total beta = 16.00000, Total charge = -0.00000

*** Psi4 exiting successfully. Buy a developer a beer!
