  ==> Input File <==

--------------------------------------------------------------------------
set {
	reference rhf
	basis 6-31G*
}

set_num_threads( 4 )
memory 2 gb

molecule MOL {
0 1

H	 5.268524	 0.192471	 1.070992
C	 4.673736	 -0.214914	 0.259335
C	 3.185378	 -0.203514	 0.605509
H	 4.871837	 0.380453	 -0.627026
H	 5.025590	 -1.224632	 0.065769
C	 2.317601	 -0.778379	 -0.516234
H	 2.874655	 0.814325	 0.817774
H	 3.023650	 -0.778480	 1.515976
C	 3.096964	 -1.617724	 -1.528835
H	 1.527006	 -1.385524	 -0.089644
H	 1.836926	 0.039549	 -1.048198
C	 3.575460	 -2.959665	 -0.994534
H	 2.466207	 -1.834072	 -2.389712
H	 3.947762	 -1.064075	 -1.919722
C	 4.667664	 -3.675304	 -1.770204
O	 3.101592	 -3.447132	 -0.012582
C	 4.260152	 -4.058450	 -3.200693
H	 4.928586	 -4.561968	 -1.204995
H	 5.544930	 -3.032009	 -1.805714
C	 5.346016	 -4.862270	 -3.918594
H	 3.342991	 -4.642703	 -3.167839
H	 4.039257	 -3.164586	 -3.778346
C	 4.952222	 -5.249607	 -5.343305
H	 5.564536	 -5.760509	 -3.346337
H	 6.266053	 -4.282289	 -3.942015
H	 4.052568	 -5.858136	 -5.349645
H	 4.760692	 -4.369840	 -5.951120
H	 5.740028	 -5.819319	 -5.825662

	symmetry c1
}
set optking {
	frozen_dihedral = ("
		10 6 3 2
	")
}

ee = optimize('scf')
oeprop('DIPOLE', 'QUADRUPOLE', 'MULLIKEN_CHARGES')
f=open( 'psi4out.xyz', 'w' )
f.write( "28  " )
f.write( str(ee) + "\n" )
f.write( MOL.save_string_xyz() )
f.close()
--------------------------------------------------------------------------

    Molecular point group: c1
  Charge       = 0
  Multiplicity = 1
  Basis Set: 6-31G*
  Basis Set:
  @DF-RHF Final Energy:  -426.15766697063293
    Total Energy =                       -426.1576669706331586
    Molecular point group: c1
  Basis Set: 6-31G*
  Basis Set:
  Basis Set: 6-31G*
  Basis Set:
  @DF-RHF Final Energy:  -426.16062185565397
    Total Energy =                       -426.1606218556538579
  Basis Set: 6-31G*
  Basis Set:
  Basis Set: 6-31G*
  Basis Set:
  @DF-RHF Final Energy:  -426.16009500021028
    Total Energy =                       -426.1600950002100490
  Basis Set: 6-31G*
  Basis Set:
  Basis Set: 6-31G*
  Basis Set:
  @DF-RHF Final Energy:  -426.16154980706199
    Total Energy =                       -426.1615498070619878
  Basis Set: 6-31G*
  Basis Set:
  @DF-RHF Final Energy:  -426.16163267033164
    Total Energy =                       -426.1616326703313007
  @DF-RHF Final Energy:  -426.16166801798022
    Total Energy =                       -426.1616680179805599
  Basis Set: 6-31G*
  Basis Set:
  @DF-RHF Final Energy:  -426.16166257413340
    Total Energy =                       -426.1616625741337430
  Basis Set: 6-31G*
  Basis Set:
  Basis Set: 6-31G*
  Basis Set:
  @DF-RHF Final Energy:  -426.16167276202225
    Total Energy =                       -426.1616727620228176
  Basis Set: 6-31G*
  Basis Set:
  Basis Set: 6-31G*
  Basis Set:
  @DF-RHF Final Energy:  -426.16167509753643
    Total Energy =                       -426.1616750975363175
  Basis Set: 6-31G*
  Basis Set:
  Charge       = 0
  Multiplicity = 1
  Basis Set: 6-31G*
  Basis Set:

    Orbital Energies (a.u.)
    -----------------------

    Doubly Occupied:

       1A    -20.547954     2A    -11.321458     3A    -11.232305
       4A    -11.228749     5A    -11.228661     6A    -11.225937
       7A    -11.216732     8A    -11.216192     9A    -11.212264
      10A    -11.209079    11A     -1.392968    12A     -1.094675
      13A     -1.074674    14A     -1.020510    15A     -0.988254
      16A     -0.912820    17A     -0.880881    18A     -0.808794
      19A     -0.790505    20A     -0.718421    21A     -0.668576
      22A     -0.652182    23A     -0.636995    24A     -0.620553
      25A     -0.608567    26A     -0.595371    27A     -0.577383
      28A     -0.552739    29A     -0.545345    30A     -0.534683
      31A     -0.530243    32A     -0.507232    33A     -0.504774
      34A     -0.484557    35A     -0.477702    36A     -0.473242
      37A     -0.468322    38A     -0.458407    39A     -0.455927
      40A     -0.391607

  @DF-RHF Final Energy:  -426.16167560825681

   => Energetics <=

    Nuclear Repulsion Energy =            541.8652658864306204
    One-Electron Energy =               -1651.9214019546586769
    Two-Electron Energy =                 683.8944604599714694
    DFT Exchange-Correlation Energy =       0.0000000000000000
    Empirical Dispersion Energy =           0.0000000000000000
    PCM Polarization Energy =               0.0000000000000000
    EFP Energy =                            0.0000000000000000
    Total Energy =                       -426.1616756082567008
    Molecular point group: c1
  Basis Set: 6-31G*
  Basis Set:

  -Total Gradient:
     Atom            X                  Y                   Z
    ------   -----------------  -----------------  -----------------
       1        0.000007630971     0.000001179905     0.000000072197
       2        0.000414084841    -0.003781385809     0.001470706292
       3        0.000132830560     0.004548539866    -0.002173607772
       4       -0.000012029601    -0.000014620889    -0.000005761778
       5       -0.000000245846     0.000002352335    -0.000005919076
       6       -0.004022003133     0.003388585205     0.000927467156
       7        0.000005392853     0.000000125198     0.000001899871
       8        0.000018794869     0.000000846039     0.000025531674
       9        0.000035781454     0.000026270615    -0.000013242285
      10        0.003451327343    -0.004150747858    -0.000202603029
      11        0.000002955579    -0.000021344891    -0.000025306721
      12        0.000009826629     0.000018536176     0.000017180077
      13       -0.000004842095    -0.000021525685    -0.000033832882
      14       -0.000000009277     0.000007887296     0.000003784469
      15       -0.000064190742    -0.000051868270    -0.000056918931
      16        0.000026830886    -0.000015339886    -0.000010273086
      17       -0.000000798032     0.000000923104     0.000033583767
      18        0.000000807918    -0.000001028320     0.000015827295
      19        0.000000062665     0.000022236493     0.000027022288
      20        0.000023721177     0.000020942359     0.000005372333
      21       -0.000015625127    -0.000008367609    -0.000026023525
      22       -0.000004161807     0.000022936582     0.000014687762
      23       -0.000013792298    -0.000007236775     0.000011410473
      24        0.000004887434     0.000011125528     0.000004188290
      25        0.000005285950     0.000004171899    -0.000009600862
      26       -0.000006680488     0.000001410596    -0.000003963883
      27        0.000005942000    -0.000000699390     0.000000347894
      28       -0.000001784680    -0.000003903815     0.000007971993

  **** Optimization is complete! (in 10 steps) ****
    Final optimized geometry and variables:
    Molecular point group: c1

    Geometry (in Angstrom), charge = 0, multiplicity = 1:

    H            1.088356433178     3.062349875014     3.099177287634
    C            0.685709617299     2.621974541265     2.192399620573
    C           -0.835216033485     2.493813051389     2.305791734361
    H            0.984763994099     3.258199325043     1.363469456229
    H            1.163877571645     1.656748923051     2.066823333577
    C           -1.585130983835     1.931263565641     1.072351557822
    H           -1.252695911737     3.466338186496     2.549569052235
    H           -1.044797134693     1.853745805253     3.155747747632
    C           -0.751579155319     1.124517725958     0.071355825286
    H           -2.365625442433     1.265378714757     1.418989084758
    H           -2.057592914780     2.742475824324     0.527282219227
    C           -0.260838862777    -0.211162617057     0.605918203431
    H           -1.368220155977     0.904671951749    -0.798899022844
    H            0.093866171111     1.689793246881    -0.308970477042
    C            0.797375225878    -0.946169543854    -0.198713068335
    O           -0.698604662510    -0.679301776753     1.614115428136
    C            0.313317366195    -1.394451202328    -1.585941647321
    H            1.099646245634    -1.806129883565     0.386837200037
    H            1.663735280359    -0.297397199538    -0.311832791418
    C            1.364584767719    -2.221454008678    -2.328523226002
    H           -0.595082850984    -1.982823358162    -1.475776548192
    H            0.052318126078    -0.528112392128    -2.188251887286
    C            0.893750399172    -2.675969028401    -3.709332332719
    H            1.624670596443    -3.091118864677    -1.730133047516
    H            2.275761849118    -1.636054905775    -2.430939161900
    H            0.000826636714    -3.290060207287    -3.636537776397
    H            0.659825905659    -1.826138990337    -4.344288528646
    H            1.658010451062    -3.261900240611    -4.209845575056

  Mulliken Charges: (a.u.)
   Center  Symbol    Alpha    Beta     Spin     Total
       1     H     0.41684  0.41684  0.00000  0.16633
       2     C     3.24572  3.24572  0.00000 -0.49145
       3     C     3.15403  3.15403  0.00000 -0.30806
       4     H     0.42488  0.42488  0.00000  0.15024
       5     H     0.42090  0.42090  0.00000  0.15820
       6     C     3.15233  3.15233  0.00000 -0.30467
       7     H     0.42170  0.42170  0.00000  0.15659
       8     H     0.40967  0.40967  0.00000  0.18067
       9     C     3.21503  3.21503  0.00000 -0.43006
      10     H     0.40566  0.40566  0.00000  0.18867
      11     H     0.42041  0.42041  0.00000  0.15917
      12     C     2.73165  2.73165  0.00000  0.53669
      13     H     0.40343  0.40343  0.00000  0.19314
      14     H     0.41025  0.41025  0.00000  0.17951
      15     C     3.20134  3.20134  0.00000 -0.40268
      16     O     4.26759  4.26759  0.00000 -0.53518
      17     C     3.16378  3.16378  0.00000 -0.32755
      18     H     0.39986  0.39986  0.00000  0.20028
      19     H     0.41302  0.41302  0.00000  0.17395
      20     C     3.15178  3.15178  0.00000 -0.30357
      21     H     0.41352  0.41352  0.00000  0.17296
      22     H     0.41876  0.41876  0.00000  0.16249
      23     C     3.24034  3.24034  0.00000 -0.48068
      24     H     0.41839  0.41839  0.00000  0.16322
      25     H     0.42141  0.42141  0.00000  0.15717
      26     H     0.41958  0.41958  0.00000  0.16083
      27     H     0.42121  0.42121  0.00000  0.15758
      28     H     0.41690  0.41690  0.00000  0.16619

   Total alpha = 40.00000, Total beta = 40.00000, Total charge =  0.00000
