  ==> Input File <==

--------------------------------------------------------------------------
set {
	reference rhf
	basis 6-31G*
}

set_num_threads( 1 )
memory 2 gb

molecule MOL {
0 1

O	 -2.821601	 1.309235	 -0.001213
C	 -2.668563	 0.129746	 -0.000350
C	 -3.801572	 -0.864014	 -0.000442
O	 -1.481751	 -0.454642	 0.000584
H	 -4.417280	 -0.689587	 -0.874708
H	 -3.443784	 -1.883046	 -0.000565
H	 -4.417179	 -0.689832	 0.873954
C	 -0.334255	 0.388708	 0.000906
C	 0.891947	 -0.504646	 0.000751
H	 -0.365390	 1.025305	 -0.873475
H	 -0.365484	 1.024911	 0.875569
C	 2.191998	 0.301789	 0.000897
H	 0.855148	 -1.151283	 -0.871571
H	 0.855132	 -1.151660	 0.872805
C	 3.441114	 -0.581407	 0.000108
H	 2.215074	 0.954890	 -0.869742
H	 2.215465	 0.953923	 0.872248
C	 4.737503	 0.221087	 0.101331
H	 3.456837	 -1.180588	 -0.907532
H	 3.385060	 -1.283656	 0.828827
H	 4.838872	 0.909443	 -0.732878
H	 5.604510	 -0.432002	 0.098221
H	 4.766714	 0.805321	 1.016660

	symmetry c1
}
set optking {
	frozen_dihedral = ("
		13 9 8 10,
		2 4 8 10,
		16 12 9 13,
		1 2 4 8
	")
}

ee = energy('scf')
oeprop('DIPOLE', 'QUADRUPOLE', 'MULLIKEN_CHARGES')
f=open( 'psi4out.xyz', 'w' )
f.write( "23  " )
f.write( str(ee) + "\n" )
f.write( MOL.save_string_xyz() )
f.close()
--------------------------------------------------------------------------

    Molecular point group: c1

    Geometry (in Angstrom), charge = 0, multiplicity = 1:

       Center              X                  Y                   Z               Mass
    ------------   -----------------  -----------------  -----------------  -----------------
           O         -2.821361368438     1.309583795147    -0.013039135136    15.994914619560
           C         -2.668323368438     0.130094795147    -0.012176135136    12.000000000000
           C         -3.801332368438    -0.863665204853    -0.012268135136    12.000000000000
           O         -1.481511368438    -0.454293204853    -0.011242135136    15.994914619560
           H         -4.417040368438    -0.689238204853    -0.886534135136     1.007825032070
           H         -3.443544368438    -1.882697204853    -0.012391135136     1.007825032070
           H         -4.416939368438    -0.689483204853     0.862127864864     1.007825032070
           C         -0.334015368438     0.389056795147    -0.010920135136    12.000000000000
           C          0.892186631562    -0.504297204853    -0.011075135136    12.000000000000
           H         -0.365150368438     1.025653795147    -0.885301135136     1.007825032070
           H         -0.365244368438     1.025259795147     0.863742864864     1.007825032070
           C          2.192237631562     0.302137795147    -0.010929135136    12.000000000000
           H          0.855387631562    -1.150934204853    -0.883397135136     1.007825032070
           H          0.855371631562    -1.151311204853     0.860978864864     1.007825032070
           C          3.441353631562    -0.581058204853    -0.011718135136    12.000000000000
           H          2.215313631562     0.955238795147    -0.881568135136     1.007825032070
           H          2.215704631562     0.954271795147     0.860421864864     1.007825032070
           C          4.737742631562     0.221435795147     0.089504864864    12.000000000000
           H          3.457076631562    -1.180239204853    -0.919358135136     1.007825032070
           H          3.385299631562    -1.283307204853     0.817000864864     1.007825032070
           H          4.839111631562     0.909791795147    -0.744704135136     1.007825032070
           H          5.604749631562    -0.431653204853     0.086394864864     1.007825032070
           H          4.766953631562     0.805669795147     1.004833864864     1.007825032070

  Charge       = 0
  Multiplicity = 1
  Basis Set: 6-31G*
  Basis Set:

    Orbital Energies (a.u.)
    -----------------------

    Doubly Occupied:

       1A    -20.603029     2A    -20.540544     3A    -11.374106
       4A    -11.281525     5A    -11.232407     6A    -11.224447
       7A    -11.223825     8A    -11.221700     9A    -11.212987
      10A     -1.467995    11A     -1.360758    12A     -1.094272
      13A     -1.042283    14A     -1.003472    15A     -0.930942
      16A     -0.841685    17A     -0.802723    18A     -0.774426
      19A     -0.692269    20A     -0.685070    21A     -0.667946
      22A     -0.646676    23A     -0.606086    24A     -0.588493
      25A     -0.582211    26A     -0.566785    27A     -0.558615
      28A     -0.537193    29A     -0.523345    30A     -0.504935
      31A     -0.491142    32A     -0.477915    33A     -0.471109
      34A     -0.465747    35A     -0.451252    36A     -0.435341

  @DF-RHF Final Energy:  -422.97946414384990

   => Energetics <=

    Nuclear Repulsion Energy =            449.6221199648766742
    One-Electron Energy =               -1466.8326699507404101
    Two-Electron Energy =                 594.2310858420161139
    DFT Exchange-Correlation Energy =       0.0000000000000000
    Empirical Dispersion Energy =           0.0000000000000000
    PCM Polarization Energy =               0.0000000000000000
    EFP Energy =                            0.0000000000000000
    Total Energy =                       -422.9794641438476219

  Mulliken Charges: (a.u.)
   Center  Symbol    Alpha    Beta     Spin     Total
       1     O     4.28391  4.28391  0.00000 -0.56781
       2     C     2.61532  2.61532  0.00000  0.76936
       3     C     3.28774  3.28774  0.00000 -0.57549
       4     O     4.31274  4.31274  0.00000 -0.62547
       5     H     0.39749  0.39749  0.00000  0.20501
       6     H     0.39985  0.39985  0.00000  0.20029
       7     H     0.39750  0.39750  0.00000  0.20499
       8     C     2.99561  2.99561  0.00000  0.00879
       9     C     3.16484  3.16484  0.00000 -0.32968
      10     H     0.41064  0.41064  0.00000  0.17872
      11     H     0.41065  0.41065  0.00000  0.17869
      12     C     3.16004  3.16004  0.00000 -0.32007
      13     H     0.41426  0.41426  0.00000  0.17149
      14     H     0.41421  0.41421  0.00000  0.17157
      15     C     3.15145  3.15145  0.00000 -0.30290
      16     H     0.42059  0.42059  0.00000  0.15883
      17     H     0.42089  0.42089  0.00000  0.15821
      18     C     3.23989  3.23989  0.00000 -0.47977
      19     H     0.42121  0.42121  0.00000  0.15758
      20     H     0.42150  0.42150  0.00000  0.15700
      21     H     0.42084  0.42084  0.00000  0.15833
      22     H     0.41800  0.41800  0.00000  0.16399
      23     H     0.42083  0.42083  0.00000  0.15834

   Total alpha = 36.00000, Total beta = 36.00000, Total charge = -0.00000
