  ==> Input File <==

--------------------------------------------------------------------------
set {
	reference rhf
	basis 6-31G*
}

set_num_threads( 1 )
memory 2 gb

molecule MOL {
0 1

H	 -2.499100	 -0.730091	 -0.745082
O	 -2.347518	 -0.290803	 0.079804
C	 -1.184022	 0.487508	 -0.006784
C	 0.062599	 -0.378592	 0.031606
H	 -1.176523	 1.099369	 -0.904519
H	 -1.187323	 1.153111	 0.844927
O	 1.171513	 0.459272	 -0.058250
H	 0.050699	 -1.089204	 -0.797170
H	 0.078739	 -0.954914	 0.954740
C	 1.029689	 1.509817	 -0.961236
H	 0.202005	 2.161231	 -0.686957
H	 1.946755	 2.082153	 -0.943236
H	 0.861107	 1.144567	 -1.972158

	symmetry c1
}
set optking {
	frozen_dihedral = ("
		8 4 3 5,
		1 2 3 5,
		4 7 10 13
	")
}

ee = energy('scf')
oeprop('DIPOLE', 'QUADRUPOLE', 'MULLIKEN_CHARGES')
f=open( 'psi4out.xyz', 'w' )
f.write( "13  " )
f.write( str(ee) + "\n" )
f.write( MOL.save_string_xyz() )
f.close()
--------------------------------------------------------------------------

    Molecular point group: c1

    Geometry (in Angstrom), charge = 0, multiplicity = 1:

       Center              X                  Y                   Z               Mass
    ------------   -----------------  -----------------  -----------------  -----------------
           H         -2.214453786107    -1.085421444977    -0.545549640119     1.007825032070
           O         -2.062871786107    -0.646133444977     0.279336359881    15.994914619560
           C         -0.899375786107     0.132177555023     0.192748359881    12.000000000000
           C          0.347245213893    -0.733922444977     0.231138359881    12.000000000000
           H         -0.891876786107     0.744038555023    -0.704986640119     1.007825032070
           H         -0.902676786107     0.797780555023     1.044459359881     1.007825032070
           O          1.456159213893     0.103941555023     0.141282359881    15.994914619560
           H          0.335345213893    -1.444534444977    -0.597637640119     1.007825032070
           H          0.363385213893    -1.310244444977     1.154272359881     1.007825032070
           C          1.314335213893     1.154486555023    -0.761703640119    12.000000000000
           H          0.486651213893     1.805900555023    -0.487424640119     1.007825032070
           H          2.231401213893     1.726822555023    -0.743703640119     1.007825032070
           H          1.145753213893     0.789236555023    -1.772625640119     1.007825032070

  Charge       = 0
  Multiplicity = 1
  Basis Set: 6-31G*
  Basis Set:

    Orbital Energies (a.u.)
    -----------------------

    Doubly Occupied:

       1A    -20.561937     2A    -20.561068     3A    -11.272292
       4A    -11.271323     5A    -11.271270     6A     -1.391858
       7A     -1.366957     8A     -1.010900     9A     -0.947416
      10A     -0.828031    11A     -0.720454    12A     -0.680220
      13A     -0.663106    14A     -0.632179    15A     -0.593593
      16A     -0.577015    17A     -0.541629    18A     -0.510542
      19A     -0.493189    20A     -0.439337    21A     -0.406080

  @DF-RHF Final Energy:  -267.93165712088449

   => Energetics <=

    Nuclear Repulsion Energy =            196.1242757717598693
    One-Electron Energy =                -754.6312315358194382
    Two-Electron Energy =                 290.5752986431747900
    DFT Exchange-Correlation Energy =       0.0000000000000000
    Empirical Dispersion Energy =           0.0000000000000000
    PCM Polarization Energy =               0.0000000000000000
    EFP Energy =                            0.0000000000000000
    Total Energy =                       -267.9316571208847222

  Mulliken Charges: (a.u.)
   Center  Symbol    Alpha    Beta     Spin     Total
       1     H     0.28145  0.28145  0.00000  0.43710
       2     O     4.37405  4.37405  0.00000 -0.74810
       3     C     3.01889  3.01889  0.00000 -0.03778
       4     C     2.99493  2.99493  0.00000  0.01013
       5     H     0.42337  0.42337  0.00000  0.15326
       6     H     0.40754  0.40754  0.00000  0.18491
       7     O     4.30387  4.30387  0.00000 -0.60774
       8     H     0.43523  0.43523  0.00000  0.12955
       9     H     0.40670  0.40670  0.00000  0.18660
      10     C     3.09415  3.09415  0.00000 -0.18831
      11     H     0.42276  0.42276  0.00000  0.15447
      12     H     0.40772  0.40772  0.00000  0.18457
      13     H     0.42934  0.42934  0.00000  0.14133

   Total alpha = 21.00000, Total beta = 21.00000, Total charge =  0.00000
