  ==> Input File <==

--------------------------------------------------------------------------
set {
	reference rhf
	basis 6-31G*
}

set_num_threads( 1 )
memory 2 gb

molecule MOL {
0 1

H	 0.310797	 -3.003291	 -4.287140
O	 1.255883	 -3.027770	 -4.322997
C	 1.779812	 -1.819558	 -3.833328
C	 1.653701	 -1.679016	 -2.320360
H	 2.825002	 -1.816466	 -4.114829
H	 1.309133	 -0.971380	 -4.329145
C	 0.208631	 -1.624849	 -1.818657
H	 2.171548	 -2.512153	 -1.852295
H	 2.175224	 -0.771904	 -2.019481
C	 0.115918	 -1.429151	 -0.302766
H	 -0.300920	 -2.542888	 -2.097812
H	 -0.317293	 -0.810209	 -2.316761
C	 -1.309753	 -1.282496	 0.241564
H	 0.607798	 -2.262024	 0.196459
H	 0.680421	 -0.538882	 -0.033587
C	 -2.037799	 -0.007733	 -0.193645
H	 -1.890610	 -2.142323	 -0.085726
H	 -1.285946	 -1.330893	 1.329189
C	 -3.489788	 0.042957	 0.286558
H	 -2.017067	 0.064384	 -1.280144
H	 -1.513726	 0.868678	 0.179924
C	 -4.216917	 1.317354	 -0.141063
H	 -4.025645	 -0.823308	 -0.095450
H	 -3.513059	 -0.038752	 1.371301
H	 -4.239342	 1.411634	 -1.223113
H	 -5.243387	 1.322503	 0.212445
H	 -3.726170	 2.201406	 0.256408

	symmetry c1
}
set optking {
	frozen_dihedral = ("
		14 10 7 4,
		10 7 4 8,
		8 4 3 2,
		10 13 16 20,
		20 16 19 22,
		4 3 2 1
	")
}

ee = energy('scf')
oeprop('DIPOLE', 'QUADRUPOLE', 'MULLIKEN_CHARGES')
f=open( 'psi4out.xyz', 'w' )
f.write( "27  " )
f.write( str(ee) + "\n" )
f.write( MOL.save_string_xyz() )
f.close()
--------------------------------------------------------------------------

    Molecular point group: c1

    Geometry (in Angstrom), charge = 0, multiplicity = 1:

       Center              X                  Y                   Z               Mass
    ------------   -----------------  -----------------  -----------------  -----------------
           H          0.968576498273    -1.927323413132    -2.854220509116     1.007825032070
           O          1.913662498273    -1.951802413132    -2.890077509116    15.994914619560
           C          2.437591498273    -0.743590413132    -2.400408509116    12.000000000000
           C          2.311480498273    -0.603048413132    -0.887440509116    12.000000000000
           H          3.482781498273    -0.740498413132    -2.681909509116     1.007825032070
           H          1.966912498273     0.104587586868    -2.896225509116     1.007825032070
           C          0.866410498273    -0.548881413132    -0.385737509116    12.000000000000
           H          2.829327498273    -1.436185413132    -0.419375509116     1.007825032070
           H          2.833003498273     0.304063586868    -0.586561509116     1.007825032070
           C          0.773697498273    -0.353183413132     1.130153490884    12.000000000000
           H          0.356859498273    -1.466920413132    -0.664892509116     1.007825032070
           H          0.340486498273     0.265758586868    -0.883841509116     1.007825032070
           C         -0.651973501727    -0.206528413132     1.674483490884    12.000000000000
           H          1.265577498273    -1.186056413132     1.629378490884     1.007825032070
           H          1.338200498273     0.537085586868     1.399332490884     1.007825032070
           C         -1.380019501727     1.068234586868     1.239274490884    12.000000000000
           H         -1.232830501727    -1.066355413132     1.347193490884     1.007825032070
           H         -0.628166501727    -0.254925413132     2.762108490884     1.007825032070
           C         -2.832008501727     1.118924586868     1.719477490884    12.000000000000
           H         -1.359287501727     1.140351586868     0.152775490884     1.007825032070
           H         -0.855946501727     1.944645586868     1.612843490884     1.007825032070
           C         -3.559137501727     2.393321586868     1.291856490884    12.000000000000
           H         -3.367865501727     0.252659586868     1.337469490884     1.007825032070
           H         -2.855279501727     1.037215586868     2.804220490884     1.007825032070
           H         -3.581562501727     2.487601586868     0.209806490884     1.007825032070
           H         -4.585607501727     2.398470586868     1.645364490884     1.007825032070
           H         -3.068390501727     3.277373586868     1.689327490884     1.007825032070

  Charge       = 0
  Multiplicity = 1
  Basis Set: 6-31G*
  Basis Set:

    Orbital Energies (a.u.)
    -----------------------

    Doubly Occupied:

       1A    -20.552345     2A    -11.267155     3A    -11.220003
       4A    -11.217322     5A    -11.216602     6A    -11.215796
       7A    -11.215362     8A    -11.214776     9A    -11.210025
      10A     -1.359109    11A     -1.095694    12A     -1.061787
      13A     -1.011783    14A     -0.948771    15A     -0.888213
      16A     -0.820185    17A     -0.801771    18A     -0.779115
      19A     -0.694303    20A     -0.646898    21A     -0.642701
      22A     -0.614134    23A     -0.604164    24A     -0.583510
      25A     -0.577900    26A     -0.554452    27A     -0.545023
      28A     -0.520982    29A     -0.507049    30A     -0.502637
      31A     -0.483477    32A     -0.474547    33A     -0.466445
      34A     -0.461066    35A     -0.453104    36A     -0.442118
      37A     -0.423265

  @DF-RHF Final Energy:  -388.28106743825293

   => Energetics <=

    Nuclear Repulsion Energy =            459.3524338745779119
    One-Electron Energy =               -1436.6797792147133350
    Two-Electron Energy =                 589.0462779018841957
    DFT Exchange-Correlation Energy =       0.0000000000000000
    Empirical Dispersion Energy =           0.0000000000000000
    PCM Polarization Energy =               0.0000000000000000
    EFP Energy =                            0.0000000000000000
    Total Energy =                       -388.2810674382512843

  Mulliken Charges: (a.u.)
   Center  Symbol    Alpha    Beta     Spin     Total
       1     H     0.27994  0.27994  0.00000  0.44012
       2     O     4.37094  4.37094  0.00000 -0.74187
       3     C     2.99738  2.99738  0.00000  0.00525
       4     C     3.16068  3.16068  0.00000 -0.32137
       5     H     0.41441  0.41441  0.00000  0.17119
       6     H     0.43207  0.43207  0.00000  0.13587
       7     C     3.16386  3.16386  0.00000 -0.32773
       8     H     0.41505  0.41505  0.00000  0.16989
       9     H     0.42404  0.42404  0.00000  0.15192
      10     C     3.15212  3.15212  0.00000 -0.30425
      11     H     0.42499  0.42499  0.00000  0.15002
      12     H     0.42311  0.42311  0.00000  0.15378
      13     C     3.15367  3.15367  0.00000 -0.30733
      14     H     0.41915  0.41915  0.00000  0.16169
      15     H     0.42393  0.42393  0.00000  0.15214
      16     C     3.15299  3.15299  0.00000 -0.30599
      17     H     0.42473  0.42473  0.00000  0.15053
      18     H     0.42047  0.42047  0.00000  0.15905
      19     C     3.15102  3.15102  0.00000 -0.30204
      20     H     0.42371  0.42371  0.00000  0.15259
      21     H     0.42359  0.42359  0.00000  0.15282
      22     C     3.23921  3.23921  0.00000 -0.47841
      23     H     0.42312  0.42312  0.00000  0.15377
      24     H     0.42274  0.42274  0.00000  0.15452
      25     H     0.42227  0.42227  0.00000  0.15545
      26     H     0.41906  0.41906  0.00000  0.16188
      27     H     0.42174  0.42174  0.00000  0.15651

   Total alpha = 37.00000, Total beta = 37.00000, Total charge = -0.00000
