  ==> Input File <==

--------------------------------------------------------------------------
set {
	reference rhf
	basis 6-31G*
}

set_num_threads( 4 )
memory 2 gb

molecule MOL {
0 1

O	 3.168421	 1.145960	 0.056807
C	 2.701189	 0.057885	 -0.047330
C	 1.326636	 -0.262271	 -0.582955
O	 3.347903	 -1.046386	 0.304773
C	 0.546855	 0.978046	 -1.013850
H	 1.458885	 -0.963842	 -1.399961
H	 0.796266	 -0.807553	 0.193623
C	 -0.888206	 0.680182	 -1.461480
H	 1.084553	 1.480173	 -1.812517
H	 0.522449	 1.676501	 -0.184401
C	 -1.005351	 -0.148686	 -2.743809
H	 -1.397391	 1.629049	 -1.613485
H	 -1.422101	 0.177297	 -0.656451
C	 -2.452525	 -0.325004	 -3.208135
H	 -0.430288	 0.331675	 -3.533983
H	 -0.561674	 -1.130806	 -2.596966
C	 -2.582130	 -1.156100	 -4.485872
H	 -2.900109	 0.654071	 -3.370360
H	 -3.030595	 -0.795570	 -2.414346
C	 -4.030132	 -1.324214	 -4.944923
H	 -2.004251	 -0.687823	 -5.279859
H	 -2.139183	 -2.136648	 -4.324304
H	 -4.089233	 -1.917477	 -5.852200
H	 -4.491053	 -0.361785	 -5.148587
H	 -4.627068	 -1.821219	 -4.185365
C	 4.728119	 -1.109107	 -0.004993
H	 4.882018	 -1.033965	 -1.071845
H	 5.068212	 -2.067527	 0.355250
H	 5.265056	 -0.311663	 0.488280

	symmetry c1
}
set optking {
	frozen_dihedral = ("
		1 2 4 26
	")
}

ee = optimize('scf')
oeprop('DIPOLE', 'QUADRUPOLE', 'MULLIKEN_CHARGES')
f=open( 'psi4out.xyz', 'w' )
f.write( "29  " )
f.write( str(ee) + "\n" )
f.write( MOL.save_string_xyz() )
f.close()
--------------------------------------------------------------------------

    Molecular point group: c1
  Charge       = 0
  Multiplicity = 1
  Basis Set: 6-31G*
  Basis Set:
  @DF-RHF Final Energy:  -501.03556094532428
    Total Energy =                       -501.0355609453249599
    Molecular point group: c1
  Basis Set: 6-31G*
  Basis Set:
  Basis Set: 6-31G*
  Basis Set:
  @DF-RHF Final Energy:  -501.03278158750788
    Total Energy =                       -501.0327815875077704
  Basis Set: 6-31G*
  Basis Set:
  Basis Set: 6-31G*
  Basis Set:
  @DF-RHF Final Energy:  -501.03618976704615
    Total Energy =                       -501.0361897670455846
  Basis Set: 6-31G*
  Basis Set:
  Basis Set: 6-31G*
  Basis Set:
  @DF-RHF Final Energy:  -501.03625436165214
    Total Energy =                       -501.0362543616524817
  Basis Set: 6-31G*
  Basis Set:
  @DF-RHF Final Energy:  -501.03626473157067
    Total Energy =                       -501.0362647315702134
  @DF-RHF Final Energy:  -501.03626144219800
    Total Energy =                       -501.0362614421983380
  @DF-RHF Final Energy:  -501.03547238340514
    Total Energy =                       -501.0354723834050219
  Basis Set: 6-31G*
  Basis Set:
  @DF-RHF Final Energy:  -501.03613102413124
    Total Energy =                       -501.0361310241312367
  Basis Set: 6-31G*
  Basis Set:
  Basis Set: 6-31G*
  Basis Set:
  @DF-RHF Final Energy:  -501.03626522505590
    Total Energy =                       -501.0362652250560132
  Basis Set: 6-31G*
  Basis Set:
  Basis Set: 6-31G*
  Basis Set:
  @DF-RHF Final Energy:  -501.03626724157675
    Total Energy =                       -501.0362672415767520
  Basis Set: 6-31G*
  Basis Set:
  Charge       = 0
  Multiplicity = 1
  Basis Set: 6-31G*
  Basis Set:

    Orbital Energies (a.u.)
    -----------------------

    Doubly Occupied:

       1A    -20.595747     2A    -20.549285     3A    -11.373173
       4A    -11.284009     5A    -11.235294     6A    -11.219468
       7A    -11.218023     8A    -11.216619     9A    -11.216408
      10A    -11.214947    11A    -11.209490    12A     -1.463859
      13A     -1.363875    14A     -1.098399    15A     -1.066818
      16A     -1.018342    17A     -0.976529    18A     -0.930656
      19A     -0.863059    20A     -0.800069    21A     -0.791087
      22A     -0.762577    23A     -0.699924    24A     -0.678831
      25A     -0.671525    26A     -0.651877    27A     -0.628163
      28A     -0.607886    29A     -0.596352    30A     -0.583525
      31A     -0.569221    32A     -0.546559    33A     -0.537997
      34A     -0.530578    35A     -0.514218    36A     -0.509138
      37A     -0.499022    38A     -0.478319    39A     -0.470707
      40A     -0.462735    41A     -0.461017    42A     -0.452279
      43A     -0.441413    44A     -0.433558

  @DF-RHF Final Energy:  -501.03626760889097

   => Energetics <=

    Nuclear Repulsion Energy =            610.1889110815120603
    One-Electron Energy =               -1891.4652111308262192
    Two-Electron Energy =                 780.2400324404235334
    DFT Exchange-Correlation Energy =       0.0000000000000000
    Empirical Dispersion Energy =           0.0000000000000000
    PCM Polarization Energy =               0.0000000000000000
    EFP Energy =                            0.0000000000000000
    Total Energy =                       -501.0362676088906255
    Molecular point group: c1
  Basis Set: 6-31G*
  Basis Set:

  -Total Gradient:
     Atom            X                  Y                   Z
    ------   -----------------  -----------------  -----------------
       1       -0.004389482932     0.001396801682     0.008807510923
       2        0.005922946688    -0.003822793955    -0.016469545173
       3       -0.000031697685     0.000026434913     0.000101528915
       4       -0.000247847267     0.006075597296     0.014221138011
       5        0.000010044546    -0.000014333275    -0.000002199435
       6        0.000003231224    -0.000002656390     0.000000741091
       7        0.000000190776     0.000005347462     0.000008877795
       8       -0.000008539647     0.000006721730    -0.000009079351
       9        0.000005905961     0.000007550689     0.000001020011
      10        0.000001122079    -0.000005108102     0.000003274844
      11        0.000001025086    -0.000027033795     0.000024359580
      12       -0.000014819430    -0.000006556658    -0.000008326351
      13        0.000005920548     0.000000321289     0.000001995750
      14       -0.000000987413     0.000015053344    -0.000003445316
      15       -0.000002120661    -0.000003923358     0.000015460625
      16        0.000005381130    -0.000007141389    -0.000003113909
      17        0.000002782820     0.000021512053    -0.000013680804
      18        0.000004990345     0.000006388045    -0.000003004172
      19       -0.000006290913     0.000005886922    -0.000005242895
      20       -0.000001332068    -0.000019782670     0.000012789226
      21       -0.000007519762     0.000007113065    -0.000003760137
      22        0.000008381019     0.000006187298    -0.000004370791
      23       -0.000000182791    -0.000007432354     0.000004838321
      24        0.000007731360    -0.000001383504    -0.000004084620
      25       -0.000007525084     0.000003658069     0.000002630760
      26       -0.001277628037    -0.003665292544    -0.006680796181
      27        0.000006717643     0.000001429154     0.000003076031
      28        0.000006436263    -0.000004197671     0.000002219731
      29        0.000003166187     0.000001632657    -0.000000812482

  **** Optimization is complete! (in 11 steps) ****
    Final optimized geometry and variables:
    Molecular point group: c1

    Geometry (in Angstrom), charge = 0, multiplicity = 1:

    O            2.729058777633     1.391123964726     1.556181681652
    C            2.257483496943     0.303967090118     1.502143568433
    C            0.874850130727    -0.025303646535     0.997101161462
    O            2.872046754060    -0.781554122849     1.985115488020
    C            0.058681628350     1.207856181737     0.617357188351
    H            1.000547237092    -0.703269069798     0.157806004309
    H            0.379046660177    -0.604983673413     1.771157689399
    C           -1.379650236423     0.890942902875     0.193860818018
    H            0.567239235175     1.743848578761    -0.178187617721
    H            0.037778281045     1.882473208360     1.466774369931
    C           -1.508256896806     0.094767909397    -1.107943981965
    H           -1.912214422245     1.832176262794     0.079232504768
    H           -1.884236836098     0.354926569912     0.996321537327
    C           -2.961361422910    -0.097086855164    -1.546934190616
    H           -0.959275302648     0.607328486108    -1.896459631652
    H           -1.043240466999    -0.882258961730    -0.997155334833
    C           -3.102380591830    -0.896294911829    -2.843658750323
    H           -3.430528400701     0.877119209185    -1.673389822016
    H           -3.513505922193    -0.599645937399    -0.754343040386
    C           -4.556621499296    -1.084421186063    -3.274355299581
    H           -2.553318801310    -0.394155053740    -3.637422156120
    H           -2.634678457302    -1.870723054085    -2.718883583766
    H           -4.623843359334    -1.655527925647    -4.195184802424
    H           -5.042520813583    -0.127462523607    -3.442564444378
    H           -5.125190817066    -1.613586180779    -2.514773837110
    C            4.269446014285    -0.878386207167     1.779122188351
    H            4.492118882131    -0.877211207286     0.719294710287
    H            4.572712036644    -1.818535948515     2.212843947653
    H            4.789732020202    -0.062414923288     2.258486553139

  Mulliken Charges: (a.u.)
   Center  Symbol    Alpha    Beta     Spin     Total
       1     O     4.27492  4.27492  0.00000 -0.54985
       2     C     2.60468  2.60468  0.00000  0.79064
       3     C     3.21195  3.21195  0.00000 -0.42391
       4     O     4.31195  4.31195  0.00000 -0.62391
       5     C     3.15417  3.15417  0.00000 -0.30834
       6     H     0.40216  0.40216  0.00000  0.19567
       7     H     0.39920  0.39920  0.00000  0.20161
       8     C     3.15649  3.15649  0.00000 -0.31298
       9     H     0.41271  0.41271  0.00000  0.17458
      10     H     0.40917  0.40917  0.00000  0.18165
      11     C     3.15503  3.15503  0.00000 -0.31007
      12     H     0.41815  0.41815  0.00000  0.16370
      13     H     0.42348  0.42348  0.00000  0.15304
      14     C     3.15031  3.15031  0.00000 -0.30061
      15     H     0.42280  0.42280  0.00000  0.15441
      16     H     0.42398  0.42398  0.00000  0.15204
      17     C     3.15145  3.15145  0.00000 -0.30291
      18     H     0.42319  0.42319  0.00000  0.15362
      19     H     0.42380  0.42380  0.00000  0.15239
      20     C     3.23936  3.23936  0.00000 -0.47872
      21     H     0.42288  0.42288  0.00000  0.15425
      22     H     0.42360  0.42360  0.00000  0.15280
      23     H     0.41923  0.41923  0.00000  0.16153
      24     H     0.42147  0.42147  0.00000  0.15707
      25     H     0.42174  0.42174  0.00000  0.15653
      26     C     3.09444  3.09444  0.00000 -0.18888
      27     H     0.41766  0.41766  0.00000  0.16469
      28     H     0.40674  0.40674  0.00000  0.18653
      29     H     0.40329  0.40329  0.00000  0.19343

   Total alpha = 44.00000, Total beta = 44.00000, Total charge = -0.00000
