                              Psi4 1.0.54 Driver

  ==> Input File <==

--------------------------------------------------------------------------
set {
	reference rhf
	basis cc-pvtz
}

set_num_threads( 4 )
memory 2 gb

molecule MOL {
0 1

H	 1.648821	 0.928448	 1.181636
O	 0.858973	 0.412017	 1.235542
C	 0.489979	 0.078084	 0.002623
C	 -0.763662	 -0.754014	 0.000816
O	 1.105076	 0.408686	 -0.951457
C	 -2.038001	 0.074705	 -0.000833
H	 -0.712945	 -1.405886	 -0.864342
H	 -0.715137	 -1.405770	 0.866182
H	 -2.087267	 0.710831	 -0.874232
H	 -2.903419	 -0.576199	 -0.001922
H	 -2.089467	 0.710909	 0.872389

	symmetry c1
}
set optking {
	frozen_dihedral = ("
		2 3 4 7
	")
}

ee,wfn = optimize('scf', return_wfn=True)
oeprop( wfn, 'DIPOLE', 'QUADRUPOLE', 'MULLIKEN_CHARGES')
f=open( 'psi4out.xyz', 'w' )
f.write( "11  " )
f.write( str(ee) + "\n" )
f.write( MOL.save_string_xyz() )
f.close()
--------------------------------------------------------------------------

    Molecular point group: c1
  Charge       = 0
  Multiplicity = 1
  Basis Set: CC-PVTZ
  Basis Set:
  @DF-RHF Final Energy:  -266.95087453277068
    Total Energy =                       -266.9508745327707402
    Molecular point group: c1
  Basis Set: CC-PVTZ
  Basis Set:
  Basis Set: CC-PVTZ
  Basis Set:
  @DF-RHF Final Energy:  -266.95126400779770
    Total Energy =                       -266.9512640077977039
  Basis Set: CC-PVTZ
  Basis Set:
  Basis Set: CC-PVTZ
  Basis Set:
  @DF-RHF Final Energy:  -266.75194620017038
    Total Energy =                       -266.7519462001703232
  Basis Set: CC-PVTZ
  Basis Set:
  Basis Set: CC-PVTZ
  Basis Set:
  @DF-RHF Final Energy:  -266.88416342539301
    Total Energy =                       -266.8841634253928987
  Basis Set: CC-PVTZ
  Basis Set:
  @DF-RHF Final Energy:  -266.94663588572394
    Total Energy =                       -266.9466358857239356
  @DF-RHF Final Energy:  -266.94933190029803
    Total Energy =                       -266.9493319002979206
  @DF-RHF Final Energy:  -266.78750678533936
    Total Energy =                       -266.7875067853392466
  @DF-RHF Final Energy:  -266.92519943585353
    Total Energy =                       -266.9251994358535853
  @DF-RHF Final Energy:  -266.95051888752801
    Total Energy =                       -266.9505188875279487
  @DF-RHF Final Energy:  -266.93138273751208
    Total Energy =                       -266.9313827375119672
  Basis Set: CC-PVTZ
  Basis Set:
  @DF-RHF Final Energy:  -266.95097558169755
    Total Energy =                       -266.9509755816974348
  Basis Set: CC-PVTZ
  Basis Set:
  Basis Set: CC-PVTZ
  Basis Set:
  @DF-RHF Final Energy:  -266.95141200263390
    Total Energy =                       -266.9514120026339015
  Basis Set: CC-PVTZ
  Basis Set:
  Basis Set: CC-PVTZ
  Basis Set:
  @DF-RHF Final Energy:  -266.95151618487273
    Total Energy =                       -266.9515161848727303
  Basis Set: CC-PVTZ
  Basis Set:
  Charge       = 0
  Multiplicity = 1
  Basis Set: CC-PVTZ
  Basis Set:

    Orbital Energies (a.u.)
    -----------------------

    Doubly Occupied:

       1A    -20.606340     2A    -20.539461     3A    -11.373518
       4A    -11.241333     5A    -11.229375     6A     -1.478379
       7A     -1.369074     8A     -1.068853     9A     -0.914692
      10A     -0.817369    11A     -0.706731    12A     -0.689100
      13A     -0.644424    14A     -0.619016    15A     -0.595375
      16A     -0.544446    17A     -0.528144    18A     -0.513784
      19A     -0.480305    20A     -0.444222

  @DF-RHF Final Energy:  -266.95152269328798

   => Energetics <=

    Nuclear Repulsion Energy =            180.3371132554251801
    One-Electron Energy =                -721.7693906794809209
    Two-Electron Energy =                 274.4807547307676714
    DFT Exchange-Correlation Energy =       0.0000000000000000
    Empirical Dispersion Energy =           0.0000000000000000
    PCM Polarization Energy =               0.0000000000000000
    EFP Energy =                            0.0000000000000000
    Total Energy =                       -266.9515226932880978
    Molecular point group: c1
  Basis Set: CC-PVTZ
  Basis Set:

  -Total Gradient:
     Atom            X                  Y                   Z
    ------   -----------------  -----------------  -----------------
       1       -0.000020067671     0.000030259994    -0.000013259229
       2        0.000046088044    -0.000095029544    -0.000395156755
       3       -0.000088070991    -0.000076087385     0.000462143998
       4       -0.000094008229     0.000279943801     0.000321208588
       5       -0.000011137904     0.000101481744    -0.000003196207
       6        0.000023707481    -0.000006318558     0.000021782803
       7        0.000117465658    -0.000237734112    -0.000380346606
       8        0.000007862968     0.000001585248     0.000021010223
       9        0.000000144165    -0.000002456814    -0.000010746057
      10        0.000020689361     0.000000092149    -0.000013659144
      11       -0.000002672881     0.000004263478    -0.000009781613

  **** Optimization is complete! (in 14 steps) ****
    Final optimized geometry and variables:
    Molecular point group: c1

    Geometry (in Angstrom), charge = 0, multiplicity = 1:

    H            1.920916309265    -1.041920012756     0.218185167707
    O            1.018977528851    -1.130481774712    -0.051751840619
    C            0.496556506663     0.085491284354    -0.176871200512
    C           -0.959812372613     0.055181486046    -0.553739868269
    O            1.127910021888     1.066391974574     0.019213717480
    C           -1.844303143337     0.018570257314     0.695982272437
    H           -1.161580284886     0.945678514305    -1.131217064204
    H           -1.149323563696    -0.812569733124    -1.170549004957
    H           -1.667222492135     0.886899080954     1.317495880610
    H           -2.888168876495     0.012943835997     0.410555336918
    H           -1.651574679086    -0.869959498428     1.284252456080

  Mulliken Charges: (a.u.)
   Center  Symbol    Alpha    Beta     Spin     Total
       1     H     0.37995  0.37995  0.00000  0.24009
       2     O     4.16380  4.16380  0.00000 -0.32759
       3     C     2.79755  2.79755  0.00000  0.40490
       4     C     3.08939  3.08939  0.00000 -0.17878
       5     O     4.19775  4.19775  0.00000 -0.39550
       6     C     3.14984  3.14984  0.00000 -0.29968
       7     H     0.43840  0.43840  0.00000  0.12320
       8     H     0.44283  0.44283  0.00000  0.11435
       9     H     0.44505  0.44505  0.00000  0.10990
      10     H     0.44688  0.44688  0.00000  0.10623
      11     H     0.44856  0.44856  0.00000  0.10287

   Total alpha = 20.00000, Total beta = 20.00000, Total charge = -0.00000

*** Psi4 exiting successfully. Buy a developer a beer!
