  ==> Input File <==

--------------------------------------------------------------------------
set {
	reference rhf
	basis cc-pvtz
}

set_num_threads( 4 )
memory 2 gb

molecule MOL {
0 1

H	 -2.362812	 -0.831741	 -0.859882
N	 -1.641648	 -0.142254	 -0.870037
C	 -0.561396	 -0.500007	 0.035200
H	 -2.058918	 0.724603	 -0.602117
C	 0.575129	 0.507849	 -0.048832
H	 -0.193084	 -1.477804	 -0.257164
H	 -0.886963	 -0.585975	 1.073001
C	 1.951750	 -0.141983	 0.035101
H	 0.478254	 1.061643	 -0.975981
H	 0.467676	 1.231891	 0.755499
H	 2.101550	 -0.848142	 -0.774949
H	 2.738260	 0.600794	 -0.026526
H	 2.078939	 -0.679792	 0.968824

	symmetry c1
}
set optking {
	frozen_dihedral = ("
		6 3 5 9
	")
}

ee = optimize('scf')
oeprop('DIPOLE', 'QUADRUPOLE', 'MULLIKEN_CHARGES')
f=open( 'psi4out.xyz', 'w' )
f.write( "13  " )
f.write( str(ee) + "\n" )
f.write( MOL.save_string_xyz() )
f.close()
--------------------------------------------------------------------------

    Molecular point group: c1
  Charge       = 0
  Multiplicity = 1
  Basis Set: CC-PVTZ
  Basis Set:
  @DF-RHF Final Energy:  -173.34813562521776
    Total Energy =                       -173.3481356252177363
    Molecular point group: c1
  Basis Set: CC-PVTZ
  Basis Set:
  Basis Set: CC-PVTZ
  Basis Set:
  @DF-RHF Final Energy:  -173.34845292746826
    Total Energy =                       -173.3484529274684292
  Basis Set: CC-PVTZ
  Basis Set:
  Basis Set: CC-PVTZ
  Basis Set:
  @DF-RHF Final Energy:  -173.34851904386363
    Total Energy =                       -173.3485190438636323
  Basis Set: CC-PVTZ
  Basis Set:
  Basis Set: CC-PVTZ
  Basis Set:
  @DF-RHF Final Energy:  -173.34852156540100
    Total Energy =                       -173.3485215654011427
  Basis Set: CC-PVTZ
  Basis Set:
  Charge       = 0
  Multiplicity = 1
  Basis Set: CC-PVTZ
  Basis Set:

    Orbital Energies (a.u.)
    -----------------------

    Doubly Occupied:

       1A    -15.527706     2A    -11.238270     3A    -11.210332
       4A    -11.207081     5A     -1.178382     6A     -1.035029
       7A     -0.899099     8A     -0.801674     9A     -0.653432
      10A     -0.641498    11A     -0.598635    12A     -0.566836
      13A     -0.534369    14A     -0.491275    15A     -0.474912
      16A     -0.468282    17A     -0.383344

  @DF-RHF Final Energy:  -173.34852191226429

   => Energetics <=

    Nuclear Repulsion Energy =            131.8443207242086146
    One-Electron Energy =                -494.5653708495051433
    Two-Electron Energy =                 189.3725282130323535
    DFT Exchange-Correlation Energy =       0.0000000000000000
    Empirical Dispersion Energy =           0.0000000000000000
    PCM Polarization Energy =               0.0000000000000000
    EFP Energy =                            0.0000000000000000
    Total Energy =                       -173.3485219122641752
    Molecular point group: c1
  Basis Set: CC-PVTZ
  Basis Set:

  -Total Gradient:
     Atom            X                  Y                   Z
    ------   -----------------  -----------------  -----------------
       1       -0.000036804132    -0.000013070937    -0.000012181591
       2        0.000066455187    -0.000026840879     0.000021682616
       3       -0.001931383193     0.001859370023    -0.004991726297
       4       -0.000008025663     0.000016281256     0.000014137459
       5        0.003490141175    -0.004126706075    -0.001578816771
       6        0.001106827601    -0.000895715405     0.004388322701
       7       -0.000024605563     0.000001216299     0.000032525133
       8       -0.000024570591     0.000017045434    -0.000006447800
       9       -0.002618292908     0.003145666468     0.002106708517
      10       -0.000005268372     0.000010208340     0.000015298579
      11       -0.000006453225     0.000017910839     0.000009749456
      12        0.000005253735    -0.000005393918     0.000003645122
      13       -0.000013274050     0.000000028554    -0.000002897122

  **** Optimization is complete! (in 5 steps) ****
    Final optimized geometry and variables:
    Molecular point group: c1

    Geometry (in Angstrom), charge = 0, multiplicity = 1:

    H           -2.462130167764    -0.729573793876    -0.569047668389
    N           -1.717381374539    -0.068734998367    -0.640993980095
    C           -0.611152052334    -0.435612906038     0.228347635471
    H           -2.091221820277     0.820575147772    -0.380886686271
    C            0.535659041618     0.577127560030     0.143851037452
    H           -0.252432766768    -1.418082188773    -0.058310295497
    H           -0.913780169976    -0.534841778114     1.271917658552
    C            1.916108303421    -0.055185197552     0.266202875207
    H            0.442041068831     1.127796998964    -0.785334649973
    H            0.414215488396     1.316927691883     0.931089952542
    H            2.104347782458    -0.739376643775    -0.553805567447
    H            2.695090752390     0.698223485910     0.257500160796
    H            2.009877232039    -0.614530825186     1.191734110033

  Mulliken Charges: (a.u.)
   Center  Symbol    Alpha    Beta     Spin     Total
       1     H     0.43056  0.43056  0.00000  0.13888
       2     N     3.68593  3.68593  0.00000 -0.37186
       3     C     3.02304  3.02304  0.00000 -0.04609
       4     H     0.43092  0.43092  0.00000  0.13817
       5     C     3.08437  3.08437  0.00000 -0.16873
       6     H     0.46026  0.46026  0.00000  0.07948
       7     H     0.46895  0.46895  0.00000  0.06211
       8     C     3.14936  3.14936  0.00000 -0.29872
       9     H     0.45039  0.45039  0.00000  0.09922
      10     H     0.45731  0.45731  0.00000  0.08537
      11     H     0.45312  0.45312  0.00000  0.09377
      12     H     0.44962  0.44962  0.00000  0.10076
      13     H     0.45618  0.45618  0.00000  0.08765

   Total alpha = 17.00000, Total beta = 17.00000, Total charge = -0.00000
