  ==> Input File <==

--------------------------------------------------------------------------
set {
	reference rhf
	basis 6-31G*
}

set_num_threads( 4 )
memory 2 gb

molecule MOL {
0 1

H	 -2.381799	 -2.668004	 -2.086386
O	 -2.407575	 -1.943395	 -1.477960
C	 -1.098246	 -1.558924	 -1.145649
C	 -1.177863	 -0.397191	 -0.171080
H	 -0.558421	 -2.389396	 -0.692645
H	 -0.548590	 -1.260457	 -2.037352
C	 0.198102	 0.111031	 0.262842
H	 -1.749476	 -0.716889	 0.695973
H	 -1.743041	 0.403856	 -0.639454
C	 1.331804	 -0.827780	 -0.158768
H	 0.361943	 1.100838	 -0.156218
H	 0.217265	 0.229072	 1.345532
C	 2.723619	 -0.410569	 0.329459
H	 1.342964	 -0.912588	 -1.244120
H	 1.116806	 -1.824343	 0.220779
C	 3.243875	 0.895854	 -0.272975
H	 3.424222	 -1.207124	 0.091250
H	 2.714788	 -0.329854	 1.414619
H	 3.251977	 0.848779	 -1.358681
H	 2.637085	 1.747371	 0.016682
H	 4.259473	 1.094070	 0.055697

	symmetry c1
}
set optking {
	frozen_dihedral = ("
		8 4 7 10
	")
}

ee = optimize('scf')
oeprop('DIPOLE', 'QUADRUPOLE', 'MULLIKEN_CHARGES')
f=open( 'psi4out.xyz', 'w' )
f.write( "21  " )
f.write( str(ee) + "\n" )
f.write( MOL.save_string_xyz() )
f.close()
--------------------------------------------------------------------------

    Molecular point group: c1
  Charge       = 0
  Multiplicity = 1
  Basis Set: 6-31G*
  Basis Set:
  @DF-RHF Final Energy:  -310.19861240585203
    Total Energy =                       -310.1986124058519181
    Molecular point group: c1
  Basis Set: 6-31G*
  Basis Set:
  Basis Set: 6-31G*
  Basis Set:
  @DF-RHF Final Energy:  -310.19878168527038
    Total Energy =                       -310.1987816852705464
  Basis Set: 6-31G*
  Basis Set:
  Basis Set: 6-31G*
  Basis Set:
  @DF-RHF Final Energy:  -310.20275505522761
    Total Energy =                       -310.2027550552278399
  Basis Set: 6-31G*
  Basis Set:
  Basis Set: 6-31G*
  Basis Set:
  @DF-RHF Final Energy:  -310.20349818107644
    Total Energy =                       -310.2034981810757017
  Basis Set: 6-31G*
  Basis Set:
  @DF-RHF Final Energy:  -310.20359859714733
    Total Energy =                       -310.2035985971471064
  Basis Set: 6-31G*
  Basis Set:
  @DF-RHF Final Energy:  -310.20361611813041
    Total Energy =                       -310.2036161181308103
  Basis Set: 6-31G*
  Basis Set:
  Basis Set: 6-31G*
  Basis Set:
  @DF-RHF Final Energy:  -310.20359634666715
    Total Energy =                       -310.2035963466671546
  Basis Set: 6-31G*
  Basis Set:
  Basis Set: 6-31G*
  Basis Set:
  @DF-RHF Final Energy:  -310.20363303245506
    Total Energy =                       -310.2036330324553433
  Basis Set: 6-31G*
  Basis Set:
  Charge       = 0
  Multiplicity = 1
  Basis Set: 6-31G*
  Basis Set:

    Orbital Energies (a.u.)
    -----------------------

    Doubly Occupied:

       1A    -20.551274     2A    -11.266629     3A    -11.216956
       4A    -11.216307     5A    -11.215561     6A    -11.210500
       7A    -11.209146     8A     -1.358108     9A     -1.084523
      10A     -1.029341    11A     -0.951237    12A     -0.886731
      13A     -0.815829    14A     -0.763314    15A     -0.694827
      16A     -0.659001    17A     -0.619628    18A     -0.607916
      19A     -0.588935    20A     -0.564670    21A     -0.543144
      22A     -0.521232    23A     -0.513412    24A     -0.490078
      25A     -0.479964    26A     -0.459086    27A     -0.451356
      28A     -0.444369    29A     -0.427370

  @DF-RHF Final Energy:  -310.20363311072032

   => Energetics <=

    Nuclear Repulsion Energy =            316.7033604210678845
    One-Electron Energy =               -1048.1330990391475098
    Two-Electron Energy =                 421.2261055073594207
    DFT Exchange-Correlation Energy =       0.0000000000000000
    Empirical Dispersion Energy =           0.0000000000000000
    PCM Polarization Energy =               0.0000000000000000
    EFP Energy =                            0.0000000000000000
    Total Energy =                       -310.2036331107202614
    Molecular point group: c1
  Basis Set: 6-31G*
  Basis Set:

  -Total Gradient:
     Atom            X                  Y                   Z
    ------   -----------------  -----------------  -----------------
       1        0.000019982595     0.000002457244     0.000002984364
       2        0.000008040366     0.000020786255     0.000022467254
       3        0.000049631780     0.000040778913    -0.000013332074
       4        0.002032096336    -0.004241626091    -0.001653012180
       5       -0.000005276038    -0.000010664789     0.000007964464
       6        0.000011115404    -0.000003271481    -0.000003851112
       7       -0.000819837811    -0.001246166652     0.004004181832
       8       -0.001521316293     0.003947317988     0.000349843564
       9       -0.000019698589    -0.000010438811     0.000000915951
      10        0.000227871674     0.001500439158    -0.002625931374
      11        0.000035785710     0.000041944861     0.000008149490
      12       -0.000003093041    -0.000005563014    -0.000010426326
      13        0.000039791194    -0.000029366040    -0.000086553932
      14       -0.000033711981     0.000022376410    -0.000008912718
      15        0.000054920834    -0.000025487762     0.000007274346
      16       -0.000022048523     0.000012622929     0.000010683154
      17        0.000002442476    -0.000033547712     0.000012036526
      18       -0.000032029707     0.000011334547    -0.000027971525
      19        0.000004626197    -0.000002628779     0.000000923465
      20       -0.000025709956     0.000014294004    -0.000005625532
      21       -0.000003582630    -0.000005591174     0.000008192365

  **** Optimization is complete! (in 9 steps) ****
    Final optimized geometry and variables:
    Molecular point group: c1

    Geometry (in Angstrom), charge = 0, multiplicity = 1:

    H           -3.001786208297    -1.928302620783    -1.689585169848
    O           -2.923076774356    -1.224488805660    -1.061592540466
    C           -1.564287049231    -0.979517496026    -0.797624332272
    C           -1.505548126655     0.148042905168     0.221097526449
    H           -1.086315089564    -1.877728480244    -0.415201854687
    H           -1.047022708630    -0.695345815944    -1.711882907374
    C           -0.099331284399     0.642643270073     0.650131072903
    H           -2.081910176689    -0.147977534981     1.091809094258
    H           -2.057499150163     0.979815696327    -0.205574964240
    C            1.091622842921    -0.254728533234     0.286389515786
    H            0.066847140178     1.620102331934     0.208957137572
    H           -0.097013485419     0.799824519936     1.725096117982
    C            2.439563251664     0.270519414958     0.796557168304
    H            1.150162250579    -0.378586269007    -0.792469217367
    H            0.939119111140    -1.247911413920     0.702328229477
    C            2.907114762495     1.573824876284     0.145641818744
    H            3.192586259844    -0.494071830650     0.621633389414
    H            2.387939934958     0.403328113868     1.875221283327
    H            2.952487866952     1.475515027480    -0.935784276772
    H            2.248596753216     2.404574093986     0.375221553236
    H            3.900133928857     1.841389800651     0.493489356446

  Mulliken Charges: (a.u.)
   Center  Symbol    Alpha    Beta     Spin     Total
       1     H     0.28129  0.28129  0.00000  0.43742
       2     O     4.37264  4.37264  0.00000 -0.74529
       3     C     2.99362  2.99362  0.00000  0.01275
       4     C     3.16397  3.16397  0.00000 -0.32794
       5     H     0.43058  0.43058  0.00000  0.13884
       6     H     0.43190  0.43190  0.00000  0.13620
       7     C     3.16160  3.16160  0.00000 -0.32319
       8     H     0.41268  0.41268  0.00000  0.17464
       9     H     0.41221  0.41221  0.00000  0.17558
      10     C     3.15936  3.15936  0.00000 -0.31872
      11     H     0.41822  0.41822  0.00000  0.16357
      12     H     0.41907  0.41907  0.00000  0.16185
      13     C     3.15189  3.15189  0.00000 -0.30378
      14     H     0.42385  0.42385  0.00000  0.15230
      15     H     0.42130  0.42130  0.00000  0.15740
      16     C     3.24154  3.24154  0.00000 -0.48307
      17     H     0.42090  0.42090  0.00000  0.15820
      18     H     0.42267  0.42267  0.00000  0.15467
      19     H     0.42257  0.42257  0.00000  0.15487
      20     H     0.41925  0.41925  0.00000  0.16151
      21     H     0.41890  0.41890  0.00000  0.16221

   Total alpha = 29.00000, Total beta = 29.00000, Total charge =  0.00000
