                              Psi4 1.0.54 Driver

  ==> Input File <==

--------------------------------------------------------------------------
set {
	reference rhf
	basis cc-pvtz
}

set_num_threads( 4 )
memory 2 gb

molecule MOL {
0 1

O	 -2.374409	 1.338660	 -0.336961
C	 -2.104891	 0.204655	 -0.107126
C	 -0.881910	 -0.448129	 -0.720509
C	 -2.949910	 -0.638219	 0.818225
C	 -0.465844	 -1.693008	 0.073222
H	 -0.079452	 0.278429	 -0.703593
H	 -1.077049	 -0.717257	 -1.753154
C	 0.774185	 -2.365848	 -0.511688
H	 -0.288700	 -1.397727	 1.099700
H	 -1.285017	 -2.407836	 0.089813
C	 1.200869	 -3.647330	 0.206401
H	 1.600122	 -1.658910	 -0.504966
H	 0.584009	 -2.601389	 -1.555219
C	 1.687367	 -3.443365	 1.639090
H	 1.996033	 -4.111331	 -0.368685
H	 0.374179	 -4.352951	 0.202444
H	 2.510729	 -2.737338	 1.673586
H	 2.037091	 -4.378231	 2.061571
H	 0.903363	 -3.068077	 2.285446
H	 -3.440322	 -1.417144	 0.243099
H	 -3.694377	 -0.025850	 1.303346
H	 -2.331085	 -1.129829	 1.560495

	symmetry c1
}
set optking {
	frozen_dihedral = ("
		6 3 2 1
	")
}

ee,wfn = optimize('scf', return_wfn=True)
oeprop( wfn, 'DIPOLE', 'QUADRUPOLE', 'MULLIKEN_CHARGES')
f=open( 'psi4out.xyz', 'w' )
f.write( "22  " )
f.write( str(ee) + "\n" )
f.write( MOL.save_string_xyz() )
f.close()
--------------------------------------------------------------------------

    Molecular point group: c1
  Charge       = 0
  Multiplicity = 1
  Basis Set: CC-PVTZ
  Basis Set:
  @DF-RHF Final Energy:  -348.21636467400157
    Total Energy =                       -348.2163646740011700
    Molecular point group: c1
  Basis Set: CC-PVTZ
  Basis Set:
  Basis Set: CC-PVTZ
  Basis Set:
  @DF-RHF Final Energy:  -347.76946860305657
    Total Energy =                       -347.7694686030567937
  Basis Set: CC-PVTZ
  Basis Set:
  Basis Set: CC-PVTZ
  Basis Set:
  @DF-RHF Final Energy:  -347.95275540454304
    Total Energy =                       -347.9527554045432680
  Basis Set: CC-PVTZ
  Basis Set:
  Basis Set: CC-PVTZ
  Basis Set:
  @DF-RHF Final Energy:  -348.16213918706671
    Total Energy =                       -348.1621391870664297
  Basis Set: CC-PVTZ
  Basis Set:
  @DF-RHF Final Energy:  -348.21733572666659
    Total Energy =                       -348.2173357266661924
  @DF-RHF Final Energy:  -348.22062392018137
    Total Energy =                       -348.2206239201817652
  @DF-RHF Final Energy:  -348.21932639760308
    Total Energy =                       -348.2193263976032540
  @DF-RHF Final Energy:  -348.22104471340884
    Total Energy =                       -348.2210447134090145
  @DF-RHF Final Energy:  -348.22107499617351
    Total Energy =                       -348.2210749961730016
  Basis Set: CC-PVTZ
  Basis Set:
  @DF-RHF Final Energy:  -348.22109904244792
    Total Energy =                       -348.2210990424479746
  Basis Set: CC-PVTZ
  Basis Set:
  Basis Set: CC-PVTZ
  Basis Set:
  @DF-RHF Final Energy:  -348.22109948330291
    Total Energy =                       -348.2210994833031350
  Basis Set: CC-PVTZ
  Basis Set:
  Basis Set: CC-PVTZ
  Basis Set:
  @DF-RHF Final Energy:  -348.22112991350497
    Total Energy =                       -348.2211299135053650
  Basis Set: CC-PVTZ
  Basis Set:
  Charge       = 0
  Multiplicity = 1
  Basis Set: CC-PVTZ
  Basis Set:

    Orbital Energies (a.u.)
    -----------------------

    Doubly Occupied:

       1A    -20.534783     2A    -11.320472     3A    -11.229057
       4A    -11.227851     5A    -11.226401     6A    -11.222489
       7A    -11.221321     8A    -11.213160     9A     -1.396121
      10A     -1.099907    11A     -1.046300    12A     -0.997636
      13A     -0.942247    14A     -0.864391    15A     -0.789798
      16A     -0.732596    17A     -0.662532    18A     -0.649691
      19A     -0.634820    20A     -0.613252    21A     -0.610923
      22A     -0.584029    23A     -0.557461    24A     -0.545031
      25A     -0.537159    26A     -0.522637    27A     -0.507428
      28A     -0.480728    29A     -0.474345    30A     -0.470415
      31A     -0.465285    32A     -0.398274

  @DF-RHF Final Energy:  -348.22112989800962

   => Energetics <=

    Nuclear Repulsion Energy =            373.0717489409259997
    One-Electron Energy =               -1211.0286810207862800
    Two-Electron Energy =                 489.7358021818506586
    DFT Exchange-Correlation Energy =       0.0000000000000000
    Empirical Dispersion Energy =           0.0000000000000000
    PCM Polarization Energy =               0.0000000000000000
    EFP Energy =                            0.0000000000000000
    Total Energy =                       -348.2211298980096217
    Molecular point group: c1
  Basis Set: CC-PVTZ
  Basis Set:

  -Total Gradient:
     Atom            X                  Y                   Z
    ------   -----------------  -----------------  -----------------
       1        0.000007150195    -0.000291471799    -0.001554664073
       2       -0.000100940588     0.000278284233     0.002388153018
       3        0.000568051473     0.000595766997    -0.002195205313
       4        0.000034661581     0.000048306592     0.000083475848
       5       -0.000020952497     0.000021333703    -0.000003059524
       6       -0.000482915813    -0.000629525506     0.001333312133
       7        0.000003766500     0.000016056790    -0.000008444951
       8        0.000019301644     0.000029013859     0.000037142010
       9        0.000008686639     0.000021091718    -0.000039828920
      10       -0.000023539552    -0.000000636169     0.000005196577
      11       -0.000061357827     0.000007988768    -0.000012468400
      12       -0.000005337647    -0.000001184711     0.000008101245
      13        0.000019150486     0.000003614115     0.000015634423
      14        0.000010474167    -0.000012690870     0.000007218897
      15       -0.000017215352     0.000005318846    -0.000028561136
      16       -0.000007030090    -0.000000551682     0.000005870437
      17       -0.000012633599     0.000006764876     0.000006000509
      18        0.000012942672     0.000005385112     0.000001082174
      19        0.000040500623    -0.000035329840     0.000008930927
      20        0.000008028114    -0.000035442402    -0.000045532341
      21        0.000005939744    -0.000003887350    -0.000009852599
      22       -0.000006730872    -0.000028205278    -0.000002500941

  **** Optimization is complete! (in 13 steps) ****
    Final optimized geometry and variables:
    Molecular point group: c1

    Geometry (in Angstrom), charge = 0, multiplicity = 1:

    O           -1.154530938571     2.869230924745    -0.966414848484
    C           -1.150085159289     1.702129184686    -0.743551903208
    C            0.176848793228     0.965890454761    -0.624681833868
    C           -2.444080320592     0.930346796381    -0.634072659984
    C            0.170079295597    -0.417234422302     0.022852228360
    H            0.840583824820     1.627035566988    -0.080864071735
    H            0.569238359766     0.900732125826    -1.636051625070
    C            1.572617147168    -1.020786116514     0.084654265098
    H           -0.242154508559    -0.344804582114     1.023464997150
    H           -0.478026346967    -1.089327172879    -0.531277405610
    C            1.633883045591    -2.440131507275     0.651178439722
    H            2.216716974083    -0.371887988809     0.673006793737
    H            1.989635355660    -1.031473605839    -0.918499344667
    C            1.263197208761    -2.555430952988     2.127755546373
    H            2.642590330541    -2.817185796513     0.515776884270
    H            0.988191858631    -3.088716610044     0.064976814509
    H            1.886508293219    -1.909280375995     2.737416604458
    H            1.399968489437    -3.571552946600     2.479039894061
    H            0.229785029043    -2.286237593197     2.310410312745
    H           -2.473889285177     0.142613913913    -1.379045962589
    H           -3.272869553795     1.604313058769    -0.784918296272
    H           -2.528656920391     0.457432981033     0.337036306782

  Mulliken Charges: (a.u.)
   Center  Symbol    Alpha    Beta     Spin     Total
       1     O     4.17541  4.17541  0.00000 -0.35083
       2     C     2.86189  2.86189  0.00000  0.27622
       3     C     3.09704  3.09704  0.00000 -0.19407
       4     C     3.16392  3.16392  0.00000 -0.32784
       5     C     3.10762  3.10762  0.00000 -0.21524
       6     H     0.43704  0.43704  0.00000  0.12591
       7     H     0.43967  0.43967  0.00000  0.12067
       8     C     3.09701  3.09701  0.00000 -0.19401
       9     H     0.44686  0.44686  0.00000  0.10628
      10     H     0.45043  0.45043  0.00000  0.09914
      11     C     3.09021  3.09021  0.00000 -0.18042
      12     H     0.45051  0.45051  0.00000  0.09897
      13     H     0.44767  0.44767  0.00000  0.10466
      14     C     3.15255  3.15255  0.00000 -0.30510
      15     H     0.44676  0.44676  0.00000  0.10648
      16     H     0.45439  0.45439  0.00000  0.09122
      17     H     0.45357  0.45357  0.00000  0.09287
      18     H     0.44502  0.44502  0.00000  0.10995
      19     H     0.45473  0.45473  0.00000  0.09053
      20     H     0.44779  0.44779  0.00000  0.10443
      21     H     0.43189  0.43189  0.00000  0.13623
      22     H     0.44803  0.44803  0.00000  0.10395

   Total alpha = 32.00000, Total beta = 32.00000, Total charge = -0.00000

*** Psi4 exiting successfully. Buy a developer a beer!
