  ==> Input File <==

--------------------------------------------------------------------------
set {
	reference rhf
	basis 6-31G*
}

set_num_threads( 4 )
memory 2 gb

molecule MOL {
0 1

H	 3.463771	 0.168298	 -0.756243
C	 2.752674	 -0.045734	 0.033351
C	 1.322923	 0.120767	 -0.479465
H	 2.934561	 -1.059086	 0.377456
H	 2.958358	 0.631174	 0.856809
C	 0.306652	 -0.176050	 0.621399
H	 1.144658	 -0.551717	 -1.312180
H	 1.166477	 1.131798	 -0.836680
N	 -1.068537	 -0.011044	 0.085269
H	 0.372515	 -1.192590	 0.973735
H	 0.391664	 0.520566	 1.441230
O	 -1.891569	 -0.803234	 0.426479
O	 -1.247138	 0.888316	 -0.678458

	symmetry c1
}
set optking {
	frozen_dihedral = ("
		12 9 6 3
	")
}

ee = optimize('scf')
oeprop('DIPOLE', 'QUADRUPOLE', 'MULLIKEN_CHARGES')
f=open( 'psi4out.xyz', 'w' )
f.write( "13  " )
f.write( str(ee) + "\n" )
f.write( MOL.save_string_xyz() )
f.close()
--------------------------------------------------------------------------

    Molecular point group: c1
  Charge       = 0
  Multiplicity = 1
  Basis Set: 6-31G*
  Basis Set:
  @DF-RHF Final Energy:  -321.73431887292145
    Total Energy =                       -321.7343188729213921
    Molecular point group: c1
  Basis Set: 6-31G*
  Basis Set:
  Basis Set: 6-31G*
  Basis Set:
  @DF-RHF Final Energy:  -321.73113782178831
    Total Energy =                       -321.7311378217881384
  Basis Set: 6-31G*
  Basis Set:
  Basis Set: 6-31G*
  Basis Set:
  @DF-RHF Final Energy:  -321.73061619589299
    Total Energy =                       -321.7306161958932762
  Basis Set: 6-31G*
  Basis Set:
  Basis Set: 6-31G*
  Basis Set:
  @DF-RHF Final Energy:  -321.73500334324820
    Total Energy =                       -321.7350033432479677
  Basis Set: 6-31G*
  Basis Set:
  Basis Set: 6-31G*
  Basis Set:
  @DF-RHF Final Energy:  -321.73477558622062
    Total Energy =                       -321.7347755862206213
  Basis Set: 6-31G*
  Basis Set:
  Basis Set: 6-31G*
  Basis Set:
  @DF-RHF Final Energy:  -321.73527519857589
    Total Energy =                       -321.7352751985759483
  Basis Set: 6-31G*
  Basis Set:
  Basis Set: 6-31G*
  Basis Set:
  @DF-RHF Final Energy:  -321.73529137063190
    Total Energy =                       -321.7352913706317281
  Basis Set: 6-31G*
  Basis Set:
  Charge       = 0
  Multiplicity = 1
  Basis Set: 6-31G*
  Basis Set:

    Orbital Energies (a.u.)
    -----------------------

    Doubly Occupied:

       1A    -20.602166     2A    -20.600612     3A    -15.848148
       4A    -11.300370     5A    -11.252223     6A    -11.238299
       7A     -1.631604     8A     -1.416864     9A     -1.133625
      10A     -1.027775    11A     -0.884549    12A     -0.828675
      13A     -0.760423    14A     -0.742079    15A     -0.725057
      16A     -0.663477    17A     -0.605864    18A     -0.582315
      19A     -0.551161    20A     -0.522806    21A     -0.510851
      22A     -0.484374    23A     -0.473201    24A     -0.449340

  @DF-RHF Final Energy:  -321.73529149011910

   => Energetics <=

    Nuclear Repulsion Energy =            247.0976024675678104
    One-Electron Energy =                -927.9940728355397823
    Two-Electron Energy =                 359.1611788778529899
    DFT Exchange-Correlation Energy =       0.0000000000000000
    Empirical Dispersion Energy =           0.0000000000000000
    PCM Polarization Energy =               0.0000000000000000
    EFP Energy =                            0.0000000000000000
    Total Energy =                       -321.7352914901189251
    Molecular point group: c1
  Basis Set: 6-31G*
  Basis Set:

  -Total Gradient:
     Atom            X                  Y                   Z
    ------   -----------------  -----------------  -----------------
       1        0.000008636564     0.000005888078     0.000002512263
       2        0.000011802301     0.000032656597     0.000001869903
       3        0.000001253604     0.000227871860     0.000068911666
       4       -0.000002863407    -0.000002376200    -0.000013674808
       5       -0.000003521910    -0.000009461504     0.000006286956
       6       -0.000038179087    -0.000270004114     0.000013975172
       7       -0.000004296390    -0.000004378922    -0.000000571757
       8        0.000004062775    -0.000005319664     0.000001667753
       9        0.000102496288    -0.000189119200    -0.000373808063
      10       -0.000002682485     0.000009282176    -0.000014626278
      11       -0.000001664355    -0.000002441939     0.000002631795
      12       -0.000096605525     0.000188063416     0.000311125772
      13        0.000021561630     0.000019339415    -0.000006300374

  **** Optimization is complete! (in 8 steps) ****
    Final optimized geometry and variables:
    Molecular point group: c1

    Geometry (in Angstrom), charge = 0, multiplicity = 1:

    H            3.498538897416     0.159943406291    -0.742680178204
    C            2.770352986260    -0.050214266553     0.032226678188
    C            1.351789538641     0.131450425970    -0.508367006219
    H            2.938992179023    -1.065425688540     0.378070225916
    H            2.967275089932     0.622813585178     0.861386162103
    C            0.321715095857    -0.159093377482     0.574021226564
    H            1.187060211159    -0.537406220463    -1.347163956704
    H            1.212649562526     1.140277329803    -0.872226260881
    N           -1.075083086757    -0.015427172919     0.077634233856
    H            0.388024738876    -1.162356253973     0.961988596314
    H            0.395754380323     0.544742969705     1.393493956032
    O           -1.869813617659    -0.820727287843     0.452355851027
    O           -1.316112878843     0.911384388362    -0.633632809021

  Mulliken Charges: (a.u.)
   Center  Symbol    Alpha    Beta     Spin     Total
       1     H     0.40751  0.40751  0.00000  0.18497
       2     C     3.24935  3.24935  0.00000 -0.49871
       3     C     3.16966  3.16966  0.00000 -0.33932
       4     H     0.41570  0.41570  0.00000  0.16861
       5     H     0.41590  0.41590  0.00000  0.16820
       6     C     3.08828  3.08828  0.00000 -0.17657
       7     H     0.40601  0.40601  0.00000  0.18798
       8     H     0.39418  0.39418  0.00000  0.21163
       9     N     3.22231  3.22231  0.00000  0.55539
      10     H     0.38586  0.38586  0.00000  0.22828
      11     H     0.38678  0.38678  0.00000  0.22645
      12     O     4.22853  4.22853  0.00000 -0.45705
      13     O     4.22993  4.22993  0.00000 -0.45986

   Total alpha = 24.00000, Total beta = 24.00000, Total charge =  0.00000
