  ==> Input File <==

--------------------------------------------------------------------------
set {
	reference rhf
	basis 6-31G*
}

set_num_threads( 1 )
memory 2 gb

molecule MOL {
0 1

O	 -0.988096	 -1.408613	 0.050699
C	 -0.676749	 -0.249230	 -0.009274
C	 -1.746085	 0.827156	 -0.009539
N	 0.623947	 0.147590	 -0.102813
H	 -1.701500	 1.431508	 -0.908902
H	 -2.703425	 0.330732	 0.036390
H	 -1.647323	 1.487769	 0.845106
C	 0.912593	 1.565244	 -0.196719
C	 1.715290	 -0.731615	 -0.460885
H	 1.807064	 1.790255	 0.373639
H	 0.084981	 2.126676	 0.200512
H	 1.079281	 1.866993	 -1.228506
H	 2.618360	 -0.395294	 0.034485
H	 1.528359	 -1.745577	 -0.144860
H	 1.901444	 -0.732210	 -1.533340

	symmetry c1
}
set optking {
	frozen_dihedral = ("
		2 4 8 10
	")
}

ee = energy('scf')
oeprop('DIPOLE', 'QUADRUPOLE', 'MULLIKEN_CHARGES')
f=open( 'psi4out.xyz', 'w' )
f.write( "15  " )
f.write( str(ee) + "\n" )
f.write( MOL.save_string_xyz() )
f.close()
--------------------------------------------------------------------------

    Molecular point group: c1

    Geometry (in Angstrom), charge = 0, multiplicity = 1:

       Center              X                  Y                   Z               Mass
    ------------   -----------------  -----------------  -----------------  -----------------
           O         -0.969532581749    -1.439436920745     0.178063773254    15.994914619560
           C         -0.658185581749    -0.280053920745     0.118090773254    12.000000000000
           C         -1.727521581749     0.796332079255     0.117825773254    12.000000000000
           N          0.642510418251     0.116766079255     0.024551773254    14.003074004780
           H         -1.682936581749     1.400684079255    -0.781537226746     1.007825032070
           H         -2.684861581749     0.299908079255     0.163754773254     1.007825032070
           H         -1.628759581749     1.456945079255     0.972470773254     1.007825032070
           C          0.931156418251     1.534420079255    -0.069354226746    12.000000000000
           C          1.733853418251    -0.762438920745    -0.333520226746    12.000000000000
           H          1.825627418251     1.759431079255     0.501003773254     1.007825032070
           H          0.103544418251     2.095852079255     0.327876773254     1.007825032070
           H          1.097844418251     1.836169079255    -1.101141226746     1.007825032070
           H          2.636923418251    -0.426117920745     0.161849773254     1.007825032070
           H          1.546922418251    -1.776400920745    -0.017495226746     1.007825032070
           H          1.920007418251    -0.763033920745    -1.405975226746     1.007825032070

  Charge       = 0
  Multiplicity = 1
  Basis Set: 6-31G*
  Basis Set:

    Orbital Energies (a.u.)
    -----------------------

    Doubly Occupied:

       1A    -20.512727     2A    -15.583638     3A    -11.341192
       4A    -11.262543     5A    -11.254471     6A    -11.230030
       7A     -1.381658     8A     -1.245269     9A     -1.018772
      10A     -0.968262    11A     -0.923861    12A     -0.738786
      13A     -0.681231    14A     -0.660670    15A     -0.652117
      16A     -0.590431    17A     -0.577318    18A     -0.566332
      19A     -0.563810    20A     -0.553730    21A     -0.525649
      22A     -0.503864    23A     -0.409368    24A     -0.365166

  @DF-RHF Final Energy:  -286.02433048479429

   => Energetics <=

    Nuclear Repulsion Energy =            252.5357482662257098
    One-Electron Energy =                -888.8982111454095048
    Two-Electron Energy =                 350.3381323943892198
    DFT Exchange-Correlation Energy =       0.0000000000000000
    Empirical Dispersion Energy =           0.0000000000000000
    PCM Polarization Energy =               0.0000000000000000
    EFP Energy =                            0.0000000000000000
    Total Energy =                       -286.0243304847945751

  Mulliken Charges: (a.u.)
   Center  Symbol    Alpha    Beta     Spin     Total
       1     O     4.30321  4.30321  0.00000 -0.60642
       2     C     2.62336  2.62336  0.00000  0.75329
       3     C     3.30685  3.30685  0.00000 -0.61370
       4     N     3.82121  3.82121  0.00000 -0.64242
       5     H     0.40569  0.40569  0.00000  0.18862
       6     H     0.38885  0.38885  0.00000  0.22230
       7     H     0.40532  0.40532  0.00000  0.18935
       8     C     3.14292  3.14292  0.00000 -0.28583
       9     C     3.14121  3.14121  0.00000 -0.28243
      10     H     0.41147  0.41147  0.00000  0.17706
      11     H     0.40635  0.40635  0.00000  0.18731
      12     H     0.41857  0.41857  0.00000  0.16287
      13     H     0.41704  0.41704  0.00000  0.16591
      14     H     0.38971  0.38971  0.00000  0.22059
      15     H     0.41825  0.41825  0.00000  0.16351

   Total alpha = 24.00000, Total beta = 24.00000, Total charge =  0.00000
