                              Psi4 1.0.54 Driver

  ==> Input File <==

--------------------------------------------------------------------------
set {
	reference rhf
	basis cc-pvtz
}

set_num_threads( 4 )
memory 2 gb

molecule MOL {
0 1

O	 -0.988175	 -1.402891	 0.050086
C	 -0.675048	 -0.248293	 -0.009686
C	 -1.742492	 0.826599	 -0.011538
N	 0.622280	 0.144970	 -0.099307
H	 -1.692153	 1.431066	 -0.908439
H	 -2.698310	 0.331559	 0.031353
H	 -1.642148	 1.483784	 0.843455
C	 1.419765	 0.204236	 1.107529
C	 1.181341	 0.826458	 -1.242452
H	 2.426136	 -0.133633	 0.892389
H	 0.984402	 -0.428095	 1.859724
H	 1.475855	 1.218523	 1.494448
H	 2.221537	 0.546924	 -1.349633
H	 0.676294	 0.555999	 -2.153867
H	 1.136915	 1.907633	 -1.132320

	symmetry c1
}
set optking {
	frozen_dihedral = ("
		8 4 2 3
	")
}

ee,wfn = optimize('scf', return_wfn=True)
oeprop( wfn, 'DIPOLE', 'QUADRUPOLE', 'MULLIKEN_CHARGES')
f=open( 'psi4out.xyz', 'w' )
f.write( "15  " )
f.write( str(ee) + "\n" )
f.write( MOL.save_string_xyz() )
f.close()
--------------------------------------------------------------------------

    Molecular point group: c1
  Charge       = 0
  Multiplicity = 1
  Basis Set: CC-PVTZ
  Basis Set:
  @DF-RHF Final Energy:  -286.10225315676666
    Total Energy =                       -286.1022531567669489
    Molecular point group: c1
  Basis Set: CC-PVTZ
  Basis Set:
  Basis Set: CC-PVTZ
  Basis Set:
  @DF-RHF Final Energy:  -286.10478533064293
    Total Energy =                       -286.1047853306429261
  Basis Set: CC-PVTZ
  Basis Set:
  Basis Set: CC-PVTZ
  Basis Set:
  @DF-RHF Final Energy:  -286.10015573712639
    Total Energy =                       -286.1001557371264425
  Basis Set: CC-PVTZ
  Basis Set:
  Basis Set: CC-PVTZ
  Basis Set:
  @DF-RHF Final Energy:  -286.11224587476659
    Total Energy =                       -286.1122458747665291
  Basis Set: CC-PVTZ
  Basis Set:
  @DF-RHF Final Energy:  -286.11393301540846
    Total Energy =                       -286.1139330154078948
  @DF-RHF Final Energy:  -286.07394502287991
    Total Energy =                       -286.0739450228796841
  @DF-RHF Final Energy:  -286.11332331427832
    Total Energy =                       -286.1133233142784320
  @DF-RHF Final Energy:  -286.11471197874073
    Total Energy =                       -286.1147119787408428
  Basis Set: CC-PVTZ
  Basis Set:
  @DF-RHF Final Energy:  -286.11480804226608
    Total Energy =                       -286.1148080422662474
  Basis Set: CC-PVTZ
  Basis Set:
  Basis Set: CC-PVTZ
  Basis Set:
  @DF-RHF Final Energy:  -286.11483734769183
    Total Energy =                       -286.1148373476920597
  Basis Set: CC-PVTZ
  Basis Set:
  Basis Set: CC-PVTZ
  Basis Set:
  @DF-RHF Final Energy:  -286.11484002876284
    Total Energy =                       -286.1148400287627283
  Basis Set: CC-PVTZ
  Basis Set:
  Charge       = 0
  Multiplicity = 1
  Basis Set: CC-PVTZ
  Basis Set:

    Orbital Energies (a.u.)
    -----------------------

    Doubly Occupied:

       1A    -20.532013     2A    -15.563429     3A    -11.343105
       4A    -11.255870     5A    -11.254255     6A    -11.232085
       7A     -1.407318     8A     -1.239936     9A     -1.012163
      10A     -0.969380    11A     -0.909890    12A     -0.740465
      13A     -0.683281    14A     -0.661734    15A     -0.648339
      16A     -0.603591    17A     -0.584358    18A     -0.577806
      19A     -0.558703    20A     -0.549398    21A     -0.528911
      22A     -0.500431    23A     -0.425788    24A     -0.375196

  @DF-RHF Final Energy:  -286.11484059416421

   => Energetics <=

    Nuclear Repulsion Energy =            253.0708570896067897
    One-Electron Energy =                -890.0565089009786561
    Two-Electron Energy =                 350.8708112172074607
    DFT Exchange-Correlation Energy =       0.0000000000000000
    Empirical Dispersion Energy =           0.0000000000000000
    PCM Polarization Energy =               0.0000000000000000
    EFP Energy =                            0.0000000000000000
    Total Energy =                       -286.1148405941644342
    Molecular point group: c1
  Basis Set: CC-PVTZ
  Basis Set:

  -Total Gradient:
     Atom            X                  Y                   Z
    ------   -----------------  -----------------  -----------------
       1        0.000056457436    -0.000017200765     0.000195241439
       2       -0.003929564399     0.006511911296    -0.008417084161
       3        0.002091854162    -0.002780343523     0.006513365651
       4        0.003649947561    -0.009232650224    -0.002800535769
       5        0.000008945779    -0.000019583497     0.000028593564
       6       -0.000000467605     0.000008822516     0.000025148474
       7       -0.000004783742    -0.000023621004    -0.000005050202
       8       -0.001828878271     0.005492281580     0.004422653550
       9        0.000003055344     0.000060821981     0.000065666370
      10       -0.000040997359     0.000005397786     0.000007021495
      11       -0.000001997765     0.000024838647     0.000002990053
      12       -0.000006033370    -0.000018987117    -0.000031834570
      13       -0.000016156955    -0.000007672722     0.000004212101
      14        0.000012272387     0.000007335515     0.000007882747
      15        0.000006346795    -0.000011350463    -0.000018270740

  **** Optimization is complete! (in 12 steps) ****
    Final optimized geometry and variables:
    Molecular point group: c1

    Geometry (in Angstrom), charge = 0, multiplicity = 1:

    O           -0.792692679121    -1.541996190335    -0.403512940980
    C           -0.604438605713    -0.403304402807    -0.137423135601
    C           -1.674865736358     0.417794735638     0.549963940745
    N            0.675428083377     0.163571536368    -0.308825558079
    H           -1.933958471071     1.311010460503    -0.002798152587
    H           -2.553313118053    -0.194162258540     0.674013022873
    H           -1.306642548540     0.731288041321     1.520601640232
    C            1.628326701485    -0.299555240076     0.688995887384
    C            0.737348299385     1.600815201886    -0.485764442125
    H            2.627617772477    -0.021662447416     0.382489045374
    H            1.582870650329    -1.374495805080     0.766553283608
    H            1.441117181860     0.136647772132     1.670966899846
    H            1.732569912195     1.861840976693    -0.819186921503
    H            0.045541952246     1.918052359951    -1.253476292606
    H            0.531769719988     2.164945871083     0.423916452270

  Mulliken Charges: (a.u.)
   Center  Symbol    Alpha    Beta     Spin     Total
       1     O     4.17703  4.17703  0.00000 -0.35407
       2     C     2.84038  2.84038  0.00000  0.31923
       3     C     3.16077  3.16077  0.00000 -0.32154
       4     N     3.58979  3.58979  0.00000 -0.17959
       5     H     0.44813  0.44813  0.00000  0.10373
       6     H     0.42958  0.42958  0.00000  0.14084
       7     H     0.44622  0.44622  0.00000  0.10756
       8     C     3.09554  3.09554  0.00000 -0.19108
       9     C     3.10536  3.10536  0.00000 -0.21072
      10     H     0.45027  0.45027  0.00000  0.09946
      11     H     0.43598  0.43598  0.00000  0.12804
      12     H     0.46800  0.46800  0.00000  0.06399
      13     H     0.44202  0.44202  0.00000  0.11596
      14     H     0.44647  0.44647  0.00000  0.10707
      15     H     0.46444  0.46444  0.00000  0.07111

   Total alpha = 24.00000, Total beta = 24.00000, Total charge =  0.00000

*** Psi4 exiting successfully. Buy a developer a beer!
