  ==> Input File <==

--------------------------------------------------------------------------
set {
	reference rhf
	basis 6-31G*
}

set_num_threads( 1 )
memory 2 gb

molecule MOL {
0 1

O	 -0.682937	 1.318834	 -0.186099
C	 -0.860635	 0.152188	 -0.042321
C	 -2.173363	 -0.477127	 0.338347
O	 0.083258	 -0.765189	 -0.202595
H	 -2.477673	 -1.180929	 -0.427595
H	 -2.923125	 0.290956	 0.455536
H	 -2.058825	 -1.029004	 1.264191
C	 0.260303	 -1.337178	 -1.496535
C	 1.140428	 -0.466589	 -2.374090
H	 -0.706576	 -1.498982	 -1.948315
H	 0.726275	 -2.293740	 -1.308498
H	 1.318574	 -0.963179	 -3.322980
H	 0.665411	 0.485907	 -2.572779
H	 2.098320	 -0.289376	 -1.897169

	symmetry c1
}
set optking {
	frozen_dihedral = ("
		10 8 4 2
	")
}

ee = energy('scf')
oeprop('DIPOLE', 'QUADRUPOLE', 'MULLIKEN_CHARGES')
f=open( 'psi4out.xyz', 'w' )
f.write( "14  " )
f.write( str(ee) + "\n" )
f.write( MOL.save_string_xyz() )
f.close()
--------------------------------------------------------------------------

    Molecular point group: c1

    Geometry (in Angstrom), charge = 0, multiplicity = 1:

       Center              X                  Y                   Z               Mass
    ------------   -----------------  -----------------  -----------------  -----------------
           O         -0.312987970007     1.582517897213     0.483346218992    15.994914619560
           C         -0.490685970007     0.415871897213     0.627124218992    12.000000000000
           C         -1.803413970007    -0.213443102787     1.007792218992    12.000000000000
           O          0.453207029993    -0.501505102787     0.466850218992    15.994914619560
           H         -2.107723970007    -0.917245102787     0.241850218992     1.007825032070
           H         -2.553175970007     0.554639897213     1.124981218992     1.007825032070
           H         -1.688875970007    -0.765320102787     1.933636218992     1.007825032070
           C          0.630252029993    -1.073494102787    -0.827089781008    12.000000000000
           C          1.510377029993    -0.202905102787    -1.704644781008    12.000000000000
           H         -0.336626970007    -1.235298102787    -1.278869781008     1.007825032070
           H          1.096224029993    -2.030056102787    -0.639052781008     1.007825032070
           H          1.688523029993    -0.699495102787    -2.653534781008     1.007825032070
           H          1.035360029993     0.749590897213    -1.903333781008     1.007825032070
           H          2.468269029993    -0.025692102787    -1.227723781008     1.007825032070

  Charge       = 0
  Multiplicity = 1
  Basis Set: 6-31G*
  Basis Set:

    Orbital Energies (a.u.)
    -----------------------

    Doubly Occupied:

       1A    -20.584546     2A    -20.554693     3A    -11.376695
       4A    -11.300383     5A    -11.234388     6A    -11.221079
       7A     -1.462250     8A     -1.367103     9A     -1.051383
      10A     -1.005964    11A     -0.888303    12A     -0.771919
      13A     -0.692411    14A     -0.683308    15A     -0.669975
      16A     -0.606540    17A     -0.593501    18A     -0.580777
      19A     -0.553963    20A     -0.542275    21A     -0.519004
      22A     -0.482398    23A     -0.453133    24A     -0.437127

  @DF-RHF Final Energy:  -305.85397343935256

   => Energetics <=

    Nuclear Repulsion Energy =            248.7297824476008543
    One-Electron Energy =                -909.9012855560865773
    Two-Electron Energy =                 355.3175296691330232
    DFT Exchange-Correlation Energy =       0.0000000000000000
    Empirical Dispersion Energy =           0.0000000000000000
    PCM Polarization Energy =               0.0000000000000000
    EFP Energy =                            0.0000000000000000
    Total Energy =                       -305.8539734393526714

  Mulliken Charges: (a.u.)
   Center  Symbol    Alpha    Beta     Spin     Total
       1     O     4.25713  4.25713  0.00000 -0.51426
       2     C     2.63098  2.63098  0.00000  0.73804
       3     C     3.28425  3.28425  0.00000 -0.56850
       4     O     4.31076  4.31076  0.00000 -0.62152
       5     H     0.40778  0.40778  0.00000  0.18443
       6     H     0.39879  0.39879  0.00000  0.20242
       7     H     0.39853  0.39853  0.00000  0.20295
       8     C     3.00668  3.00668  0.00000 -0.01336
       9     C     3.24793  3.24793  0.00000 -0.49586
      10     H     0.42103  0.42103  0.00000  0.15793
      11     H     0.40510  0.40510  0.00000  0.18980
      12     H     0.42055  0.42055  0.00000  0.15889
      13     H     0.40361  0.40361  0.00000  0.19278
      14     H     0.40688  0.40688  0.00000  0.18624

   Total alpha = 24.00000, Total beta = 24.00000, Total charge = -0.00000
