                              Psi4 1.0.54 Driver

  ==> Input File <==

--------------------------------------------------------------------------
set {
	reference rhf
	basis cc-pvtz
}

set_num_threads( 4 )
memory 2 gb

molecule MOL {
0 1

H	 -3.451721	 1.558611	 -0.344899
C	 -2.720115	 0.993379	 0.195075
C	 -2.105997	 -0.000418	 -0.398703
H	 -2.507641	 1.258745	 1.212049
O	 -1.189946	 -0.765863	 0.237511
H	 -2.305060	 -0.269590	 -1.420000
C	 0.026572	 -0.995256	 -0.379403
C	 1.057223	 0.049888	 -0.004615
H	 -0.054361	 -1.010670	 -1.459674
H	 0.397526	 -1.952058	 -0.044198
F	 2.203233	 -0.234060	 -0.590375
F	 0.698147	 1.254887	 -0.392621
F	 1.266440	 0.094219	 1.288722

	symmetry c1
}
set optking {
	frozen_dihedral = ("
		6 3 5 7
	")
}

ee,wfn = optimize('scf', return_wfn=True)
oeprop( wfn, 'DIPOLE', 'QUADRUPOLE', 'MULLIKEN_CHARGES')
f=open( 'psi4out.xyz', 'w' )
f.write( "13  " )
f.write( str(ee) + "\n" )
f.write( MOL.save_string_xyz() )
f.close()
--------------------------------------------------------------------------

    Molecular point group: c1
  Charge       = 0
  Multiplicity = 1
  Basis Set: CC-PVTZ
  Basis Set:
  @DF-RHF Final Energy:  -527.73996006488437
    Total Energy =                       -527.7399600648842579
    Molecular point group: c1
  Basis Set: CC-PVTZ
  Basis Set:
  Basis Set: CC-PVTZ
  Basis Set:
  @DF-RHF Final Energy:  -527.74005644099873
    Total Energy =                       -527.7400564409987282
  Basis Set: CC-PVTZ
  Basis Set:
  Basis Set: CC-PVTZ
  Basis Set:
  @DF-RHF Final Energy:  -527.74039480299734
    Total Energy =                       -527.7403948029980256
  Basis Set: CC-PVTZ
  Basis Set:
  Basis Set: CC-PVTZ
  Basis Set:
  @DF-RHF Final Energy:  -527.74040076728170
    Total Energy =                       -527.7404007672821535
  Basis Set: CC-PVTZ
  Basis Set:
  Charge       = 0
  Multiplicity = 1
  Basis Set: CC-PVTZ
  Basis Set:

    Orbital Energies (a.u.)
    -----------------------

    Doubly Occupied:

       1A    -26.338620     2A    -26.336486     3A    -26.335335
       4A    -20.599173     5A    -11.494921     6A    -11.317222
       7A    -11.295644     8A    -11.219503     9A     -1.747311
      10A     -1.643493    11A     -1.642228    12A     -1.438635
      13A     -1.084575    14A     -1.021262    15A     -0.929693
      16A     -0.841242    17A     -0.836346    18A     -0.821339
      19A     -0.797154    20A     -0.720823    21A     -0.717893
      22A     -0.694599    23A     -0.680670    24A     -0.669259
      25A     -0.658783    26A     -0.649453    27A     -0.647565
      28A     -0.585378    29A     -0.568767    30A     -0.530978
      31A     -0.493264    32A     -0.367832

  @DF-RHF Final Energy:  -527.74040149036296

   => Energetics <=

    Nuclear Repulsion Energy =            415.9714010667425441
    One-Electron Energy =               -1555.9727153737112531
    Two-Electron Energy =                 612.2609128166054688
    DFT Exchange-Correlation Energy =       0.0000000000000000
    Empirical Dispersion Energy =           0.0000000000000000
    PCM Polarization Energy =               0.0000000000000000
    EFP Energy =                            0.0000000000000000
    Total Energy =                       -527.7404014903631833
    Molecular point group: c1
  Basis Set: CC-PVTZ
  Basis Set:

  -Total Gradient:
     Atom            X                  Y                   Z
    ------   -----------------  -----------------  -----------------
       1        0.000048559766    -0.000035791807     0.000030116376
       2       -0.000022530057    -0.000016376048    -0.000045775424
       3        0.002963725898     0.002940941824    -0.000474376435
       4       -0.000008362246     0.000013095969    -0.000005841389
       5       -0.001908447300    -0.002946116682    -0.001147956307
       6       -0.001929336384    -0.001586070749     0.000728681682
       7        0.000865200997     0.001624291871     0.000906812557
       8        0.000041386009    -0.000072642862     0.000017929160
       9       -0.000005559809     0.000000842891     0.000009091349
      10       -0.000004510089     0.000008632939    -0.000009626196
      11       -0.000035669990     0.000039522217     0.000023543132
      12       -0.000007665842     0.000008310776     0.000002685585
      13        0.000003209060     0.000021359662    -0.000035284090

  **** Optimization is complete! (in 5 steps) ****
    Final optimized geometry and variables:
    Molecular point group: c1

    Geometry (in Angstrom), charge = 0, multiplicity = 1:

    H           -3.573153020156     1.468464280281    -0.328898930423
    C           -2.821687516471     0.919086758374     0.201125006110
    C           -2.153944159043    -0.025214337391    -0.411707637888
    H           -2.642110196864     1.152793638509     1.232211440176
    O           -1.258426149895    -0.821405627414     0.227900208438
    H           -2.334825226366    -0.287274556797    -1.440264527551
    C           -0.042118846676    -1.054403923920    -0.393315857459
    C            1.004910454115    -0.028737007699    -0.009232351153
    H           -0.124997747560    -1.054801661290    -1.474236814450
    H            0.320222741910    -2.018446580095    -0.069047431285
    F            2.154903811083    -0.351913221096    -0.568421625110
    F            0.692235782248     1.181489770179    -0.414349792388
    F            1.190186031282     0.020736209650     1.288525528485

  Mulliken Charges: (a.u.)
   Center  Symbol    Alpha    Beta     Spin     Total
       1     H     0.42500  0.42500  0.00000  0.15000
       2     C     3.17675  3.17675  0.00000 -0.35351
       3     C     2.97173  2.97173  0.00000  0.05653
       4     H     0.42211  0.42211  0.00000  0.15579
       5     O     4.15306  4.15306  0.00000 -0.30611
       6     H     0.43568  0.43568  0.00000  0.12865
       7     C     3.01308  3.01308  0.00000 -0.02616
       8     C     2.67644  2.67644  0.00000  0.64711
       9     H     0.45793  0.45793  0.00000  0.08414
      10     H     0.43878  0.43878  0.00000  0.12244
      11     F     4.61312  4.61312  0.00000 -0.22624
      12     F     4.60833  4.60833  0.00000 -0.21667
      13     F     4.60798  4.60798  0.00000 -0.21596

   Total alpha = 32.00000, Total beta = 32.00000, Total charge =  0.00000

*** Psi4 exiting successfully. Buy a developer a beer!
