  ==> Input File <==

--------------------------------------------------------------------------
set {
	reference rhf
	basis 6-31G*
}

set_num_threads( 4 )
memory 2 gb

molecule MOL {
0 1

H	 0.744080	 -3.237517	 -1.050189
O	 1.029526	 -2.547632	 -0.459143
C	 0.240371	 -1.490025	 -0.646538
C	 0.624473	 -0.343591	 0.253101
O	 -0.645701	 -1.495688	 -1.437651
C	 -0.265902	 0.883932	 0.072916
H	 0.601922	 -0.718357	 1.271146
H	 1.665312	 -0.107447	 0.046599
C	 -1.728698	 0.646073	 0.462102
H	 -0.209144	 1.219470	 -0.958188
H	 0.135059	 1.692851	 0.673903
C	 -2.482460	 -0.343073	 -0.431425
H	 -2.245265	 1.602650	 0.432430
H	 -1.779332	 0.308348	 1.496285
C	 -3.960546	 -0.461025	 -0.060175
H	 -2.395034	 -0.026811	 -1.468912
H	 -2.024850	 -1.327147	 -0.371646
H	 -4.472726	 -1.168004	 -0.705284
H	 -4.465146	 0.496508	 -0.151489
H	 -4.081218	 -0.800940	 0.964585

	symmetry c1
}
set optking {
	frozen_dihedral = ("
		7 4 6 10
	")
}

ee = optimize('scf')
oeprop('DIPOLE', 'QUADRUPOLE', 'MULLIKEN_CHARGES')
f=open( 'psi4out.xyz', 'w' )
f.write( "20  " )
f.write( str(ee) + "\n" )
f.write( MOL.save_string_xyz() )
f.close()
--------------------------------------------------------------------------

    Molecular point group: c1
  Charge       = 0
  Multiplicity = 1
  Basis Set: 6-31G*
  Basis Set:
  @DF-RHF Final Energy:  -383.91321702779010
    Total Energy =                       -383.9132170277903242
    Molecular point group: c1
  Basis Set: 6-31G*
  Basis Set:
  Basis Set: 6-31G*
  Basis Set:
  @DF-RHF Final Energy:  -383.93177651708550
    Total Energy =                       -383.9317765170853818
  Basis Set: 6-31G*
  Basis Set:
  Basis Set: 6-31G*
  Basis Set:
  @DF-RHF Final Energy:  -383.93858843172842
    Total Energy =                       -383.9385884317282489
  Basis Set: 6-31G*
  Basis Set:
  Basis Set: 6-31G*
  Basis Set:
  @DF-RHF Final Energy:  -383.94062545041936
    Total Energy =                       -383.9406254504195886
  Basis Set: 6-31G*
  Basis Set:
  @DF-RHF Final Energy:  -383.94356715999106
    Total Energy =                       -383.9435671599911757
  @DF-RHF Final Energy:  -383.94441019457429
    Total Energy =                       -383.9444101945741750
  @DF-RHF Final Energy:  -383.94490112039369
    Total Energy =                       -383.9449011203939790
  @DF-RHF Final Energy:  -383.94520888066620
    Total Energy =                       -383.9452088806663141
  @DF-RHF Final Energy:  -383.94535914383044
    Total Energy =                       -383.9453591438305011
  @DF-RHF Final Energy:  -383.94557566849357
    Total Energy =                       -383.9455756684933476
  @DF-RHF Final Energy:  -383.94574540106510
    Total Energy =                       -383.9457454010650963
  Basis Set: 6-31G*
  Basis Set:
  @DF-RHF Final Energy:  -383.94575177220503
    Total Energy =                       -383.9457517722049715
  Basis Set: 6-31G*
  Basis Set:
  Basis Set: 6-31G*
  Basis Set:
  @DF-RHF Final Energy:  -383.94577860882322
    Total Energy =                       -383.9457786088230478
  Basis Set: 6-31G*
  Basis Set:
  Basis Set: 6-31G*
  Basis Set:
  @DF-RHF Final Energy:  -383.94578088048110
    Total Energy =                       -383.9457808804810384
  Basis Set: 6-31G*
  Basis Set:
  Charge       = 0
  Multiplicity = 1
  Basis Set: 6-31G*
  Basis Set:

    Orbital Energies (a.u.)
    -----------------------

    Doubly Occupied:

       1A    -20.615251     2A    -20.548626     3A    -11.381453
       4A    -11.240126     5A    -11.227475     6A    -11.219437
       7A    -11.214659     8A    -11.208674     9A     -1.475502
      10A     -1.365058    11A     -1.093934    12A     -1.038396
      13A     -0.958905    14A     -0.872993    15A     -0.814481
      16A     -0.775743    17A     -0.701667    18A     -0.690324
      19A     -0.660711    20A     -0.626692    21A     -0.601088
      22A     -0.595459    23A     -0.574551    24A     -0.552348
      25A     -0.541902    26A     -0.514763    27A     -0.496121
      28A     -0.483494    29A     -0.465208    30A     -0.459675
      31A     -0.456755    32A     -0.439260

  @DF-RHF Final Energy:  -383.94578138039668

   => Energetics <=

    Nuclear Repulsion Energy =            391.7598186990302906
    One-Electron Energy =               -1299.5897347051345605
    Two-Electron Energy =                 523.8841346257077021
    DFT Exchange-Correlation Energy =       0.0000000000000000
    Empirical Dispersion Energy =           0.0000000000000000
    PCM Polarization Energy =               0.0000000000000000
    EFP Energy =                            0.0000000000000000
    Total Energy =                       -383.9457813803965109
    Molecular point group: c1
  Basis Set: 6-31G*
  Basis Set:

  -Total Gradient:
     Atom            X                  Y                   Z
    ------   -----------------  -----------------  -----------------
       1       -0.000012020859    -0.000004746136     0.000000002127
       2        0.000017578434     0.000007748942    -0.000017016027
       3        0.000000295939     0.000021076855    -0.000032286355
       4       -0.002775633953    -0.002351016733    -0.001052196250
       5        0.000017628396    -0.000012296144     0.000021313081
       6       -0.002511558052    -0.002142018840    -0.000981908471
       7        0.002669945157     0.002268672626     0.001034325697
       8        0.000000635807    -0.000006802172     0.000007496033
       9        0.000016333453    -0.000009428689    -0.000009675737
      10        0.002618842587     0.002216685903     0.001018854258
      11       -0.000007111819     0.000008430969    -0.000006607584
      12       -0.000013331914    -0.000002054877    -0.000001716232
      13        0.000000587703     0.000000371971     0.000000437579
      14       -0.000001988532     0.000000069821     0.000004565843
      15       -0.000012783426     0.000006869638     0.000007255653
      16        0.000001536894    -0.000010473315     0.000006036108
      17       -0.000008961217     0.000008965664     0.000005517984
      18        0.000000417019    -0.000002128855     0.000002621818
      19       -0.000004640932     0.000000750317     0.000000086686
      20        0.000004229307     0.000001323058    -0.000007106213

  **** Optimization is complete! (in 15 steps) ****
    Final optimized geometry and variables:
    Molecular point group: c1

    Geometry (in Angstrom), charge = 0, multiplicity = 1:

    H            1.347057612054    -2.601392585184    -0.662507409539
    O            1.420759787105    -1.974709837268     0.051155467086
    C            1.295765271980    -0.752473994847    -0.460126097862
    C            1.465338447998     0.334011727229     0.570827537360
    O            1.115005865313    -0.568285671527    -1.620617569531
    C            0.517341307428     1.527857994500     0.407762587761
    H            1.424781384034    -0.075589415133     1.572694530798
    H            2.485545359776     0.686776292548     0.433214922471
    C           -0.943820608355     1.293781846915     0.809530101544
    H            0.593556731305     1.901616718299    -0.607774898500
    H            0.905238509894     2.320460838579     1.042493429512
    C           -1.723276412620     0.260352196211    -0.008697971064
    H           -1.457742960224     2.249975777558     0.738321444911
    H           -0.978854459729     1.012784410548     1.861258227984
    C           -3.205189100198     0.229977893353     0.365910236504
    H           -1.617040857015     0.475214965497    -1.067792826340
    H           -1.305716073437    -0.730808324358     0.146641546382
    H           -3.739709839633    -0.518376395804    -0.210714945007
    H           -3.676779810996     1.190602699016     0.178975980237
    H           -3.340355123494    -0.004580893215     1.418228660558

  Mulliken Charges: (a.u.)
   Center  Symbol    Alpha    Beta     Spin     Total
       1     H     0.26827  0.26827  0.00000  0.46345
       2     O     4.35060  4.35060  0.00000 -0.70120
       3     C     2.61907  2.61907  0.00000  0.76186
       4     C     3.21160  3.21160  0.00000 -0.42320
       5     O     4.28283  4.28283  0.00000 -0.56565
       6     C     3.16022  3.16022  0.00000 -0.32044
       7     H     0.39885  0.39885  0.00000  0.20229
       8     H     0.39665  0.39665  0.00000  0.20670
       9     C     3.15198  3.15198  0.00000 -0.30397
      10     H     0.40431  0.40431  0.00000  0.19138
      11     H     0.41659  0.41659  0.00000  0.16683
      12     C     3.15953  3.15953  0.00000 -0.31906
      13     H     0.41945  0.41945  0.00000  0.16110
      14     H     0.42367  0.42367  0.00000  0.15265
      15     C     3.23960  3.23960  0.00000 -0.47919
      16     H     0.41088  0.41088  0.00000  0.17823
      17     H     0.42383  0.42383  0.00000  0.15234
      18     H     0.41807  0.41807  0.00000  0.16385
      19     H     0.42150  0.42150  0.00000  0.15699
      20     H     0.42249  0.42249  0.00000  0.15503

   Total alpha = 32.00000, Total beta = 32.00000, Total charge = -0.00000
