                              Psi4 1.0.54 Driver

  ==> Input File <==

--------------------------------------------------------------------------
set {
	reference rhf
	basis cc-pvtz
}

set_num_threads( 4 )
memory 2 gb

molecule MOL {
0 1

H	 2.059722	 -0.980386	 0.880486
C	 1.958961	 -0.215654	 0.099021
C	 0.692262	 0.592428	 0.156232
O	 2.811434	 -0.079749	 -0.708725
C	 -0.554654	 -0.292621	 0.086567
H	 0.709043	 1.313984	 -0.649939
H	 0.695994	 1.137179	 1.098098
C	 -1.846385	 0.513195	 -0.016346
H	 -0.473986	 -0.956115	 -0.769708
H	 -0.597929	 -0.929215	 0.966651
C	 -3.089953	 -0.365049	 -0.098564
H	 -1.798267	 1.154820	 -0.891143
H	 -1.925398	 1.173265	 0.842889
H	 -3.055079	 -1.012299	 -0.968245
H	 -3.988403	 0.236438	 -0.170014
H	 -3.183055	 -0.995885	 0.779079

	symmetry c1
}
set optking {
	frozen_dihedral = ("
		6 3 5 9
	")
}

ee,wfn = optimize('scf', return_wfn=True)
oeprop( wfn, 'DIPOLE', 'QUADRUPOLE', 'MULLIKEN_CHARGES')
f=open( 'psi4out.xyz', 'w' )
f.write( "16  " )
f.write( str(ee) + "\n" )
f.write( MOL.save_string_xyz() )
f.close()
--------------------------------------------------------------------------

    Molecular point group: c1
  Charge       = 0
  Multiplicity = 1
  Basis Set: CC-PVTZ
  Basis Set:
  @DF-RHF Final Energy:  -270.11895645340115
    Total Energy =                       -270.1189564534010970
    Molecular point group: c1
  Basis Set: CC-PVTZ
  Basis Set:
  Basis Set: CC-PVTZ
  Basis Set:
  @DF-RHF Final Energy:  -270.11895950339374
    Total Energy =                       -270.1189595033935689
  Basis Set: CC-PVTZ
  Basis Set:
  Basis Set: CC-PVTZ
  Basis Set:
  @DF-RHF Final Energy:  -270.11845522854651
    Total Energy =                       -270.1184552285464520
  Basis Set: CC-PVTZ
  Basis Set:
  Basis Set: CC-PVTZ
  Basis Set:
  @DF-RHF Final Energy:  -270.11898286682748
    Total Energy =                       -270.1189828668273663
  Basis Set: CC-PVTZ
  Basis Set:
  Basis Set: CC-PVTZ
  Basis Set:
  @DF-RHF Final Energy:  -270.11899457134439
    Total Energy =                       -270.1189945713443876
  Basis Set: CC-PVTZ
  Basis Set:
  Basis Set: CC-PVTZ
  Basis Set:
  @DF-RHF Final Energy:  -270.11899610000648
    Total Energy =                       -270.1189961000065409
  Basis Set: CC-PVTZ
  Basis Set:
  Charge       = 0
  Multiplicity = 1
  Basis Set: CC-PVTZ
  Basis Set:

    Orbital Energies (a.u.)
    -----------------------

    Doubly Occupied:

       1A    -20.551976     2A    -11.321383     3A    -11.234670
       4A    -11.233916     5A    -11.227592     6A    -11.216717
       7A     -1.406800     8A     -1.097922     9A     -1.020242
      10A     -0.906950    11A     -0.812689    12A     -0.794223
      13A     -0.680860    14A     -0.648575    15A     -0.635087
      16A     -0.604442    17A     -0.583935    18A     -0.550714
      19A     -0.530156    20A     -0.510889    21A     -0.488640
      22A     -0.483555    23A     -0.479104    24A     -0.411744

  @DF-RHF Final Energy:  -270.11899666692892

   => Energetics <=

    Nuclear Repulsion Energy =            229.3630527639825800
    One-Electron Energy =                -820.0985370240949806
    Two-Electron Energy =                 320.6164875931833649
    DFT Exchange-Correlation Energy =       0.0000000000000000
    Empirical Dispersion Energy =           0.0000000000000000
    PCM Polarization Energy =               0.0000000000000000
    EFP Energy =                            0.0000000000000000
    Total Energy =                       -270.1189966669289788
    Molecular point group: c1
  Basis Set: CC-PVTZ
  Basis Set:

  -Total Gradient:
     Atom            X                  Y                   Z
    ------   -----------------  -----------------  -----------------
       1        0.000006485222     0.000031719414     0.000000271881
       2        0.000071576236     0.000000729843    -0.000125258161
       3        0.001253317704    -0.001535215930    -0.000931568733
       4       -0.000101390819    -0.000034469761     0.000091244860
       5       -0.001117392706     0.001604892244    -0.000876392481
       6       -0.000802377606     0.001029415450     0.000940273365
       7       -0.000039848089    -0.000018023128    -0.000003448691
       8        0.000002994015    -0.000009505752     0.000006875376
       9        0.000725606579    -0.001074085951     0.000912263531
      10       -0.000000615639     0.000005597152    -0.000005890805
      11        0.000000206538    -0.000000222128    -0.000011378755
      12       -0.000009952249    -0.000010666912     0.000012409747
      13        0.000004210826    -0.000007592097    -0.000012488406
      14        0.000001916309     0.000007327763     0.000015974898
      15       -0.000000855778    -0.000001923209    -0.000000700500
      16        0.000006119463     0.000012023002    -0.000012187124

  **** Optimization is complete! (in 7 steps) ****
    Final optimized geometry and variables:
    Molecular point group: c1

    Geometry (in Angstrom), charge = 0, multiplicity = 1:

    H            2.043457572845    -1.017486713185     0.961105580389
    C            1.965284233591    -0.237125606359     0.192656246064
    C            0.697225902289     0.568485332209     0.228287311850
    O            2.841709059021    -0.084104840146    -0.585847758142
    C           -0.550566232605    -0.315518913843     0.146495622611
    H            0.720692255371     1.295899551172    -0.572510723616
    H            0.685846703997     1.115607654527     1.168937310299
    C           -1.842333980538     0.490764639634     0.058604871828
    H           -0.470328280760    -0.975869057791    -0.712658255997
    H           -0.589856126404    -0.962471514735     1.019167230321
    C           -3.087699776407    -0.386439955956    -0.004689542668
    H           -1.805038386126     1.129902643956    -0.818332745199
    H           -1.909151487779     1.153328122464     0.917046571556
    H           -3.063073568391    -1.038652339002    -0.871008198410
    H           -3.986107386476     0.215808586130    -0.069788835047
    H           -3.171913137484    -1.012052057851     0.877509427994

  Mulliken Charges: (a.u.)
   Center  Symbol    Alpha    Beta     Spin     Total
       1     H     0.46520  0.46520  0.00000  0.06959
       2     C     2.90996  2.90996  0.00000  0.18009
       3     C     3.07655  3.07655  0.00000 -0.15310
       4     O     4.16409  4.16409  0.00000 -0.32817
       5     C     3.10194  3.10194  0.00000 -0.20389
       6     H     0.44289  0.44289  0.00000  0.11422
       7     H     0.44968  0.44968  0.00000  0.10064
       8     C     3.08431  3.08431  0.00000 -0.16863
       9     H     0.44668  0.44668  0.00000  0.10664
      10     H     0.45187  0.45187  0.00000  0.09625
      11     C     3.14904  3.14904  0.00000 -0.29807
      12     H     0.45021  0.45021  0.00000  0.09958
      13     H     0.45318  0.45318  0.00000  0.09364
      14     H     0.45325  0.45325  0.00000  0.09350
      15     H     0.44659  0.44659  0.00000  0.10681
      16     H     0.45455  0.45455  0.00000  0.09090

   Total alpha = 24.00000, Total beta = 24.00000, Total charge = -0.00000

*** Psi4 exiting successfully. Buy a developer a beer!
