                              Psi4 1.0.54 Driver

  ==> Input File <==

--------------------------------------------------------------------------
set {
	reference rhf
	basis cc-pvtz
}

set_num_threads( 4 )
memory 2 gb

molecule MOL {
0 1

H	 1.215398	 -2.299770	 0.179992
C	 0.247280	 -1.829393	 0.216390
O	 0.462329	 -0.453336	 -0.000137
H	 -0.197819	 -2.006396	 1.187356
H	 -0.382649	 -2.251878	 -0.556224
C	 -0.590565	 0.341382	 0.000062
O	 -1.693898	 -0.053880	 0.000252
H	 -0.340426	 1.403822	 0.000200

	symmetry c1
}
set optking {
	frozen_dihedral = ("
		2 3 6 7
	")
}

ee,wfn = optimize('scf', return_wfn=True)
oeprop( wfn, 'DIPOLE', 'QUADRUPOLE', 'MULLIKEN_CHARGES')
f=open( 'psi4out.xyz', 'w' )
f.write( "8  " )
f.write( str(ee) + "\n" )
f.write( MOL.save_string_xyz() )
f.close()
--------------------------------------------------------------------------

    Molecular point group: c1
  Charge       = 0
  Multiplicity = 1
  Basis Set: CC-PVTZ
  Basis Set:
  @DF-RHF Final Energy:  -227.87699485777114
    Total Energy =                       -227.8769948577711943
    Molecular point group: c1
  Basis Set: CC-PVTZ
  Basis Set:
  Basis Set: CC-PVTZ
  Basis Set:
  @DF-RHF Final Energy:  -227.87672493396840
    Total Energy =                       -227.8767249339683474
  Basis Set: CC-PVTZ
  Basis Set:
  Basis Set: CC-PVTZ
  Basis Set:
  @DF-RHF Final Energy:  -227.87505136240793
    Total Energy =                       -227.8750513624079872
  Basis Set: CC-PVTZ
  Basis Set:
  Basis Set: CC-PVTZ
  Basis Set:
  @DF-RHF Final Energy:  -227.87812671477496
    Total Energy =                       -227.8781267147749645
  Basis Set: CC-PVTZ
  Basis Set:
  Basis Set: CC-PVTZ
  Basis Set:
  @DF-RHF Final Energy:  -227.87818535133283
    Total Energy =                       -227.8781853513328031
  Basis Set: CC-PVTZ
  Basis Set:
  Charge       = 0
  Multiplicity = 1
  Basis Set: CC-PVTZ
  Basis Set:

    Orbital Energies (a.u.)
    -----------------------

    Doubly Occupied:

       1A    -20.609479     2A    -20.548788     3A    -11.372536
       4A    -11.287324     5A     -1.482459     6A     -1.380154
       7A     -0.998976     8A     -0.819762     9A     -0.748202
      10A     -0.685431    11A     -0.683932    12A     -0.602794
      13A     -0.560385    14A     -0.535241    15A     -0.469791
      16A     -0.462305

  @DF-RHF Final Energy:  -227.87818715288847

   => Energetics <=

    Nuclear Repulsion Energy =            123.9868803533295818
    One-Electron Energy =                -557.2350164822854595
    Two-Electron Energy =                 205.3699489760674055
    DFT Exchange-Correlation Energy =       0.0000000000000000
    Empirical Dispersion Energy =           0.0000000000000000
    PCM Polarization Energy =               0.0000000000000000
    EFP Energy =                            0.0000000000000000
    Total Energy =                       -227.8781871528884722
    Molecular point group: c1
  Basis Set: CC-PVTZ
  Basis Set:

  -Total Gradient:
     Atom            X                  Y                   Z
    ------   -----------------  -----------------  -----------------
       1       -0.000001102589    -0.000041138673     0.000015389030
       2        0.000473785269     0.000575533493     0.002693265059
       3       -0.000564882802    -0.000846019364    -0.006022435091
       4       -0.000004090241    -0.000008686497     0.000011452948
       5       -0.000009358872    -0.000033336191     0.000009899521
       6        0.000160443391     0.000244477482     0.006951668811
       7       -0.000017622617     0.000086342185    -0.003693834000
       8       -0.000037171539     0.000022827563     0.000034593722

  **** Optimization is complete! (in 6 steps) ****
    Final optimized geometry and variables:
    Molecular point group: c1

    Geometry (in Angstrom), charge = 0, multiplicity = 1:

    H            1.632329006686    -1.766182926347     0.142087271954
    C            0.653252039105    -1.316763431047     0.144726163819
    O            0.857758879176     0.066708714759    -0.082088619126
    H            0.171846673326    -1.473561138008     1.098651422604
    H            0.042941697331    -1.745093042680    -0.636048158477
    C           -0.200025434919     0.844388669320    -0.052485299538
    O           -1.320515156113     0.482918461346    -0.019313171798
    H            0.100669020681     1.886340330006    -0.093666697277

  Mulliken Charges: (a.u.)
   Center  Symbol    Alpha    Beta     Spin     Total
       1     H     0.44433  0.44433  0.00000  0.11134
       2     C     3.02771  3.02771  0.00000 -0.05541
       3     O     4.14044  4.14044  0.00000 -0.28089
       4     H     0.45501  0.45501  0.00000  0.08998
       5     H     0.45196  0.45196  0.00000  0.09609
       6     C     2.83789  2.83789  0.00000  0.32422
       7     O     4.19398  4.19398  0.00000 -0.38796
       8     H     0.44869  0.44869  0.00000  0.10262

   Total alpha = 16.00000, Total beta = 16.00000, Total charge = -0.00000

*** Psi4 exiting successfully. Buy a developer a beer!
