                              Psi4 1.0.54 Driver

  ==> Input File <==

--------------------------------------------------------------------------
set {
	reference rhf
	basis cc-pvtz
}

set_num_threads( 4 )
memory 2 gb

molecule MOL {
0 1

H	 -2.816458	 -0.841657	 -0.064679
N	 -1.878861	 -0.711874	 0.250184
C	 -1.341419	 0.551458	 -0.220231
H	 -1.333674	 -1.468530	 -0.105118
C	 0.082190	 0.731516	 0.254705
H	 -1.357065	 0.652078	 -1.304747
H	 -1.939897	 1.357530	 0.189797
O	 0.916499	 -0.093743	 -0.500665
H	 0.381463	 1.772318	 0.139204
H	 0.151471	 0.471808	 1.308593
C	 2.250640	 -0.072352	 -0.114881
H	 2.795778	 -0.740200	 -0.766180
H	 2.674530	 0.925652	 -0.204319
H	 2.373136	 -0.407118	 0.912489

	symmetry c1
}
set optking {
	frozen_dihedral = ("
		8 5 3 6
	")
}

ee,wfn = optimize('scf', return_wfn=True)
oeprop( wfn, 'DIPOLE', 'QUADRUPOLE', 'MULLIKEN_CHARGES')
f=open( 'psi4out.xyz', 'w' )
f.write( "14  " )
f.write( str(ee) + "\n" )
f.write( MOL.save_string_xyz() )
f.close()
--------------------------------------------------------------------------

    Molecular point group: c1
  Charge       = 0
  Multiplicity = 1
  Basis Set: CC-PVTZ
  Basis Set:
  @DF-RHF Final Energy:  -248.22558318544159
    Total Energy =                       -248.2255831854417352
    Molecular point group: c1
  Basis Set: CC-PVTZ
  Basis Set:
  Basis Set: CC-PVTZ
  Basis Set:
  @DF-RHF Final Energy:  -248.22566605629055
    Total Energy =                       -248.2256660562904926
  Basis Set: CC-PVTZ
  Basis Set:
  Basis Set: CC-PVTZ
  Basis Set:
  @DF-RHF Final Energy:  -248.22568086002624
    Total Energy =                       -248.2256808600265003
  Basis Set: CC-PVTZ
  Basis Set:
  Charge       = 0
  Multiplicity = 1
  Basis Set: CC-PVTZ
  Basis Set:

    Orbital Energies (a.u.)
    -----------------------

    Doubly Occupied:

       1A    -20.550682     2A    -15.524551     3A    -11.263588
       4A    -11.263527     5A    -11.239909     6A     -1.384273
       7A     -1.176391     8A     -1.000571     9A     -0.906581
      10A     -0.817076    11A     -0.685133    12A     -0.675293
      13A     -0.647652    14A     -0.614154    15A     -0.605144
      16A     -0.543894    17A     -0.529010    18A     -0.498950
      19A     -0.474041    20A     -0.420324    21A     -0.384724

  @DF-RHF Final Energy:  -248.22568122416962

   => Energetics <=

    Nuclear Repulsion Energy =            194.2177690708240050
    One-Electron Energy =                -722.4759664791799878
    Two-Electron Energy =                 280.0325161841864201
    DFT Exchange-Correlation Energy =       0.0000000000000000
    Empirical Dispersion Energy =           0.0000000000000000
    PCM Polarization Energy =               0.0000000000000000
    EFP Energy =                            0.0000000000000000
    Total Energy =                       -248.2256812241695343
    Molecular point group: c1
  Basis Set: CC-PVTZ
  Basis Set:

  -Total Gradient:
     Atom            X                  Y                   Z
    ------   -----------------  -----------------  -----------------
       1       -0.000003972882    -0.000011898565    -0.000001460784
       2        0.000012414766     0.000018661124    -0.000005754600
       3       -0.000540056317     0.004048657684    -0.000122843303
       4       -0.000001918367    -0.000021997514     0.000003827470
       5       -0.000293478273    -0.002817225934     0.001889323265
       6        0.000475697996    -0.002881504234    -0.000251784272
       7        0.000004766429    -0.000002499084     0.000001412378
       8        0.000297589660     0.001687199090    -0.001488013963
       9       -0.000003182844     0.000009180208     0.000013234919
      10        0.000010178319    -0.000004220762    -0.000013914984
      11        0.000030179210    -0.000028145185    -0.000031711684
      12        0.000020973705    -0.000000516159     0.000007933508
      13       -0.000002702146     0.000001339930     0.000004727769
      14       -0.000006489255     0.000002969401    -0.000004975720

  **** Optimization is complete! (in 4 steps) ****
    Final optimized geometry and variables:
    Molecular point group: c1

    Geometry (in Angstrom), charge = 0, multiplicity = 1:

    H           -2.825674390874    -0.911177111070     0.006219404625
    N           -1.885428984768    -0.782162834046     0.314292475763
    C           -1.359100323757     0.494121426987    -0.142496377392
    H           -1.343791249402    -1.529673373563    -0.066451875883
    C            0.067247315599     0.675466973731     0.326319985351
    H           -1.369340114006     0.585923939857    -1.227015509742
    H           -1.967939758390     1.288525747326     0.272697743152
    O            0.895961624258    -0.159746084822    -0.425385695319
    H            0.372102436597     1.712620063845     0.192098726520
    H            0.139412370281     0.433794807492     1.383761069486
    C            2.231291010881    -0.140699960093    -0.043542780655
    H            2.772731145055    -0.812447788248    -0.693925054502
    H            2.657354590215     0.855968787236    -0.138205882175
    H            2.356667173292    -0.471402795901     0.984811534751

  Mulliken Charges: (a.u.)
   Center  Symbol    Alpha    Beta     Spin     Total
       1     H     0.43013  0.43013  0.00000  0.13974
       2     N     3.69488  3.69488  0.00000 -0.38976
       3     C     3.02191  3.02191  0.00000 -0.04382
       4     H     0.42375  0.42375  0.00000  0.15250
       5     C     2.97177  2.97177  0.00000  0.05647
       6     H     0.46277  0.46277  0.00000  0.07446
       7     H     0.45778  0.45778  0.00000  0.08443
       8     O     4.17901  4.17901  0.00000 -0.35802
       9     H     0.46968  0.46968  0.00000  0.06064
      10     H     0.46744  0.46744  0.00000  0.06512
      11     C     3.03215  3.03215  0.00000 -0.06430
      12     H     0.44759  0.44759  0.00000  0.10483
      13     H     0.47139  0.47139  0.00000  0.05722
      14     H     0.46976  0.46976  0.00000  0.06048

   Total alpha = 21.00000, Total beta = 21.00000, Total charge =  0.00000

*** Psi4 exiting successfully. Buy a developer a beer!
