  ==> Input File <==

--------------------------------------------------------------------------
set {
	reference rhf
	basis 6-31G*
}

set_num_threads( 4 )
memory 2 gb

molecule MOL {
0 1

H	 -3.650283	 0.221984	 0.000000
C	 -2.577024	 0.154109	 0.000000
C	 -1.960329	 -1.089307	 0.000000
C	 -1.811733	 1.307557	 0.000000
H	 -2.554473	 -1.985285	 0.000000
C	 -0.581547	 -1.175855	 0.000000
H	 -2.287118	 2.271701	 0.000000
C	 -0.428719	 1.219221	 0.000000
H	 -0.090826	 -2.129898	 0.000000
C	 0.198341	 -0.021559	 0.000000
H	 0.149947	 2.124040	 0.000000
C	 1.691355	 -0.173192	 0.000000
C	 2.298424	 -1.484743	 0.452597
O	 2.393587	 0.728042	 -0.352169
H	 2.018300	 -1.708381	 1.476949
H	 3.373962	 -1.406616	 0.384752
H	 1.957699	 -2.305077	 -0.170893

	symmetry c1
}
set optking {
	frozen_dihedral = ("
		13 12 10 8
	")
}

ee = optimize('scf')
oeprop('DIPOLE', 'QUADRUPOLE', 'MULLIKEN_CHARGES')
f=open( 'psi4out.xyz', 'w' )
f.write( "17  " )
f.write( str(ee) + "\n" )
f.write( MOL.save_string_xyz() )
f.close()
--------------------------------------------------------------------------

    Molecular point group: c1
  Charge       = 0
  Multiplicity = 1
  Basis Set: 6-31G*
  Basis Set:
  @DF-RHF Final Energy:  -382.47266323860612
    Total Energy =                       -382.4726632386060601
    Molecular point group: c1
  Basis Set: 6-31G*
  Basis Set:
  Basis Set: 6-31G*
  Basis Set:
  @DF-RHF Final Energy:  -382.47347534473761
    Total Energy =                       -382.4734753447379489
  Basis Set: 6-31G*
  Basis Set:
  Basis Set: 6-31G*
  Basis Set:
  @DF-RHF Final Energy:  -382.47276458812468
    Total Energy =                       -382.4727645881249600
  Basis Set: 6-31G*
  Basis Set:
  Basis Set: 6-31G*
  Basis Set:
  @DF-RHF Final Energy:  -382.47491321213948
    Total Energy =                       -382.4749132121395405
  Basis Set: 6-31G*
  Basis Set:
  Basis Set: 6-31G*
  Basis Set:
  @DF-RHF Final Energy:  -382.47495242594903
    Total Energy =                       -382.4749524259491409
  Basis Set: 6-31G*
  Basis Set:
  Basis Set: 6-31G*
  Basis Set:
  @DF-RHF Final Energy:  -382.47495672795554
    Total Energy =                       -382.4749567279561688
  Basis Set: 6-31G*
  Basis Set:
  Charge       = 0
  Multiplicity = 1
  Basis Set: 6-31G*
  Basis Set:

    Orbital Energies (a.u.)
    -----------------------

    Doubly Occupied:

       1A    -20.550549     2A    -11.331736     3A    -11.248555
       4A    -11.245673     5A    -11.243327     6A    -11.240660
       7A    -11.240623     8A    -11.238159     9A    -11.229792
      10A     -1.396915    11A     -1.165687    12A     -1.049795
      13A     -1.026429    14A     -0.996314    15A     -0.860979
      16A     -0.835094    17A     -0.759801    18A     -0.708426
      19A     -0.655588    20A     -0.646521    21A     -0.624914
      22A     -0.609256    23A     -0.598682    24A     -0.594598
      25A     -0.554201    26A     -0.525174    27A     -0.516907
      28A     -0.500563    29A     -0.491078    30A     -0.410608
      31A     -0.345365    32A     -0.341498

  @DF-RHF Final Energy:  -382.47495732228816

   => Energetics <=

    Nuclear Repulsion Energy =            403.5125130201789148
    One-Electron Energy =               -1318.4080123886255933
    Two-Electron Energy =                 532.4205420461585163
    DFT Exchange-Correlation Energy =       0.0000000000000000
    Empirical Dispersion Energy =           0.0000000000000000
    PCM Polarization Energy =               0.0000000000000000
    EFP Energy =                            0.0000000000000000
    Total Energy =                       -382.4749573222882191
    Molecular point group: c1
  Basis Set: 6-31G*
  Basis Set:

  -Total Gradient:
     Atom            X                  Y                   Z
    ------   -----------------  -----------------  -----------------
       1       -0.000001439722    -0.000007725150     0.000009018810
       2        0.000033034964     0.000112702874    -0.000023358310
       3        0.000086352920    -0.000053932309     0.000006108140
       4       -0.000095344957    -0.000032825925     0.000003835200
       5       -0.000007173659     0.000009481996     0.000002791809
       6       -0.000075452793    -0.000061122822     0.000009858906
       7       -0.000001084746     0.000000597468    -0.000003693889
       8        0.000009015563    -0.000020742506     0.002127482480
       9        0.000002733434     0.000018203022     0.000003170628
      10        0.000037574182     0.000373544133    -0.002173295880
      11        0.000003694103    -0.000002137414    -0.000003305060
      12        0.000018958072    -0.000965347562    -0.001803004259
      13        0.000048684059     0.000664079442     0.001828318956
      14       -0.000044857612    -0.000008970192     0.000014918677
      15       -0.000003679408     0.000005805996    -0.000000114258
      16       -0.000006045457    -0.000021043531     0.000005116988
      17       -0.000004968943    -0.000010567520    -0.000003848936

  **** Optimization is complete! (in 7 steps) ****
    Final optimized geometry and variables:
    Molecular point group: c1

    Geometry (in Angstrom), charge = 0, multiplicity = 1:

    H           -3.639428015488     0.343263674061     0.010144967366
    C           -2.568652734115     0.244160690211    -0.001470196752
    C           -1.990850668840    -1.014230674368     0.001474467085
    C           -1.767197507978     1.376603625599    -0.015966727798
    H           -2.610006743602    -1.893012090080     0.012176819292
    C           -0.611254319912    -1.141392724504    -0.004007355786
    H           -2.215264570298     2.353844884419    -0.012929828975
    C           -0.391140163479     1.248431055462    -0.035037190010
    H           -0.177692415571    -2.124308218455     0.005970078865
    C            0.199499737726    -0.012343196768    -0.032810205702
    H            0.240639333215     2.115700424325    -0.054220115066
    C            1.697864782162    -0.095015710625    -0.026254519098
    C            2.357332446760    -1.379924590458     0.429919476742
    O            2.359286437729     0.851045204515    -0.336408477470
    H            1.976849352909    -1.686295833499     1.398463022480
    H            3.423959418669    -1.217637070855     0.490124773411
    H            2.163691165182    -2.185810169707    -0.271428087991

  Mulliken Charges: (a.u.)
   Center  Symbol    Alpha    Beta     Spin     Total
       1     H     0.39542  0.39542  0.00000  0.20916
       2     C     3.09272  3.09272  0.00000 -0.18544
       3     C     3.10417  3.10417  0.00000 -0.20833
       4     C     3.10369  3.10369  0.00000 -0.20737
       5     H     0.39639  0.39639  0.00000  0.20723
       6     C     3.10282  3.10282  0.00000 -0.20563
       7     H     0.39522  0.39522  0.00000  0.20956
       8     C     3.09002  3.09002  0.00000 -0.18005
       9     H     0.39401  0.39401  0.00000  0.21198
      10     C     3.05399  3.05399  0.00000 -0.10799
      11     H     0.37751  0.37751  0.00000  0.24498
      12     C     2.72935  2.72935  0.00000  0.54131
      13     C     3.29217  3.29217  0.00000 -0.58435
      14     O     4.26675  4.26675  0.00000 -0.53351
      15     H     0.40512  0.40512  0.00000  0.18976
      16     H     0.39371  0.39371  0.00000  0.21258
      17     H     0.40695  0.40695  0.00000  0.18610

   Total alpha = 32.00000, Total beta = 32.00000, Total charge =  0.00000
