  ==> Input File <==

--------------------------------------------------------------------------
set {
	reference rhf
	basis 6-31G*
}

set_num_threads( 4 )
memory 2 gb

molecule MOL {
0 1

H	 0.966566	 -1.149911	 -0.846304
O	 1.654024	 -0.625927	 -0.460906
C	 1.135793	 0.118896	 0.612333
C	 0.031547	 1.023609	 0.088541
H	 1.915668	 0.729681	 1.063582
H	 0.754543	 -0.542641	 1.387006
C	 -1.134819	 0.293262	 -0.585751
H	 0.474374	 1.714721	 -0.623187
H	 -0.338529	 1.620940	 0.920081
C	 -1.917817	 -0.639439	 0.339494
H	 -0.758119	 -0.268455	 -1.433105
H	 -1.813832	 1.041889	 -0.986690
H	 -2.777680	 -1.057197	 -0.174994
H	 -1.310268	 -1.471279	 0.680599
H	 -2.283753	 -0.111424	 1.216626

	symmetry c1
}
set optking {
	frozen_dihedral = ("
		1 2 3 4
	")
}

ee = optimize('scf')
oeprop('DIPOLE', 'QUADRUPOLE', 'MULLIKEN_CHARGES')
f=open( 'psi4out.xyz', 'w' )
f.write( "15  " )
f.write( str(ee) + "\n" )
f.write( MOL.save_string_xyz() )
f.close()
--------------------------------------------------------------------------

    Molecular point group: c1
  Charge       = 0
  Multiplicity = 1
  Basis Set: 6-31G*
  Basis Set:
  @DF-RHF Final Energy:  -232.14038356672100
    Total Energy =                       -232.1403835667210842
    Molecular point group: c1
  Basis Set: 6-31G*
  Basis Set:
  Basis Set: 6-31G*
  Basis Set:
  @DF-RHF Final Energy:  -232.14209570333989
    Total Energy =                       -232.1420957033399191
  Basis Set: 6-31G*
  Basis Set:
  Basis Set: 6-31G*
  Basis Set:
  @DF-RHF Final Energy:  -232.14280064043589
    Total Energy =                       -232.1428006404360076
  Basis Set: 6-31G*
  Basis Set:
  Basis Set: 6-31G*
  Basis Set:
  @DF-RHF Final Energy:  -232.14282394522590
    Total Energy =                       -232.1428239452261550
  Basis Set: 6-31G*
  Basis Set:
  Basis Set: 6-31G*
  Basis Set:
  @DF-RHF Final Energy:  -232.14283186510693
    Total Energy =                       -232.1428318651068139
  Basis Set: 6-31G*
  Basis Set:
  Charge       = 0
  Multiplicity = 1
  Basis Set: 6-31G*
  Basis Set:

    Orbital Energies (a.u.)
    -----------------------

    Doubly Occupied:

       1A    -20.552192     2A    -11.266620     3A    -11.225891
       4A    -11.218457     5A    -11.217747     6A     -1.359186
       7A     -1.072820     8A     -0.976837     9A     -0.881511
      10A     -0.788677    11A     -0.692016    12A     -0.645686
      13A     -0.618228    14A     -0.585644    15A     -0.574959
      16A     -0.548391    17A     -0.504057    18A     -0.491671
      19A     -0.479649    20A     -0.460102    21A     -0.426928

  @DF-RHF Final Energy:  -232.14283255992410

   => Energetics <=

    Nuclear Repulsion Energy =            191.5211092368681989
    One-Electron Energy =                -694.1533466697183030
    Two-Electron Energy =                 270.4894048729258316
    DFT Exchange-Correlation Energy =       0.0000000000000000
    Empirical Dispersion Energy =           0.0000000000000000
    PCM Polarization Energy =               0.0000000000000000
    EFP Energy =                            0.0000000000000000
    Total Energy =                       -232.1428325599242726
    Molecular point group: c1
  Basis Set: 6-31G*
  Basis Set:

  -Total Gradient:
     Atom            X                  Y                   Z
    ------   -----------------  -----------------  -----------------
       1       -0.000229409669     0.000856401603    -0.000758542447
       2        0.000042418790    -0.001265906318     0.001003383902
       3        0.000679033822     0.001014493382    -0.000331072354
       4       -0.000528127589    -0.000569637536     0.000144365857
       5        0.000016026754    -0.000015389879    -0.000005086558
       6        0.000006147475     0.000008100013    -0.000020554434
       7        0.000024047687    -0.000007221648    -0.000007329224
       8        0.000040493520    -0.000028254528     0.000023009663
       9        0.000006827302     0.000037080902     0.000001266010
      10       -0.000001649454    -0.000016632815    -0.000003467039
      11       -0.000024062268    -0.000010985302    -0.000042867902
      12       -0.000012512724    -0.000023617221     0.000011478096
      13       -0.000004276066    -0.000004808788     0.000009143554
      14       -0.000009427374     0.000021043104    -0.000022068511
      15       -0.000005530208     0.000005335033    -0.000001658612

  **** Optimization is complete! (in 6 steps) ****
    Final optimized geometry and variables:
    Molecular point group: c1

    Geometry (in Angstrom), charge = 0, multiplicity = 1:

    H            1.124477105302    -1.187477841476    -0.842994969667
    O            1.763164149955    -0.635706084108    -0.415121670647
    C            1.142631738566     0.111570448862     0.599127187235
    C            0.028230479296     1.020216335979     0.086673789979
    H            1.925998390093     0.716029326589     1.037301845610
    H            0.772093985802    -0.546529435069     1.382283901686
    C           -1.154760109570     0.304814788500    -0.578820406727
    H            0.462060042251     1.717411530444    -0.624758893222
    H           -0.338564503666     1.611097890413     0.924250569000
    C           -1.935995785335    -0.632066009812     0.345120762203
    H           -0.809629363494    -0.246003295348    -1.451735682759
    H           -1.832431282608     1.060828348334    -0.965235642325
    H           -2.800497163471    -1.043877596353    -0.165808548160
    H           -1.333573381797    -1.468031707934     0.687114010585
    H           -2.292783281432    -0.103797469143     1.224772452774

  Mulliken Charges: (a.u.)
   Center  Symbol    Alpha    Beta     Spin     Total
       1     H     0.27962  0.27962  0.00000  0.44076
       2     O     4.37217  4.37217  0.00000 -0.74433
       3     C     2.99612  2.99612  0.00000  0.00777
       4     C     3.16585  3.16585  0.00000 -0.33170
       5     H     0.41424  0.41424  0.00000  0.17152
       6     H     0.42967  0.42967  0.00000  0.14066
       7     C     3.16427  3.16427  0.00000 -0.32854
       8     H     0.41347  0.41347  0.00000  0.17305
       9     H     0.42332  0.42332  0.00000  0.15336
      10     C     3.24245  3.24245  0.00000 -0.48490
      11     H     0.42623  0.42623  0.00000  0.14754
      12     H     0.41491  0.41491  0.00000  0.17018
      13     H     0.41645  0.41645  0.00000  0.16709
      14     H     0.42205  0.42205  0.00000  0.15590
      15     H     0.41917  0.41917  0.00000  0.16166

   Total alpha = 21.00000, Total beta = 21.00000, Total charge = -0.00000
