  ==> Input File <==

--------------------------------------------------------------------------
set {
	reference rhf
	basis 6-31G*
}

set_num_threads( 1 )
memory 2 gb

molecule MOL {
0 1

H	 3.196789	 -0.643702	 -0.982417
N	 3.092854	 -0.246221	 -0.068770
C	 1.865559	 0.531981	 0.018834
H	 3.891694	 0.339594	 0.084542
C	 0.645745	 -0.382037	 -0.029944
H	 1.841966	 1.207024	 -0.831236
H	 1.815756	 1.155410	 0.915079
C	 -0.679275	 0.379305	 0.025956
H	 0.698998	 -0.976915	 -0.937203
H	 0.693479	 -1.083846	 0.802235
C	 -1.903357	 -0.536963	 -0.023547
H	 -0.726309	 1.082987	 -0.803784
H	 -0.717680	 0.977832	 0.934877
C	 -3.225172	 0.228290	 0.028445
H	 -1.867824	 -1.134999	 -0.931459
H	 -1.860449	 -1.239604	 0.805977
H	 -3.313397	 0.915643	 -0.808262
H	 -4.073500	 -0.448134	 -0.008893
H	 -3.306061	 0.809945	 0.942516

	symmetry c1
}
set optking {
	frozen_dihedral = ("
		6 3 5 9,
		12 8 5 9,
		12 8 11 15
	")
}

ee = energy('scf')
oeprop('DIPOLE', 'QUADRUPOLE', 'MULLIKEN_CHARGES')
f=open( 'psi4out.xyz', 'w' )
f.write( "19  " )
f.write( str(ee) + "\n" )
f.write( MOL.save_string_xyz() )
f.close()
--------------------------------------------------------------------------

    Molecular point group: c1

    Geometry (in Angstrom), charge = 0, multiplicity = 1:

       Center              X                  Y                   Z               Mass
    ------------   -----------------  -----------------  -----------------  -----------------
           H          3.196837617658    -0.645628619558    -0.964616689283     1.007825032070
           N          3.092902617658    -0.248147619558    -0.050969689283    14.003074004780
           C          1.865607617658     0.530054380442     0.036634310717    12.000000000000
           H          3.891742617658     0.337667380442     0.102342310717     1.007825032070
           C          0.645793617658    -0.383963619558    -0.012143689283    12.000000000000
           H          1.842014617658     1.205097380442    -0.813435689283     1.007825032070
           H          1.815804617658     1.153483380442     0.932879310717     1.007825032070
           C         -0.679226382342     0.377378380442     0.043756310717    12.000000000000
           H          0.699046617658    -0.978841619558    -0.919402689283     1.007825032070
           H          0.693527617658    -1.085772619558     0.820035310717     1.007825032070
           C         -1.903308382342    -0.538889619558    -0.005746689283    12.000000000000
           H         -0.726260382342     1.081060380442    -0.785983689283     1.007825032070
           H         -0.717631382342     0.975905380442     0.952677310717     1.007825032070
           C         -3.225123382342     0.226363380442     0.046245310717    12.000000000000
           H         -1.867775382342    -1.136925619558    -0.913658689283     1.007825032070
           H         -1.860400382342    -1.241530619558     0.823777310717     1.007825032070
           H         -3.313348382342     0.913716380442    -0.790461689283     1.007825032070
           H         -4.073451382342    -0.450060619558     0.008907310717     1.007825032070
           H         -3.306012382342     0.808018380442     0.960316310717     1.007825032070

  Charge       = 0
  Multiplicity = 1
  Basis Set: 6-31G*
  Basis Set:

    Orbital Energies (a.u.)
    -----------------------

    Doubly Occupied:

       1A    -15.531042     2A    -11.240237     3A    -11.213794
       4A    -11.212502     5A    -11.208824     6A    -11.207401
       7A     -1.176383     8A     -1.072750     9A     -0.998182
      10A     -0.899997    11A     -0.812382    12A     -0.788866
      13A     -0.666377    14A     -0.639527    15A     -0.614053
      16A     -0.590069    17A     -0.565755    18A     -0.550553
      19A     -0.530211    20A     -0.499664    21A     -0.481306
      22A     -0.465166    23A     -0.461038    24A     -0.449039
      25A     -0.376673

  @DF-RHF Final Energy:  -251.34938703878836

   => Energetics <=

    Nuclear Repulsion Energy =            245.6307388346156415
    One-Electron Energy =                -825.4566851057534222
    Two-Electron Energy =                 328.4765592323494729
    DFT Exchange-Correlation Energy =       0.0000000000000000
    Empirical Dispersion Energy =           0.0000000000000000
    PCM Polarization Energy =               0.0000000000000000
    EFP Energy =                            0.0000000000000000
    Total Energy =                       -251.3493870387883362

  Mulliken Charges: (a.u.)
   Center  Symbol    Alpha    Beta     Spin     Total
       1     H     0.33412  0.33412  0.00000  0.33177
       2     N     3.92228  3.92228  0.00000 -0.84456
       3     C     3.06267  3.06267  0.00000 -0.12535
       4     H     0.33294  0.33294  0.00000  0.33413
       5     C     3.14890  3.14890  0.00000 -0.29780
       6     H     0.43427  0.43427  0.00000  0.13146
       7     H     0.42029  0.42029  0.00000  0.15942
       8     C     3.15525  3.15525  0.00000 -0.31051
       9     H     0.42687  0.42687  0.00000  0.14626
      10     H     0.41467  0.41467  0.00000  0.17066
      11     C     3.15076  3.15076  0.00000 -0.30152
      12     H     0.42499  0.42499  0.00000  0.15002
      13     H     0.42401  0.42401  0.00000  0.15199
      14     C     3.23928  3.23928  0.00000 -0.47856
      15     H     0.42314  0.42314  0.00000  0.15372
      16     H     0.42200  0.42200  0.00000  0.15599
      17     H     0.42226  0.42226  0.00000  0.15547
      18     H     0.41939  0.41939  0.00000  0.16123
      19     H     0.42191  0.42191  0.00000  0.15619

   Total alpha = 25.00000, Total beta = 25.00000, Total charge =  0.00000
