  ==> Input File <==

--------------------------------------------------------------------------
set {
	reference rhf
	basis 6-31G*
}

set_num_threads( 4 )
memory 2 gb

molecule MOL {
0 1

H	 -2.848806	 -1.414593	 0.247892
O	 -2.310168	 -0.871793	 -0.309793
C	 -2.026376	 0.340750	 0.341611
C	 -0.673256	 0.843270	 -0.132153
H	 -2.792215	 1.080697	 0.115987
H	 -2.013526	 0.200402	 1.421792
C	 0.486613	 -0.083066	 0.235839
H	 -0.715586	 0.970948	 -1.210718
H	 -0.508072	 1.829858	 0.297090
C	 1.840406	 0.433480	 -0.254303
H	 0.300215	 -1.068318	 -0.178947
H	 0.519509	 -0.203625	 1.318070
C	 3.000220	 -0.489290	 0.118523
H	 1.809207	 0.553576	 -1.335192
H	 2.021860	 1.424500	 0.157276
H	 2.864959	 -1.479103	 -0.307933
H	 3.946603	 -0.099227	 -0.243630
H	 3.080049	 -0.602997	 1.196117

	symmetry c1
}
set optking {
	frozen_dihedral = ("
		1 2 3 4
	")
}

ee = optimize('scf')
oeprop('DIPOLE', 'QUADRUPOLE', 'MULLIKEN_CHARGES')
f=open( 'psi4out.xyz', 'w' )
f.write( "18  " )
f.write( str(ee) + "\n" )
f.write( MOL.save_string_xyz() )
f.close()
--------------------------------------------------------------------------

    Molecular point group: c1
  Charge       = 0
  Multiplicity = 1
  Basis Set: 6-31G*
  Basis Set:
  @DF-RHF Final Energy:  -271.17908274041906
    Total Energy =                       -271.1790827404192328
    Molecular point group: c1
  Basis Set: 6-31G*
  Basis Set:
  Basis Set: 6-31G*
  Basis Set:
  @DF-RHF Final Energy:  -271.17911713561256
    Total Energy =                       -271.1791171356126142
  Basis Set: 6-31G*
  Basis Set:
  Basis Set: 6-31G*
  Basis Set:
  @DF-RHF Final Energy:  -271.17913865293036
    Total Energy =                       -271.1791386529299643
  Basis Set: 6-31G*
  Basis Set:
  Charge       = 0
  Multiplicity = 1
  Basis Set: 6-31G*
  Basis Set:

    Orbital Energies (a.u.)
    -----------------------

    Doubly Occupied:

       1A    -20.552503     2A    -11.268242     3A    -11.211784
       4A    -11.211659     5A    -11.207785     6A    -11.205523
       7A     -1.358986     8A     -1.075534     9A     -1.009193
      10A     -0.914163    11A     -0.818879    12A     -0.784392
      13A     -0.705941    14A     -0.634891    15A     -0.631608
      16A     -0.579468    17A     -0.569672    18A     -0.563582
      19A     -0.523618    20A     -0.496810    21A     -0.483553
      22A     -0.470923    23A     -0.459522    24A     -0.456494
      25A     -0.424361

  @DF-RHF Final Energy:  -271.17913911638038

   => Energetics <=

    Nuclear Repulsion Energy =            248.9630536494430260
    One-Electron Energy =                -861.0462100287688827
    Two-Electron Energy =                 340.9040172629457288
    DFT Exchange-Correlation Energy =       0.0000000000000000
    Empirical Dispersion Energy =           0.0000000000000000
    PCM Polarization Energy =               0.0000000000000000
    EFP Energy =                            0.0000000000000000
    Total Energy =                       -271.1791391163800995
    Molecular point group: c1
  Basis Set: 6-31G*
  Basis Set:

  -Total Gradient:
     Atom            X                  Y                   Z
    ------   -----------------  -----------------  -----------------
       1        0.001372819787    -0.000599823692     0.000567614878
       2       -0.001517555439     0.000646916738    -0.000475160775
       3       -0.000282799598     0.000544721288    -0.000758534696
       4        0.000464187414    -0.000570831465     0.000677181840
       5        0.000014099358    -0.000039267410     0.000003985653
       6        0.000007093311     0.000003913275     0.000003184301
       7       -0.000032135792     0.000000878924     0.000001046756
       8        0.000009584518     0.000005649191    -0.000041116613
       9       -0.000035678590    -0.000029408214    -0.000021683362
      10        0.000015190758     0.000035579570     0.000048505858
      11        0.000000564430    -0.000004657825    -0.000031330826
      12       -0.000002157074     0.000011318521     0.000016049943
      13       -0.000005853236    -0.000007383620    -0.000016547557
      14       -0.000014188889    -0.000001267317     0.000024383379
      15        0.000011287808     0.000009083026     0.000010794178
      16       -0.000002393311    -0.000011812134     0.000006706184
      17       -0.000007158394    -0.000006429386    -0.000012171169
      18        0.000005092940     0.000012820532    -0.000002907972

  **** Optimization is complete! (in 4 steps) ****
    Final optimized geometry and variables:
    Molecular point group: c1

    Geometry (in Angstrom), charge = 0, multiplicity = 1:

    H           -2.868304586619    -1.412193966154     0.230063467004
    O           -2.330812569646    -0.864869317623    -0.322340744272
    C           -2.025819312274     0.338529747338     0.340594157457
    C           -0.673410895149     0.843433437262    -0.134833986973
    H           -2.794509672065     1.079749238592     0.134311876165
    H           -2.000989081856     0.185625296039     1.418085765142
    C            0.487999943722    -0.077757876078     0.238679282549
    H           -0.714421500559     0.965151264415    -1.214391326532
    H           -0.511906906823     1.833855462508     0.287168480709
    C            1.841590189861     0.435607907525    -0.255326323204
    H            0.301865748848    -1.065587364231    -0.170611034563
    H            0.522589335842    -0.191154396393     1.322009498110
    C            3.000948077472    -0.487690727710     0.117516555396
    H            1.807991632613     0.552567136319    -1.336340092145
    H            2.025090012040     1.427531511345     0.153080157749
    H            2.862022014776    -1.479453182729    -0.303370876940
    H            3.946555807854    -0.101480302051    -0.250557666416
    H            3.085170491947    -0.595949229666     1.195346148920

  Mulliken Charges: (a.u.)
   Center  Symbol    Alpha    Beta     Spin     Total
       1     H     0.27986  0.27986  0.00000  0.44028
       2     O     4.37086  4.37086  0.00000 -0.74172
       3     C     2.99781  2.99781  0.00000  0.00438
       4     C     3.15927  3.15927  0.00000 -0.31854
       5     H     0.42594  0.42594  0.00000  0.14812
       6     H     0.43317  0.43317  0.00000  0.13367
       7     C     3.15360  3.15360  0.00000 -0.30719
       8     H     0.41459  0.41459  0.00000  0.17082
       9     H     0.42464  0.42464  0.00000  0.15071
      10     C     3.15158  3.15158  0.00000 -0.30316
      11     H     0.40982  0.40982  0.00000  0.18036
      12     H     0.42887  0.42887  0.00000  0.14225
      13     C     3.23898  3.23898  0.00000 -0.47795
      14     H     0.42205  0.42205  0.00000  0.15590
      15     H     0.42498  0.42498  0.00000  0.15004
      16     H     0.42107  0.42107  0.00000  0.15786
      17     H     0.42005  0.42005  0.00000  0.15991
      18     H     0.42286  0.42286  0.00000  0.15428

   Total alpha = 25.00000, Total beta = 25.00000, Total charge =  0.00000
