  ==> Input File <==

--------------------------------------------------------------------------
set {
	reference rhf
	basis 6-31G*
}

set_num_threads( 4 )
memory 2 gb

molecule MOL {
0 1

H	 -2.401083	 0.524538	 2.247548
C	 -2.204371	 -0.356748	 1.640276
O	 -0.932236	 -0.314330	 1.078840
H	 -2.253669	 -1.234103	 2.270324
H	 -2.977370	 -0.428810	 0.876268
C	 -0.719715	 0.768384	 0.229244
C	 0.719720	 0.768376	 -0.229267
H	 -1.373225	 0.699819	 -0.641342
H	 -0.934351	 1.706646	 0.736788
O	 1.392611	 -0.295398	 0.366430
H	 0.750534	 0.687200	 -1.313918
H	 1.185043	 1.714359	 0.050526
C	 2.706965	 -0.449871	 -0.062409
H	 2.756559	 -0.644779	 -1.131878
H	 3.305899	 0.433456	 0.155466
H	 3.125548	 -1.294566	 0.467107

	symmetry c1
}
set optking {
	frozen_dihedral = ("
		3 6 7 11
	")
}

ee = optimize('scf')
oeprop('DIPOLE', 'QUADRUPOLE', 'MULLIKEN_CHARGES')
f=open( 'psi4out.xyz', 'w' )
f.write( "16  " )
f.write( str(ee) + "\n" )
f.write( MOL.save_string_xyz() )
f.close()
--------------------------------------------------------------------------

    Molecular point group: c1
  Charge       = 0
  Multiplicity = 1
  Basis Set: 6-31G*
  Basis Set:
  @DF-RHF Final Energy:  -306.96189186106449
    Total Energy =                       -306.9618918610646006
    Molecular point group: c1
  Basis Set: 6-31G*
  Basis Set:
  Basis Set: 6-31G*
  Basis Set:
  @DF-RHF Final Energy:  -306.96264017078215
    Total Energy =                       -306.9626401707821515
  Basis Set: 6-31G*
  Basis Set:
  Basis Set: 6-31G*
  Basis Set:
  @DF-RHF Final Energy:  -306.96392580660586
    Total Energy =                       -306.9639258066059710
  Basis Set: 6-31G*
  Basis Set:
  Basis Set: 6-31G*
  Basis Set:
  @DF-RHF Final Energy:  -306.96396445194443
    Total Energy =                       -306.9639644519443209
  Basis Set: 6-31G*
  Basis Set:
  Charge       = 0
  Multiplicity = 1
  Basis Set: 6-31G*
  Basis Set:

    Orbital Energies (a.u.)
    -----------------------

    Doubly Occupied:

       1A    -20.551504     2A    -20.551359     3A    -11.272015
       4A    -11.271457     5A    -11.262299     6A    -11.262242
       7A     -1.389197     8A     -1.368224     9A     -1.023267
      10A     -0.933620    11A     -0.897257    12A     -0.819405
      13A     -0.687123    14A     -0.672596    15A     -0.657659
      16A     -0.644852    17A     -0.617137    18A     -0.589826
      19A     -0.574233    20A     -0.516811    21A     -0.507978
      22A     -0.468406    23A     -0.465882    24A     -0.424415
      25A     -0.397301

  @DF-RHF Final Energy:  -306.96396637054306

   => Energetics <=

    Nuclear Repulsion Energy =            259.7868542283925990
    One-Electron Energy =                -933.8495170809169394
    Two-Electron Energy =                 367.0986964819813920
    DFT Exchange-Correlation Energy =       0.0000000000000000
    Empirical Dispersion Energy =           0.0000000000000000
    PCM Polarization Energy =               0.0000000000000000
    EFP Energy =                            0.0000000000000000
    Total Energy =                       -306.9639663705429484
    Molecular point group: c1
  Basis Set: 6-31G*
  Basis Set:

  -Total Gradient:
     Atom            X                  Y                   Z
    ------   -----------------  -----------------  -----------------
       1       -0.000001185759     0.000001091370     0.000003262260
       2       -0.000013211961    -0.000007565916     0.000016925576
       3        0.000181607289     0.000334169435     0.000504434811
       4       -0.000003628348    -0.000002230121     0.000001604517
       5        0.000001578770    -0.000005385558    -0.000002362627
       6       -0.000226028059    -0.000241560762    -0.000710499649
       7        0.000012512536    -0.000793718251     0.000221950687
       8        0.000006698411    -0.000019991803     0.000013068868
       9        0.000012591502     0.000006539928    -0.000013783984
      10        0.000016698218    -0.000053269482     0.000013261316
      11        0.000005867286     0.000802957012    -0.000036865960
      12       -0.000007285127    -0.000007278692    -0.000004603046
      13       -0.000002097881    -0.000012112644    -0.000014166363
      14        0.000009332103    -0.000003735500    -0.000000706825
      15       -0.000000279698     0.000004683622     0.000006927717
      16        0.000006830720    -0.000002592636     0.000001552703

  **** Optimization is complete! (in 5 steps) ****
    Final optimized geometry and variables:
    Molecular point group: c1

    Geometry (in Angstrom), charge = 0, multiplicity = 1:

    H           -2.665181989292     0.573854696335     1.687457430919
    C           -2.441445892329    -0.329768783087     1.122091588012
    O           -1.140575264852    -0.317690912024     0.631824761423
    H           -2.532878885792    -1.184405124343     1.777932527351
    H           -3.171823867618    -0.421792351946     0.319392711385
    C           -0.883069014168     0.739496843547    -0.230230881393
    C            0.572528477705     0.704417151984    -0.744429263909
    H           -1.567281560029     0.704328423781    -1.077316363332
    H           -1.064203770579     1.684567003753     0.280661214670
    O            1.282897954396    -0.348313086676    -0.184784895456
    H            0.573089391652     0.620567408963    -1.830704074722
    H            1.060642623055     1.649045095568    -0.506139346323
    C            2.602914702948    -0.418134239745    -0.615547764703
    H            2.665929006161    -0.560287336580    -1.693500733532
    H            3.157799730328     0.482197099682    -0.355244159157
    H            3.060116459219    -1.265391562543    -0.123605438989

  Mulliken Charges: (a.u.)
   Center  Symbol    Alpha    Beta     Spin     Total
       1     H     0.43140  0.43140  0.00000  0.13721
       2     C     3.08035  3.08035  0.00000 -0.16070
       3     O     4.29081  4.29081  0.00000 -0.58163
       4     H     0.41014  0.41014  0.00000  0.17972
       5     H     0.43149  0.43149  0.00000  0.13703
       6     C     2.99543  2.99543  0.00000  0.00914
       7     C     2.99548  2.99548  0.00000  0.00905
       8     H     0.43021  0.43021  0.00000  0.13958
       9     H     0.43015  0.43015  0.00000  0.13970
      10     O     4.29065  4.29065  0.00000 -0.58130
      11     H     0.43019  0.43019  0.00000  0.13963
      12     H     0.43041  0.43041  0.00000  0.13917
      13     C     3.08039  3.08039  0.00000 -0.16078
      14     H     0.43132  0.43132  0.00000  0.13736
      15     H     0.43146  0.43146  0.00000  0.13708
      16     H     0.41012  0.41012  0.00000  0.17976

   Total alpha = 25.00000, Total beta = 25.00000, Total charge = -0.00000
