                              Psi4 1.0.54 Driver

  ==> Input File <==

--------------------------------------------------------------------------
set {
	reference rhf
	basis cc-pvtz
}

set_num_threads( 4 )
memory 2 gb

molecule MOL {
0 1

O	 3.219313	 0.959291	 -0.614106
C	 2.698710	 0.058177	 -0.050237
C	 1.246364	 -0.005813	 0.348416
O	 3.344101	 -1.038700	 0.312317
C	 0.453207	 1.232821	 -0.049003
H	 0.839270	 -0.907818	 -0.092281
H	 1.216683	 -0.160521	 1.422434
C	 -0.998367	 1.217982	 0.432195
H	 0.481498	 1.345443	 -1.127236
H	 0.951413	 2.105557	 0.354893
C	 -1.882951	 0.151251	 -0.211235
H	 -1.429490	 2.193659	 0.228843
H	 -1.019755	 1.099323	 1.513279
C	 -3.342450	 0.243269	 0.226009
H	 -1.826223	 0.246578	 -1.293162
H	 -1.508033	 -0.839650	 0.027695
C	 -3.533721	 0.120503	 1.735021
H	 -3.915898	 -0.535105	 -0.271616
H	 -3.759428	 1.189439	 -0.111271
C	 -4.994414	 0.211566	 2.163811
H	 -3.117735	 -0.824544	 2.073489
H	 -2.963419	 0.899521	 2.233763
H	 -5.094796	 0.121077	 3.239320
H	 -5.585500	 -0.576527	 1.709237
H	 -5.430168	 1.160735	 1.869866
C	 4.720529	 -1.114346	 0.001449
H	 4.874321	 -1.055557	 -1.065852
H	 5.057824	 -2.067950	 0.373977
H	 5.264321	 -0.313596	 0.480350

	symmetry c1
}
set optking {
	frozen_dihedral = ("
		17 14 11 15
	")
}

ee,wfn = optimize('scf', return_wfn=True)
oeprop( wfn, 'DIPOLE', 'QUADRUPOLE', 'MULLIKEN_CHARGES')
f=open( 'psi4out.xyz', 'w' )
f.write( "29  " )
f.write( str(ee) + "\n" )
f.write( MOL.save_string_xyz() )
f.close()
--------------------------------------------------------------------------

    Molecular point group: c1
  Charge       = 0
  Multiplicity = 1
  Basis Set: CC-PVTZ
  Basis Set:
  @DF-RHF Final Energy:  -501.22200666010713
    Total Energy =                       -501.2220066601074677
    Molecular point group: c1
  Basis Set: CC-PVTZ
  Basis Set:
  Basis Set: CC-PVTZ
  Basis Set:
  @DF-RHF Final Energy:  -501.21954930647155
    Total Energy =                       -501.2195493064718903
  Basis Set: CC-PVTZ
  Basis Set:
  Basis Set: CC-PVTZ
  Basis Set:
  @DF-RHF Final Energy:  -501.22278346850396
    Total Energy =                       -501.2227834685045309
  Basis Set: CC-PVTZ
  Basis Set:
  Basis Set: CC-PVTZ
  Basis Set:
  @DF-RHF Final Energy:  -501.22298317732532
    Total Energy =                       -501.2229831773244086
  Basis Set: CC-PVTZ
  Basis Set:
  @DF-RHF Final Energy:  -501.22290969259984
    Total Energy =                       -501.2229096925993872
  Basis Set: CC-PVTZ
  Basis Set:
  @DF-RHF Final Energy:  -501.22290920332250
    Total Energy =                       -501.2229092033222742
  Basis Set: CC-PVTZ
  Basis Set:
  Basis Set: CC-PVTZ
  Basis Set:
  @DF-RHF Final Energy:  -501.22299880446576
    Total Energy =                       -501.2229988044650781
  Basis Set: CC-PVTZ
  Basis Set:
  Basis Set: CC-PVTZ
  Basis Set:
  @DF-RHF Final Energy:  -501.22300244280370
    Total Energy =                       -501.2230024428035904
  Basis Set: CC-PVTZ
  Basis Set:
  Charge       = 0
  Multiplicity = 1
  Basis Set: CC-PVTZ
  Basis Set:

    Orbital Energies (a.u.)
    -----------------------

    Doubly Occupied:

       1A    -20.595966     2A    -20.533802     3A    -11.364196
       4A    -11.278218     5A    -11.232867     6A    -11.216942
       7A    -11.215112     8A    -11.214215     9A    -11.213734
      10A    -11.212712    11A    -11.207194    12A     -1.471861
      13A     -1.365445    14A     -1.099529    15A     -1.067197
      16A     -1.018954    17A     -0.978019    18A     -0.929622
      19A     -0.862488    20A     -0.816344    21A     -0.778255
      22A     -0.761871    23A     -0.702908    24A     -0.685464
      25A     -0.675657    26A     -0.645782    27A     -0.627769
      28A     -0.608468    29A     -0.599941    30A     -0.581834
      31A     -0.565151    32A     -0.556658    33A     -0.544219
      34A     -0.525878    35A     -0.513898    36A     -0.510348
      37A     -0.496390    38A     -0.484417    39A     -0.473460
      40A     -0.460657    41A     -0.456456    42A     -0.449529
      43A     -0.445676    44A     -0.439419

  @DF-RHF Final Energy:  -501.22300255738060

   => Energetics <=

    Nuclear Repulsion Energy =            616.3876644715689963
    One-Electron Energy =               -1904.2522829546710454
    Two-Electron Energy =                 786.6416159257216805
    DFT Exchange-Correlation Energy =       0.0000000000000000
    Empirical Dispersion Energy =           0.0000000000000000
    PCM Polarization Energy =               0.0000000000000000
    EFP Energy =                            0.0000000000000000
    Total Energy =                       -501.2230025573803687
    Molecular point group: c1
  Basis Set: CC-PVTZ
  Basis Set:

  -Total Gradient:
     Atom            X                  Y                   Z
    ------   -----------------  -----------------  -----------------
       1       -0.000034187413     0.000021392162    -0.000014864481
       2        0.000054815260    -0.000007017122     0.000021155068
       3        0.000009946181    -0.000021575998    -0.000007535776
       4       -0.000023616850    -0.000020997957     0.000006582666
       5        0.000004369441     0.000014272325     0.000003049121
       6        0.000004758948     0.000001363782     0.000002977548
       7        0.000005310063     0.000002135067    -0.000002695129
       8        0.000009928156     0.000000685292     0.000016216403
       9       -0.000004319410     0.000001426322     0.000004590027
      10       -0.000006048275    -0.000004642505    -0.000002814979
      11       -0.000097729389    -0.001381218280     0.000075859388
      12        0.000007457610    -0.000016465388     0.000002175562
      13        0.000013594369     0.000007971485    -0.000014016749
      14       -0.000070335938    -0.001308999915     0.000100436012
      15        0.000095040285     0.001538995498    -0.000111735242
      16       -0.000024012860     0.000017441795    -0.000002262055
      17        0.000069251952     0.001142129740    -0.000067369521
      18        0.000004164510     0.000010323643     0.000007291775
      19        0.000024231894    -0.000014646543    -0.000006684811
      20       -0.000003498841     0.000007318092    -0.000002052203
      21       -0.000009909758     0.000018120352    -0.000004258649
      22       -0.000022671809    -0.000028301659    -0.000011999831
      23       -0.000001609578    -0.000002389188    -0.000014105567
      24        0.000015241275     0.000024103930     0.000012404297
      25        0.000011892512    -0.000021196398     0.000010234162
      26       -0.000003629852     0.000021376327    -0.000006136037
      27       -0.000002477712     0.000000966816     0.000007230068
      28       -0.000021427838     0.000005592916     0.000002210793
      29       -0.000004526918    -0.000008164587    -0.000003881862

  **** Optimization is complete! (in 9 steps) ****
    Final optimized geometry and variables:
    Molecular point group: c1

    Geometry (in Angstrom), charge = 0, multiplicity = 1:

    O            3.053783212144     0.756776599881    -1.193999859608
    C            2.597192091649    -0.082796101368    -0.495671637909
    C            1.168886953602    -0.145559372259    -0.017913139988
    O            3.302719155223    -1.102188255921    -0.032947136176
    C            0.308796273020     1.005668245720    -0.524149750358
    H            0.777708010287    -1.108806339213    -0.322588263718
    H            1.195539145280    -0.165683322093     1.067091395964
    C           -1.115991598612     1.001320506796     0.032281782025
    H            0.280544332772     0.981473954462    -1.607934223105
    H            0.790119110963     1.938950311394    -0.258823051262
    C           -1.972083118859    -0.182955889648    -0.421713981694
    H           -1.601790695186     1.920835720923    -0.282239049564
    H           -1.072916972530     1.037529239197     1.116548153188
    C           -3.456967207390    -0.066711982643    -0.070730216290
    H           -1.885004636438    -0.266610505719    -1.501881703610
    H           -1.582201632927    -1.107233715338    -0.005523430460
    C           -3.766317530604     0.060314143617     1.419847741155
    H           -3.971518558184    -0.939934288930    -0.462257436487
    H           -3.878310491781     0.790167856199    -0.591682097319
    C           -5.263443566078     0.052588840549     1.712246152608
    H           -3.291083487265    -0.756668334540     1.957511981138
    H           -3.335243021691     0.975194852557     1.811041096317
    H           -5.457112170141     0.152317542103     2.774105272087
    H           -5.723631613375    -0.870878390175     1.377108018224
    H           -5.764231016679     0.871807143649     1.206912520162
    C            4.664843718817    -1.169575643926    -0.402974389088
    H            4.765580527823    -1.241115473429    -1.475802057955
    H            5.057519331828    -2.056316329690     0.067546706586
    H            5.197902508602    -0.296605106080    -0.056550732510

  Mulliken Charges: (a.u.)
   Center  Symbol    Alpha    Beta     Spin     Total
       1     O     4.19706  4.19706  0.00000 -0.39411
       2     C     2.80508  2.80508  0.00000  0.38984
       3     C     3.10174  3.10174  0.00000 -0.20348
       4     O     4.14714  4.14714  0.00000 -0.29428
       5     C     3.09112  3.09112  0.00000 -0.18224
       6     H     0.43878  0.43878  0.00000  0.12244
       7     H     0.44003  0.44003  0.00000  0.11993
       8     C     3.10646  3.10646  0.00000 -0.21293
       9     H     0.44624  0.44624  0.00000  0.10752
      10     H     0.43957  0.43957  0.00000  0.12085
      11     C     3.10271  3.10271  0.00000 -0.20542
      12     H     0.44497  0.44497  0.00000  0.11007
      13     H     0.45132  0.45132  0.00000  0.09737
      14     C     3.09286  3.09286  0.00000 -0.18572
      15     H     0.44734  0.44734  0.00000  0.10532
      16     H     0.45220  0.45220  0.00000  0.09561
      17     C     3.08691  3.08691  0.00000 -0.17381
      18     H     0.44870  0.44870  0.00000  0.10260
      19     H     0.45339  0.45339  0.00000  0.09323
      20     C     3.15016  3.15016  0.00000 -0.30032
      21     H     0.45475  0.45475  0.00000  0.09049
      22     H     0.45180  0.45180  0.00000  0.09640
      23     H     0.44838  0.44838  0.00000  0.10324
      24     H     0.45445  0.45445  0.00000  0.09111
      25     H     0.45487  0.45487  0.00000  0.09025
      26     C     3.03811  3.03811  0.00000 -0.07622
      27     H     0.45436  0.45436  0.00000  0.09128
      28     H     0.44526  0.44526  0.00000  0.10948
      29     H     0.45424  0.45424  0.00000  0.09152

   Total alpha = 44.00000, Total beta = 44.00000, Total charge =  0.00000

*** Psi4 exiting successfully. Buy a developer a beer!
