  ==> Input File <==

--------------------------------------------------------------------------
set {
	reference rhf
	basis cc-pvtz
}

set_num_threads( 4 )
memory 2 gb

molecule MOL {
0 1

H	 -2.698799	 -0.000846	 0.036018
C	 -1.694291	 -0.000483	 0.434279
O	 -0.828718	 -0.000608	 -0.655022
H	 -1.576855	 0.881100	 1.056504
H	 -1.576401	 -0.881658	 1.057001
C	 0.557892	 0.000078	 -0.420099
C	 1.238513	 -1.266133	 -0.927777
C	 1.237466	 1.266386	 -0.928914
H	 0.625762	 0.000590	 0.660647
H	 0.708970	 -2.144339	 -0.579359
H	 2.255189	 -1.311576	 -0.554882
H	 1.286125	 -1.300204	 -2.009977
H	 0.707255	 2.144471	 -0.581226
H	 2.254155	 1.312972	 -0.556158
H	 1.284947	 1.299556	 -2.011128

	symmetry c1
}
set optking {
	frozen_dihedral = ("
		9 6 3 2
	")
}

ee = optimize('scf')
oeprop('DIPOLE', 'QUADRUPOLE', 'MULLIKEN_CHARGES')
f=open( 'psi4out.xyz', 'w' )
f.write( "15  " )
f.write( str(ee) + "\n" )
f.write( MOL.save_string_xyz() )
f.close()
--------------------------------------------------------------------------

    Molecular point group: c1
  Charge       = 0
  Multiplicity = 1
  Basis Set: CC-PVTZ
  Basis Set:
  @DF-RHF Final Energy:  -232.22496245617714
    Total Energy =                       -232.2249624561771952
    Molecular point group: c1
  Basis Set: CC-PVTZ
  Basis Set:
  Basis Set: CC-PVTZ
  Basis Set:
  @DF-RHF Final Energy:  -232.22807838753596
    Total Energy =                       -232.2280783875361863
  Basis Set: CC-PVTZ
  Basis Set:
  Basis Set: CC-PVTZ
  Basis Set:
  @DF-RHF Final Energy:  -232.22871994852929
    Total Energy =                       -232.2287199485293741
  Basis Set: CC-PVTZ
  Basis Set:
  Basis Set: CC-PVTZ
  Basis Set:
  @DF-RHF Final Energy:  -232.22874744133046
    Total Energy =                       -232.2287474413304267
  Basis Set: CC-PVTZ
  Basis Set:
  Charge       = 0
  Multiplicity = 1
  Basis Set: CC-PVTZ
  Basis Set:

    Orbital Energies (a.u.)
    -----------------------

    Doubly Occupied:

       1A    -20.541973     2A    -11.272392     3A    -11.262289
       4A    -11.205422     5A    -11.205406     6A     -1.376463
       7A     -1.053672     8A     -0.936627     9A     -0.918849
      10A     -0.796033    11A     -0.670130    12A     -0.644079
      13A     -0.636623    14A     -0.579726    15A     -0.554494
      16A     -0.540320    17A     -0.538002    18A     -0.497540
      19A     -0.487926    20A     -0.458789    21A     -0.406948

  @DF-RHF Final Energy:  -232.22875037530218

   => Energetics <=

    Nuclear Repulsion Energy =            197.0168260814615451
    One-Electron Energy =                -705.3237442315917178
    Two-Electron Energy =                 276.0781677748279321
    DFT Exchange-Correlation Energy =       0.0000000000000000
    Empirical Dispersion Energy =           0.0000000000000000
    PCM Polarization Energy =               0.0000000000000000
    EFP Energy =                            0.0000000000000000
    Total Energy =                       -232.2287503753022406
    Molecular point group: c1
  Basis Set: CC-PVTZ
  Basis Set:

  -Total Gradient:
     Atom            X                  Y                   Z
    ------   -----------------  -----------------  -----------------
       1       -0.000000922288     0.000000191502    -0.000000851945
       2       -0.000119492873    -0.000000412112     0.000014174834
       3        0.000089013220     0.000000210292     0.000109528048
       4        0.000015880977     0.000002893329    -0.000020357617
       5        0.000015978854    -0.000002833552    -0.000020163896
       6       -0.000172056801    -0.000000118222    -0.000103412331
       7        0.000120189489     0.000043885723     0.000006312500
       8        0.000120254977    -0.000043758283     0.000006387684
       9        0.000035787805     0.000000002751    -0.000016405851
      10       -0.000024025581    -0.000000510475     0.000017146770
      11       -0.000010148471    -0.000026175497    -0.000004345597
      12       -0.000018132821     0.000026251456    -0.000000420408
      13       -0.000024030997     0.000000503076     0.000017119206
      14       -0.000010169119     0.000026186621    -0.000004377241
      15       -0.000018126369    -0.000026316609    -0.000000334156

  **** Optimization is complete! (in 5 steps) ****
    Final optimized geometry and variables:
    Molecular point group: c1

    Geometry (in Angstrom), charge = 0, multiplicity = 1:

    H           -2.773738138201    -0.000921702252     0.433558293768
    C           -1.776828599414    -0.000348088609     0.850940354845
    O           -0.876266547461    -0.000436640172    -0.206553499331
    H           -1.664979427582     0.882281532120     1.476771446942
    H           -1.664274771193    -0.882355980055     1.477521162996
    C            0.488869506959     0.000252496106     0.135315652395
    C            1.134523781776    -1.263583999392    -0.409862926885
    C            1.133516062615     1.264140082473    -0.410935848849
    H            0.586377653393     0.000750969626     1.218226086463
    H            0.655417285915    -2.143829782446     0.001677544678
    H            2.189149617964    -1.299687820137    -0.160315805640
    H            1.034297655695    -1.298443969569    -1.488345303767
    H            0.653706242622     2.144352638591    -0.000144465588
    H            2.188112303935     1.301297858903    -0.161418441498
    H            1.033263967132     1.298003069191    -1.489447501801

  Mulliken Charges: (a.u.)
   Center  Symbol    Alpha    Beta     Spin     Total
       1     H     0.44963  0.44963  0.00000  0.10075
       2     C     3.03347  3.03347  0.00000 -0.06694
       3     O     4.18865  4.18865  0.00000 -0.37729
       4     H     0.47057  0.47057  0.00000  0.05886
       5     H     0.47057  0.47057  0.00000  0.05886
       6     C     2.92088  2.92088  0.00000  0.15823
       7     C     3.13822  3.13822  0.00000 -0.27644
       8     C     3.13822  3.13822  0.00000 -0.27644
       9     H     0.46834  0.46834  0.00000  0.06333
      10     H     0.45086  0.45086  0.00000  0.09828
      11     H     0.45731  0.45731  0.00000  0.08539
      12     H     0.45256  0.45256  0.00000  0.09487
      13     H     0.45086  0.45086  0.00000  0.09828
      14     H     0.45731  0.45731  0.00000  0.08539
      15     H     0.45256  0.45256  0.00000  0.09487

   Total alpha = 21.00000, Total beta = 21.00000, Total charge = -0.00000
