                              Psi4 1.0.54 Driver

  ==> Input File <==

--------------------------------------------------------------------------
set {
	reference rhf
	basis cc-pvtz
}

set_num_threads( 4 )
memory 2 gb

molecule MOL {
0 1

H	 2.237091	 -0.611392	 -0.120395
C	 1.635663	 -0.887027	 -0.996731
C	 0.341426	 -0.136084	 -1.144490
O	 2.020301	 -1.723327	 -1.738546
C	 -0.554654	 -0.292621	 0.086567
H	 -0.155915	 -0.482858	 -2.040725
H	 0.588546	 0.914881	 -1.279696
C	 -1.846385	 0.513195	 -0.016346
H	 -0.794566	 -1.343342	 0.222089
H	 -0.008989	 0.015887	 0.974680
C	 -3.089953	 -0.365049	 -0.098564
H	 -1.798267	 1.154820	 -0.891143
H	 -1.925398	 1.173265	 0.842889
H	 -3.055079	 -1.012299	 -0.968245
H	 -3.988403	 0.236438	 -0.170014
H	 -3.183055	 -0.995885	 0.779079

	symmetry c1
}
set optking {
	frozen_dihedral = ("
		9 5 8 12
	")
}

ee,wfn = optimize('scf', return_wfn=True)
oeprop( wfn, 'DIPOLE', 'QUADRUPOLE', 'MULLIKEN_CHARGES')
f=open( 'psi4out.xyz', 'w' )
f.write( "16  " )
f.write( str(ee) + "\n" )
f.write( MOL.save_string_xyz() )
f.close()
--------------------------------------------------------------------------

    Molecular point group: c1
  Charge       = 0
  Multiplicity = 1
  Basis Set: CC-PVTZ
  Basis Set:
  @DF-RHF Final Energy:  -270.11323186813854
    Total Energy =                       -270.1132318681387687
    Molecular point group: c1
  Basis Set: CC-PVTZ
  Basis Set:
  Basis Set: CC-PVTZ
  Basis Set:
  @DF-RHF Final Energy:  -270.11349300810690
    Total Energy =                       -270.1134930081070138
  Basis Set: CC-PVTZ
  Basis Set:
  Basis Set: CC-PVTZ
  Basis Set:
  @DF-RHF Final Energy:  -270.11355925714133
    Total Energy =                       -270.1135592571412189
  Basis Set: CC-PVTZ
  Basis Set:
  Basis Set: CC-PVTZ
  Basis Set:
  @DF-RHF Final Energy:  -270.11330416547014
    Total Energy =                       -270.1133041654703106
  Basis Set: CC-PVTZ
  Basis Set:
  Basis Set: CC-PVTZ
  Basis Set:
  @DF-RHF Final Energy:  -270.11358196587543
    Total Energy =                       -270.1135819658752553
  Basis Set: CC-PVTZ
  Basis Set:
  Basis Set: CC-PVTZ
  Basis Set:
  @DF-RHF Final Energy:  -270.11357358057654
    Total Energy =                       -270.1135735805763716
  Basis Set: CC-PVTZ
  Basis Set:
  Basis Set: CC-PVTZ
  Basis Set:
  @DF-RHF Final Energy:  -270.11358536058088
    Total Energy =                       -270.1135853605808848
  Basis Set: CC-PVTZ
  Basis Set:
  Charge       = 0
  Multiplicity = 1
  Basis Set: CC-PVTZ
  Basis Set:

    Orbital Energies (a.u.)
    -----------------------

    Doubly Occupied:

       1A    -20.552156     2A    -11.321069     3A    -11.234715
       4A    -11.234090     5A    -11.227201     6A    -11.216245
       7A     -1.406788     8A     -1.095415     9A     -1.018611
      10A     -0.906866    11A     -0.812636    12A     -0.794452
      13A     -0.678621    14A     -0.651151    15A     -0.625297
      16A     -0.608645    17A     -0.587060    18A     -0.549913
      19A     -0.529106    20A     -0.514626    21A     -0.488351
      22A     -0.478839    23A     -0.475251    24A     -0.411161

  @DF-RHF Final Energy:  -270.11358553819878

   => Energetics <=

    Nuclear Repulsion Energy =            230.3948806099187436
    One-Electron Energy =                -822.1804066154127213
    Two-Electron Energy =                 321.6719404672952578
    DFT Exchange-Correlation Energy =       0.0000000000000000
    Empirical Dispersion Energy =           0.0000000000000000
    PCM Polarization Energy =               0.0000000000000000
    EFP Energy =                            0.0000000000000000
    Total Energy =                       -270.1135855381986630
    Molecular point group: c1
  Basis Set: CC-PVTZ
  Basis Set:

  -Total Gradient:
     Atom            X                  Y                   Z
    ------   -----------------  -----------------  -----------------
       1       -0.000007794380    -0.000002427851     0.000011026901
       2        0.000012244406     0.000012280377    -0.000002360882
       3       -0.000027020316    -0.000022195340     0.000039285039
       4        0.000003921574    -0.000002130317    -0.000021335943
       5       -0.000102469915     0.000001773942     0.001484675126
       6        0.000000893942     0.000003690577    -0.000006681135
       7        0.000013289312    -0.000000610608    -0.000013318106
       8        0.000679908645     0.001207816381     0.000608730715
       9       -0.000014900511    -0.000183836831    -0.001352629441
      10       -0.000011450755     0.000009545685    -0.000003866510
      11        0.000001365216    -0.000010029178    -0.000000428503
      12       -0.000553922657    -0.001005258920    -0.000743327064
      13        0.000008551490    -0.000007654662     0.000002962990
      14       -0.000001016480    -0.000005403957     0.000000403098
      15        0.000002092162     0.000001564312    -0.000004169292
      16       -0.000003691731     0.000002876391     0.000001033005

  **** Optimization is complete! (in 8 steps) ****
    Final optimized geometry and variables:
    Molecular point group: c1

    Geometry (in Angstrom), charge = 0, multiplicity = 1:

    H            2.514775008694    -0.151436353241     0.498178618413
    C            1.885754241175    -0.426622584968    -0.358778189680
    C            0.609305975429     0.356731599236    -0.491284897993
    O            2.229740397132    -1.287580928086    -1.092523661819
    C           -0.272222424812     0.229776715963     0.755985542465
    H            0.087927395094     0.016915588821    -1.376858446442
    H            0.879609808356     1.400312954995    -0.636680607109
    C           -1.580449404263     1.040966713880     0.652738076920
    H           -0.505454519926    -0.819635102600     0.902603578544
    H            0.295450205606     0.543974440351     1.625301335782
    C           -2.826736296111     0.163834760949     0.567601249462
    H           -1.545270615025     1.676267800910    -0.225853287806
    H           -1.670768663773     1.703884768204     1.505403219457
    H           -2.779309692697    -0.500090736780    -0.289217334791
    H           -3.722653324003     0.766074474111     0.471050848618
    H           -2.933247454486    -0.450520889073     1.455009331866

  Mulliken Charges: (a.u.)
   Center  Symbol    Alpha    Beta     Spin     Total
       1     H     0.46539  0.46539  0.00000  0.06923
       2     C     2.91060  2.91060  0.00000  0.17880
       3     C     3.07835  3.07835  0.00000 -0.15671
       4     O     4.16380  4.16380  0.00000 -0.32760
       5     C     3.10919  3.10919  0.00000 -0.21838
       6     H     0.44237  0.44237  0.00000  0.11526
       7     H     0.44937  0.44937  0.00000  0.10127
       8     C     3.08877  3.08877  0.00000 -0.17754
       9     H     0.44598  0.44598  0.00000  0.10804
      10     H     0.44537  0.44537  0.00000  0.10926
      11     C     3.14647  3.14647  0.00000 -0.29294
      12     H     0.45283  0.45283  0.00000  0.09434
      13     H     0.44706  0.44706  0.00000  0.10589
      14     H     0.45275  0.45275  0.00000  0.09450
      15     H     0.44815  0.44815  0.00000  0.10369
      16     H     0.45355  0.45355  0.00000  0.09290

   Total alpha = 24.00000, Total beta = 24.00000, Total charge = -0.00000

*** Psi4 exiting successfully. Buy a developer a beer!
