  ==> Input File <==

--------------------------------------------------------------------------
set {
	reference rhf
	basis 6-31G*
}

set_num_threads( 1 )
memory 2 gb

molecule MOL {
0 1

O	 1.316555	 0.667094	 -0.977184
C	 1.705091	 0.115954	 0.001797
C	 1.128554	 0.276142	 1.387370
O	 2.721346	 -0.737485	 -0.000216
C	 -0.046792	 1.247079	 1.446424
H	 0.840766	 -0.712132	 1.735516
H	 1.936335	 0.595562	 2.040195
C	 -0.611506	 1.389472	 2.860596
H	 -0.825396	 0.907511	 0.770659
H	 0.271486	 2.216797	 1.076756
C	 -1.791958	 2.359213	 2.938019
H	 -0.925567	 0.413201	 3.227009
H	 0.174607	 1.727958	 3.533898
C	 -2.354995	 2.502001	 4.351473
H	 -2.579181	 2.021072	 2.267883
H	 -1.479567	 3.335133	 2.573150
H	 -2.708143	 1.547477	 4.731452
H	 -3.189744	 3.195650	 4.373721
H	 -1.599587	 2.871576	 5.039284
C	 4.024888	 -0.184556	 -0.001949
H	 4.179030	 0.422472	 -0.882452
H	 4.701782	 -1.024608	 -0.003642
H	 4.181981	 0.421185	 0.878906

	symmetry c1
}
set optking {
	frozen_dihedral = ("
		15 11 8 12,
		9 5 8 12,
		1 2 3 6,
		9 5 3 6
	")
}

ee = energy('scf')
oeprop('DIPOLE', 'QUADRUPOLE', 'MULLIKEN_CHARGES')
f=open( 'psi4out.xyz', 'w' )
f.write( "23  " )
f.write( str(ee) + "\n" )
f.write( MOL.save_string_xyz() )
f.close()
--------------------------------------------------------------------------

    Molecular point group: c1

    Geometry (in Angstrom), charge = 0, multiplicity = 1:

       Center              X                  Y                   Z               Mass
    ------------   -----------------  -----------------  -----------------  -----------------
           O          0.607655563434    -0.173932208850    -2.297552145796    15.994914619560
           C          0.996191563434    -0.725072208850    -1.318571145796    12.000000000000
           C          0.419654563434    -0.564884208850     0.067001854204    12.000000000000
           O          2.012446563434    -1.578511208850    -1.320584145796    15.994914619560
           C         -0.755691436566     0.406052791150     0.126055854204    12.000000000000
           H          0.131866563434    -1.553158208850     0.415147854204     1.007825032070
           H          1.227435563434    -0.245464208850     0.719826854204     1.007825032070
           C         -1.320405436566     0.548445791150     1.540227854204    12.000000000000
           H         -1.534295436566     0.066484791150    -0.549709145796     1.007825032070
           H         -0.437413436566     1.375770791150    -0.243612145796     1.007825032070
           C         -2.500857436566     1.518186791150     1.617650854204    12.000000000000
           H         -1.634466436566    -0.427825208850     1.906640854204     1.007825032070
           H         -0.534292436566     0.886931791150     2.213529854204     1.007825032070
           C         -3.063894436566     1.660974791150     3.031104854204    12.000000000000
           H         -3.288080436566     1.180045791150     0.947514854204     1.007825032070
           H         -2.188466436566     2.494106791150     1.252781854204     1.007825032070
           H         -3.417042436566     0.706450791150     3.411083854204     1.007825032070
           H         -3.898643436566     2.354623791150     3.053352854204     1.007825032070
           H         -2.308486436566     2.030549791150     3.718915854204     1.007825032070
           C          3.315988563434    -1.025582208850    -1.322317145796    12.000000000000
           H          3.470130563434    -0.418554208850    -2.202820145796     1.007825032070
           H          3.992882563434    -1.865634208850    -1.324010145796     1.007825032070
           H          3.473081563434    -0.419841208850    -0.441462145796     1.007825032070

  Charge       = 0
  Multiplicity = 1
  Basis Set: 6-31G*
  Basis Set:

    Orbital Energies (a.u.)
    -----------------------

    Doubly Occupied:

       1A    -20.587208     2A    -20.554351     3A    -11.373481
       4A    -11.293908     5A    -11.236770     6A    -11.219800
       7A    -11.218788     8A    -11.217246     9A    -11.210412
      10A     -1.464177    11A     -1.366452    12A     -1.093522
      13A     -1.041606    14A     -0.986599    15A     -0.941497
      16A     -0.848734    17A     -0.796234    18A     -0.768386
      19A     -0.695468    20A     -0.681659    21A     -0.675623
      22A     -0.649684    23A     -0.616112    24A     -0.606848
      25A     -0.578216    26A     -0.567837    27A     -0.555946
      28A     -0.536710    29A     -0.509165    30A     -0.495138
      31A     -0.486747    32A     -0.477804    33A     -0.469689
      34A     -0.466534    35A     -0.450314    36A     -0.430000

  @DF-RHF Final Energy:  -422.95634376462971

   => Energetics <=

    Nuclear Repulsion Energy =            453.6151766551698188
    One-Electron Energy =               -1474.8057075570859524
    Two-Electron Energy =                 598.2341871372859714
    DFT Exchange-Correlation Energy =       0.0000000000000000
    Empirical Dispersion Energy =           0.0000000000000000
    PCM Polarization Energy =               0.0000000000000000
    EFP Energy =                            0.0000000000000000
    Total Energy =                       -422.9563437646302191

  Mulliken Charges: (a.u.)
   Center  Symbol    Alpha    Beta     Spin     Total
       1     O     4.26113  4.26113  0.00000 -0.52226
       2     C     2.61312  2.61312  0.00000  0.77375
       3     C     3.21130  3.21130  0.00000 -0.42259
       4     O     4.31118  4.31118  0.00000 -0.62235
       5     C     3.15343  3.15343  0.00000 -0.30686
       6     H     0.39861  0.39861  0.00000  0.20278
       7     H     0.40788  0.40788  0.00000  0.18425
       8     C     3.15300  3.15300  0.00000 -0.30599
       9     H     0.41047  0.41047  0.00000  0.17907
      10     H     0.41312  0.41312  0.00000  0.17375
      11     C     3.15153  3.15153  0.00000 -0.30307
      12     H     0.42373  0.42373  0.00000  0.15254
      13     H     0.42520  0.42520  0.00000  0.14960
      14     C     3.23957  3.23957  0.00000 -0.47914
      15     H     0.42092  0.42092  0.00000  0.15817
      16     H     0.42161  0.42161  0.00000  0.15679
      17     H     0.42166  0.42166  0.00000  0.15668
      18     H     0.41833  0.41833  0.00000  0.16333
      19     H     0.42216  0.42216  0.00000  0.15568
      20     C     3.09332  3.09332  0.00000 -0.18663
      21     H     0.40587  0.40587  0.00000  0.18825
      22     H     0.40196  0.40196  0.00000  0.19608
      23     H     0.42091  0.42091  0.00000  0.15818

   Total alpha = 36.00000, Total beta = 36.00000, Total charge = -0.00000
