  ==> Input File <==

--------------------------------------------------------------------------
set {
	reference rhf
	basis 6-31G*
}

set_num_threads( 4 )
memory 2 gb

molecule MOL {
0 1

H	 -3.161837	 0.500524	 -0.000234
C	 -2.367097	 -0.232926	 -0.000000
O	 -1.158440	 0.455814	 -0.000122
H	 -2.468853	 -0.861886	 -0.882833
H	 -2.468942	 -0.861421	 0.883154
C	 -1.208697	 1.703600	 -0.623324
C	 0.167290	 2.342607	 -0.552658
H	 -1.946938	 2.339011	 -0.132251
H	 -1.521383	 1.591919	 -1.662392
C	 0.206768	 3.719701	 -1.213668
H	 0.458180	 2.418996	 0.490514
H	 0.880791	 1.677206	 -1.028953
H	 -0.483577	 4.408964	 -0.735374
H	 1.199691	 4.151878	 -1.149082
H	 -0.058685	 3.662039	 -2.265625

	symmetry c1
}
set optking {
	frozen_dihedral = ("
		6 3 2 4
	")
}

ee = optimize('scf')
oeprop('DIPOLE', 'QUADRUPOLE', 'MULLIKEN_CHARGES')
f=open( 'psi4out.xyz', 'w' )
f.write( "15  " )
f.write( str(ee) + "\n" )
f.write( MOL.save_string_xyz() )
f.close()
--------------------------------------------------------------------------

    Molecular point group: c1
  Charge       = 0
  Multiplicity = 1
  Basis Set: 6-31G*
  Basis Set:
  @DF-RHF Final Energy:  -232.13620532323063
    Total Energy =                       -232.1362053232305129
    Molecular point group: c1
  Basis Set: 6-31G*
  Basis Set:
  Basis Set: 6-31G*
  Basis Set:
  @DF-RHF Final Energy:  -232.13726717258174
    Total Energy =                       -232.1372671725815735
  Basis Set: 6-31G*
  Basis Set:
  Basis Set: 6-31G*
  Basis Set:
  @DF-RHF Final Energy:  -232.13756492127800
    Total Energy =                       -232.1375649212780559
  Basis Set: 6-31G*
  Basis Set:
  Basis Set: 6-31G*
  Basis Set:
  @DF-RHF Final Energy:  -232.13756665315725
    Total Energy =                       -232.1375666531573643
  Basis Set: 6-31G*
  Basis Set:
  Charge       = 0
  Multiplicity = 1
  Basis Set: 6-31G*
  Basis Set:

    Orbital Energies (a.u.)
    -----------------------

    Doubly Occupied:

       1A    -20.551588     2A    -11.266491     3A    -11.263606
       4A    -11.213978     5A    -11.212799     6A     -1.375689
       7A     -1.057087     8A     -0.955409     9A     -0.877180
      10A     -0.808875    11A     -0.672936    12A     -0.652720
      13A     -0.629899    14A     -0.607533    15A     -0.564707
      16A     -0.543628    17A     -0.502352    18A     -0.488560
      19A     -0.478487    20A     -0.460930    21A     -0.410904

  @DF-RHF Final Energy:  -232.13756691646074

   => Energetics <=

    Nuclear Repulsion Energy =            189.5473249954942503
    One-Electron Energy =                -690.1790665572588068
    Two-Electron Energy =                 268.4941746453034739
    DFT Exchange-Correlation Energy =       0.0000000000000000
    Empirical Dispersion Energy =           0.0000000000000000
    PCM Polarization Energy =               0.0000000000000000
    EFP Energy =                            0.0000000000000000
    Total Energy =                       -232.1375669164610827
    Molecular point group: c1
  Basis Set: 6-31G*
  Basis Set:

  -Total Gradient:
     Atom            X                  Y                   Z
    ------   -----------------  -----------------  -----------------
       1       -0.000002404280    -0.000001739838    -0.000000247019
       2       -0.001983085049     0.003440350362    -0.001063069036
       3        0.001250252642    -0.002201963660    -0.002646791260
       4        0.001350632764    -0.002319341045     0.001548378340
       5       -0.000002894130    -0.000004039846     0.000000654744
       6       -0.000615400810     0.001086248143     0.002172687161
       7        0.000000460976     0.000000036360    -0.000006216500
       8       -0.000002984890     0.000001873425    -0.000003445005
       9        0.000004407746    -0.000005314986     0.000005750800
      10        0.000003829800     0.000004131421    -0.000002123171
      11       -0.000006025972    -0.000002749699    -0.000002550205
      12        0.000002214064     0.000001087917    -0.000000338052
      13       -0.000000143141    -0.000002257733    -0.000000005940
      14        0.000000266230     0.000002339735    -0.000001432938
      15        0.000000874052     0.000001339445    -0.000001251920

  **** Optimization is complete! (in 5 steps) ****
    Final optimized geometry and variables:
    Molecular point group: c1

    Geometry (in Angstrom), charge = 0, multiplicity = 1:

    H           -2.336277541871    -1.145886040318     0.523142959789
    C           -1.479014679056    -1.812286171574     0.477221291739
    O           -0.273282384854    -1.112738848255     0.474630452750
    H           -1.566160614738    -2.448045618070    -0.400967944459
    H           -1.491021800631    -2.449473045417     1.352730044564
    C           -0.310165647064     0.132141113674    -0.157251094312
    C            1.069907182545     0.760687123885    -0.075342035227
    H           -1.047602187027     0.773773580145     0.325442533588
    H           -0.612017608623     0.021332461388    -1.199615461447
    C            1.125028563033     2.137787210570    -0.735394423063
    H            1.352422113173     0.833965253774     0.970393144767
    H            1.782533783668     0.090448947231    -0.546057642194
    H            0.435487371451     2.831765832670    -0.262752126280
    H            2.120354701955     2.563027271886    -0.661936539011
    H            0.868211279471     2.082626396926    -1.789638893468

  Mulliken Charges: (a.u.)
   Center  Symbol    Alpha    Beta     Spin     Total
       1     H     0.43073  0.43073  0.00000  0.13853
       2     C     3.07753  3.07753  0.00000 -0.15507
       3     O     4.30814  4.30814  0.00000 -0.61627
       4     H     0.42680  0.42680  0.00000  0.14640
       5     H     0.41493  0.41493  0.00000  0.17014
       6     C     2.98150  2.98150  0.00000  0.03701
       7     C     3.15994  3.15994  0.00000 -0.31988
       8     H     0.43284  0.43284  0.00000  0.13433
       9     H     0.43370  0.43370  0.00000  0.13260
      10     C     3.24792  3.24792  0.00000 -0.49584
      11     H     0.41436  0.41436  0.00000  0.17128
      12     H     0.41436  0.41436  0.00000  0.17129
      13     H     0.42096  0.42096  0.00000  0.15808
      14     H     0.41543  0.41543  0.00000  0.16914
      15     H     0.42087  0.42087  0.00000  0.15827

   Total alpha = 21.00000, Total beta = 21.00000, Total charge =  0.00000
