  ==> Input File <==

--------------------------------------------------------------------------
set {
	reference rhf
	basis 6-31G*
}

set_num_threads( 1 )
memory 2 gb

molecule MOL {
0 1

H	 2.591676	 2.013956	 0.335017
O	 3.341076	 1.666752	 -0.126416
C	 3.569581	 0.339145	 0.272707
C	 2.923872	 -0.006102	 1.610090
H	 3.146534	 -0.279848	 -0.508032
H	 4.638190	 0.130200	 0.307311
C	 3.486480	 0.782879	 2.794932
H	 1.853773	 0.167239	 1.531311
H	 3.060478	 -1.071570	 1.787522
C	 2.856332	 0.375048	 4.129625
H	 3.324694	 1.843926	 2.626498
H	 4.565114	 0.634729	 2.849168
C	 3.445084	 1.074713	 5.360146
H	 1.784097	 0.558340	 4.090111
H	 2.975337	 -0.699156	 4.254619
C	 3.185053	 2.582002	 5.430444
H	 3.027527	 0.609037	 6.250431
H	 4.517827	 0.891508	 5.398822
C	 3.698988	 3.215847	 6.724874
H	 2.115374	 2.766308	 5.341399
H	 3.651783	 3.082149	 4.585270
C	 3.446421	 4.721498	 6.794782
H	 3.225380	 2.730955	 7.575793
H	 4.765804	 3.024367	 6.820389
H	 2.384800	 4.944149	 6.734690
H	 3.819908	 5.140680	 7.723991
H	 3.938521	 5.240407	 5.976897

	symmetry c1
}
set optking {
	frozen_dihedral = ("
		14 10 7 4,
		14 10 13 16,
		10 7 4 8,
		8 4 3 2,
		10 13 16 20,
		20 16 19 22
	")
}

ee = energy('scf')
oeprop('DIPOLE', 'QUADRUPOLE', 'MULLIKEN_CHARGES')
f=open( 'psi4out.xyz', 'w' )
f.write( "27  " )
f.write( str(ee) + "\n" )
f.write( MOL.save_string_xyz() )
f.close()
--------------------------------------------------------------------------

    Molecular point group: c1

    Geometry (in Angstrom), charge = 0, multiplicity = 1:

       Center              X                  Y                   Z               Mass
    ------------   -----------------  -----------------  -----------------  -----------------
           H         -0.732801920814     0.356797728863    -3.273882912879     1.007825032070
           O          0.016598079186     0.009593728863    -3.735315912879    15.994914619560
           C          0.245103079186    -1.318013271137    -3.336192912879    12.000000000000
           C         -0.400605920814    -1.663260271137    -1.998809912879    12.000000000000
           H         -0.177943920814    -1.937006271137    -4.116931912879     1.007825032070
           H          1.313712079186    -1.526958271137    -3.301588912879     1.007825032070
           C          0.162002079186    -0.874279271137    -0.813967912879    12.000000000000
           H         -1.470704920814    -1.489919271137    -2.077588912879     1.007825032070
           H         -0.263999920814    -2.728728271137    -1.821377912879     1.007825032070
           C         -0.468145920814    -1.282110271137     0.520725087121    12.000000000000
           H          0.000216079186     0.186767728863    -0.982401912879     1.007825032070
           H          1.240636079186    -1.022429271137    -0.759731912879     1.007825032070
           C          0.120606079186    -0.582445271137     1.751246087121    12.000000000000
           H         -1.540380920814    -1.098818271137     0.481211087121     1.007825032070
           H         -0.349140920814    -2.356314271137     0.645719087121     1.007825032070
           C         -0.139424920814     0.924843728863     1.821544087121    12.000000000000
           H         -0.296950920814    -1.048121271137     2.641531087121     1.007825032070
           H          1.193349079186    -0.765650271137     1.789922087121     1.007825032070
           C          0.374510079186     1.558688728863     3.115974087121    12.000000000000
           H         -1.209103920814     1.109149728863     1.732499087121     1.007825032070
           H          0.327305079186     1.424990728863     0.976370087121     1.007825032070
           C          0.121943079186     3.064339728863     3.185882087121    12.000000000000
           H         -0.099097920814     1.073796728863     3.966893087121     1.007825032070
           H          1.441326079186     1.367208728863     3.211489087121     1.007825032070
           H         -0.939677920814     3.286990728863     3.125790087121     1.007825032070
           H          0.495430079186     3.483521728863     4.115091087121     1.007825032070
           H          0.614043079186     3.583248728863     2.367997087121     1.007825032070

  Charge       = 0
  Multiplicity = 1
  Basis Set: 6-31G*
  Basis Set:

    Orbital Energies (a.u.)
    -----------------------

    Doubly Occupied:

       1A    -20.549385     2A    -11.266410     3A    -11.223880
       4A    -11.219799     5A    -11.218175     6A    -11.216002
       7A    -11.215751     8A    -11.214180     9A    -11.208954
      10A     -1.357902    11A     -1.096159    12A     -1.062818
      13A     -1.012573    14A     -0.948254    15A     -0.888154
      16A     -0.825358    17A     -0.804499    18A     -0.779022
      19A     -0.662021    20A     -0.656009    21A     -0.647857
      22A     -0.627834    23A     -0.607625    24A     -0.585481
      25A     -0.574449    26A     -0.563239    27A     -0.539610
      28A     -0.524337    29A     -0.512034    30A     -0.489775
      31A     -0.485010    32A     -0.479452    33A     -0.466463
      34A     -0.460469    35A     -0.447436    36A     -0.445873
      37A     -0.422389

  @DF-RHF Final Energy:  -388.27875940439253

   => Energetics <=

    Nuclear Repulsion Energy =            459.8463105349934494
    One-Electron Energy =               -1437.6408475369441931
    Two-Electron Energy =                 589.5157775975585537
    DFT Exchange-Correlation Energy =       0.0000000000000000
    Empirical Dispersion Energy =           0.0000000000000000
    PCM Polarization Energy =               0.0000000000000000
    EFP Energy =                            0.0000000000000000
    Total Energy =                       -388.2787594043921899

  Mulliken Charges: (a.u.)
   Center  Symbol    Alpha    Beta     Spin     Total
       1     H     0.28019  0.28019  0.00000  0.43963
       2     O     4.37559  4.37559  0.00000 -0.75118
       3     C     2.97855  2.97855  0.00000  0.04291
       4     C     3.18705  3.18705  0.00000 -0.37411
       5     H     0.42558  0.42558  0.00000  0.14884
       6     H     0.42178  0.42178  0.00000  0.15644
       7     C     3.15335  3.15335  0.00000 -0.30670
       8     H     0.42371  0.42371  0.00000  0.15258
       9     H     0.41759  0.41759  0.00000  0.16482
      10     C     3.15287  3.15287  0.00000 -0.30573
      11     H     0.42025  0.42025  0.00000  0.15950
      12     H     0.42047  0.42047  0.00000  0.15905
      13     C     3.15310  3.15310  0.00000 -0.30619
      14     H     0.42456  0.42456  0.00000  0.15087
      15     H     0.42187  0.42187  0.00000  0.15626
      16     C     3.15343  3.15343  0.00000 -0.30686
      17     H     0.42144  0.42144  0.00000  0.15712
      18     H     0.42312  0.42312  0.00000  0.15376
      19     C     3.15120  3.15120  0.00000 -0.30240
      20     H     0.42528  0.42528  0.00000  0.14944
      21     H     0.42116  0.42116  0.00000  0.15768
      22     C     3.23934  3.23934  0.00000 -0.47868
      23     H     0.42320  0.42320  0.00000  0.15359
      24     H     0.42264  0.42264  0.00000  0.15471
      25     H     0.42210  0.42210  0.00000  0.15581
      26     H     0.41918  0.41918  0.00000  0.16164
      27     H     0.42139  0.42139  0.00000  0.15722

   Total alpha = 37.00000, Total beta = 37.00000, Total charge = -0.00000
