  ==> Input File <==

--------------------------------------------------------------------------
set {
	reference rhf
	basis 6-31G*
}

set_num_threads( 4 )
memory 2 gb

molecule MOL {
0 1

H	 -1.395148	 -1.279591	 0.432354
O	 -1.422729	 -0.573567	 -0.196946
C	 -0.731407	 0.539437	 0.309156
C	 0.680193	 0.672443	 -0.251532
H	 -1.319765	 1.404033	 0.030086
H	 -0.700012	 0.506517	 1.397677
C	 1.599139	 -0.492137	 0.118598
H	 0.616402	 0.758534	 -1.332349
H	 1.107032	 1.602637	 0.117369
H	 1.239738	 -1.428634	 -0.297334
H	 2.601428	 -0.335055	 -0.265730
H	 1.674954	 -0.608418	 1.197020

	symmetry c1
}
set optking {
	frozen_dihedral = ("
		1 2 3 4
	")
}

ee = optimize('scf')
oeprop('DIPOLE', 'QUADRUPOLE', 'MULLIKEN_CHARGES')
f=open( 'psi4out.xyz', 'w' )
f.write( "12  " )
f.write( str(ee) + "\n" )
f.write( MOL.save_string_xyz() )
f.close()
--------------------------------------------------------------------------

    Molecular point group: c1
  Charge       = 0
  Multiplicity = 1
  Basis Set: 6-31G*
  Basis Set:
  @DF-RHF Final Energy:  -193.10909144359849
    Total Energy =                       -193.1090914435985155
    Molecular point group: c1
  Basis Set: 6-31G*
  Basis Set:
  Basis Set: 6-31G*
  Basis Set:
  @DF-RHF Final Energy:  -193.10922979633506
    Total Energy =                       -193.1092297963350575
  Basis Set: 6-31G*
  Basis Set:
  Basis Set: 6-31G*
  Basis Set:
  @DF-RHF Final Energy:  -193.10927336035346
    Total Energy =                       -193.1092733603534839
  Basis Set: 6-31G*
  Basis Set:
  Basis Set: 6-31G*
  Basis Set:
  @DF-RHF Final Energy:  -193.10927597426613
    Total Energy =                       -193.1092759742661258
  Basis Set: 6-31G*
  Basis Set:
  Basis Set: 6-31G*
  Basis Set:
  @DF-RHF Final Energy:  -193.10927773444621
    Total Energy =                       -193.1092777344461524
  Basis Set: 6-31G*
  Basis Set:
  Charge       = 0
  Multiplicity = 1
  Basis Set: 6-31G*
  Basis Set:

    Orbital Energies (a.u.)
    -----------------------

    Doubly Occupied:

       1A    -20.552871     2A    -11.268498     3A    -11.215225
       4A    -11.211286     5A     -1.359171     6A     -1.048506
       7A     -0.923955     8A     -0.804083     9A     -0.702448
      10A     -0.635406    11A     -0.596201    12A     -0.585980
      13A     -0.526008    14A     -0.512975    15A     -0.489843
      16A     -0.468092    17A     -0.428318

  @DF-RHF Final Energy:  -193.10927775513122

   => Energetics <=

    Nuclear Repulsion Energy =            133.0837134698483339
    One-Electron Energy =                -525.7282477864627026
    Two-Electron Energy =                 199.5352565614830951
    DFT Exchange-Correlation Energy =       0.0000000000000000
    Empirical Dispersion Energy =           0.0000000000000000
    PCM Polarization Energy =               0.0000000000000000
    EFP Energy =                            0.0000000000000000
    Total Energy =                       -193.1092777551312452
    Molecular point group: c1
  Basis Set: 6-31G*
  Basis Set:

  -Total Gradient:
     Atom            X                  Y                   Z
    ------   -----------------  -----------------  -----------------
       1       -0.001026517198     0.000378142442     0.000490336929
       2        0.001173380608    -0.000296810599    -0.000828633660
       3        0.000121853628    -0.000496934668     0.000903955909
       4       -0.000269337873     0.000416207176    -0.000565639642
       5        0.000006096529     0.000004156524    -0.000001612200
       6        0.000002659233     0.000001603551     0.000004747815
       7        0.000002154627     0.000008201897     0.000007103953
       8       -0.000002849699    -0.000000144791    -0.000002646874
       9       -0.000006292932    -0.000008367976     0.000001936766
      10        0.000001390887    -0.000003324242    -0.000005573253
      11        0.000002537260    -0.000002322593    -0.000000335480
      12       -0.000005075071    -0.000000406720    -0.000003640262

  **** Optimization is complete! (in 6 steps) ****
    Final optimized geometry and variables:
    Molecular point group: c1

    Geometry (in Angstrom), charge = 0, multiplicity = 1:

    H           -1.370212929460    -1.295115692214     0.402293623103
    O           -1.398416683401    -0.580641743106    -0.215433845917
    C           -0.729344998435     0.541103469699     0.310130452517
    C            0.680391790852     0.674953060211    -0.250615847956
    H           -1.314153729325     1.413116877706     0.041202104887
    H           -0.700024099508     0.495930747683     1.397037645812
    C            1.592428902910    -0.492862127816     0.121251833431
    H            0.611945301405     0.755935402614    -1.331510501005
    H            1.107650045400     1.607980981859     0.111482122222
    H            1.201088351786    -1.427803721300    -0.265208650137
    H            2.588089323041    -0.358310125561    -0.288736287266
    H            1.691604626516    -0.587480497109     1.200176404643

  Mulliken Charges: (a.u.)
   Center  Symbol    Alpha    Beta     Spin     Total
       1     H     0.27952  0.27952  0.00000  0.44096
       2     O     4.37108  4.37108  0.00000 -0.74217
       3     C     2.99973  2.99973  0.00000  0.00053
       4     C     3.15612  3.15612  0.00000 -0.31224
       5     H     0.41693  0.41693  0.00000  0.16615
       6     H     0.43211  0.43211  0.00000  0.13579
       7     C     3.24721  3.24721  0.00000 -0.49442
       8     H     0.41428  0.41428  0.00000  0.17145
       9     H     0.42496  0.42496  0.00000  0.15007
      10     H     0.41584  0.41584  0.00000  0.16831
      11     H     0.41654  0.41654  0.00000  0.16692
      12     H     0.42567  0.42567  0.00000  0.14866

   Total alpha = 17.00000, Total beta = 17.00000, Total charge = -0.00000
