                              Psi4 1.0.54 Driver

  ==> Input File <==

--------------------------------------------------------------------------
set {
	reference rhf
	basis cc-pvtz
}

set_num_threads( 4 )
memory 2 gb

molecule MOL {
0 1

H	 1.940381	 -1.195910	 -0.178850
C	 1.948180	 -0.217873	 0.320185
C	 0.692262	 0.592428	 0.156232
O	 2.901651	 0.128648	 0.927186
C	 -0.554654	 -0.292621	 0.086567
H	 0.791858	 1.203694	 -0.731051
H	 0.617379	 1.254358	 1.016534
C	 -1.846385	 0.513195	 -0.016346
H	 -0.473986	 -0.956115	 -0.769708
H	 -0.597929	 -0.929215	 0.966651
C	 -3.089953	 -0.365049	 -0.098564
H	 -1.798267	 1.154820	 -0.891143
H	 -1.925398	 1.173265	 0.842889
H	 -3.055079	 -1.012299	 -0.968245
H	 -3.988403	 0.236438	 -0.170014
H	 -3.183055	 -0.995885	 0.779079

	symmetry c1
}
set optking {
	frozen_dihedral = ("
		4 2 3 6
	")
}

ee,wfn = optimize('scf', return_wfn=True)
oeprop( wfn, 'DIPOLE', 'QUADRUPOLE', 'MULLIKEN_CHARGES')
f=open( 'psi4out.xyz', 'w' )
f.write( "16  " )
f.write( str(ee) + "\n" )
f.write( MOL.save_string_xyz() )
f.close()
--------------------------------------------------------------------------

    Molecular point group: c1
  Charge       = 0
  Multiplicity = 1
  Basis Set: CC-PVTZ
  Basis Set:
  @DF-RHF Final Energy:  -270.11817738346463
    Total Energy =                       -270.1181773834647402
    Molecular point group: c1
  Basis Set: CC-PVTZ
  Basis Set:
  Basis Set: CC-PVTZ
  Basis Set:
  @DF-RHF Final Energy:  -270.11845877346718
    Total Energy =                       -270.1184587734672391
  Basis Set: CC-PVTZ
  Basis Set:
  Basis Set: CC-PVTZ
  Basis Set:
  @DF-RHF Final Energy:  -270.11763984160018
    Total Energy =                       -270.1176398416002939
  Basis Set: CC-PVTZ
  Basis Set:
  Basis Set: CC-PVTZ
  Basis Set:
  @DF-RHF Final Energy:  -270.11863912786401
    Total Energy =                       -270.1186391278637302
  Basis Set: CC-PVTZ
  Basis Set:
  Basis Set: CC-PVTZ
  Basis Set:
  @DF-RHF Final Energy:  -270.11865156813627
    Total Energy =                       -270.1186515681363858
  Basis Set: CC-PVTZ
  Basis Set:
  Basis Set: CC-PVTZ
  Basis Set:
  @DF-RHF Final Energy:  -270.11865783274777
    Total Energy =                       -270.1186578327479424
  Basis Set: CC-PVTZ
  Basis Set:
  Basis Set: CC-PVTZ
  Basis Set:
  @DF-RHF Final Energy:  -270.11865976123534
    Total Energy =                       -270.1186597612352784
  Basis Set: CC-PVTZ
  Basis Set:
  Charge       = 0
  Multiplicity = 1
  Basis Set: CC-PVTZ
  Basis Set:

    Orbital Energies (a.u.)
    -----------------------

    Doubly Occupied:

       1A    -20.551601     2A    -11.321988     3A    -11.234441
       4A    -11.233230     5A    -11.227556     6A    -11.216924
       7A     -1.406941     8A     -1.098125     9A     -1.020047
      10A     -0.906363    11A     -0.812590    12A     -0.796422
      13A     -0.674565    14A     -0.653824    15A     -0.634787
      16A     -0.604134    17A     -0.588073    18A     -0.548104
      19A     -0.534630    20A     -0.503135    21A     -0.489812
      22A     -0.485777    23A     -0.479271    24A     -0.411787

  @DF-RHF Final Energy:  -270.11865979525965

   => Energetics <=

    Nuclear Repulsion Energy =            228.7367841035076310
    One-Electron Energy =                -818.8426289832214024
    Two-Electron Energy =                 319.9871850844542678
    DFT Exchange-Correlation Energy =       0.0000000000000000
    Empirical Dispersion Energy =           0.0000000000000000
    PCM Polarization Energy =               0.0000000000000000
    EFP Energy =                            0.0000000000000000
    Total Energy =                       -270.1186597952595321
    Molecular point group: c1
  Basis Set: CC-PVTZ
  Basis Set:

  -Total Gradient:
     Atom            X                  Y                   Z
    ------   -----------------  -----------------  -----------------
       1        0.000001172513    -0.000033127421    -0.000016475983
       2       -0.000432812842    -0.000532445371     0.001480729129
       3       -0.000339213326    -0.000699208890    -0.001099838858
       4        0.000366250245     0.000496512547    -0.000934929721
       5       -0.000001859278     0.000001278611    -0.000008493560
       6        0.000411422812     0.000768036822     0.000580831285
       7       -0.000001466688    -0.000002905975    -0.000011033930
       8       -0.000003922707    -0.000002095334     0.000016966577
       9       -0.000003657845    -0.000000457349     0.000007329366
      10        0.000004102075     0.000007500052    -0.000004660645
      11       -0.000003047568     0.000000943629    -0.000013597030
      12       -0.000000178003    -0.000002828027     0.000007016350
      13       -0.000000173654    -0.000002721791    -0.000001071403
      14       -0.000002018926    -0.000001964866     0.000003607331
      15        0.000003376214    -0.000003921543    -0.000003273550
      16        0.000002026987     0.000007404907    -0.000003105358

  **** Optimization is complete! (in 8 steps) ****
    Final optimized geometry and variables:
    Molecular point group: c1

    Geometry (in Angstrom), charge = 0, multiplicity = 1:

    H            1.985511191543    -1.194108235627    -0.467406218860
    C            1.960623886351    -0.234515703166     0.065563968435
    C            0.665790857290     0.530413168730    -0.030768384398
    O            2.920335870288     0.147043771545     0.640487773840
    C           -0.566032063700    -0.366773846124    -0.114129529341
    H            0.739529586148     1.149809433417    -0.922694096295
    H            0.613541820270     1.206321663795     0.813633563977
    C           -1.866260551951     0.420061475249    -0.248948522603
    H           -0.466017543115    -1.041736190751    -0.960315568804
    H           -0.616232284650    -0.993686383487     0.772503533400
    C           -3.098462519694    -0.474285860071    -0.328055075443
    H           -1.815116906618     1.045015698170    -1.136153906191
    H           -1.964125015436     1.096506790486     0.595043156551
    H           -3.045204558230    -1.140166433311    -1.182825355797
    H           -4.002905619063     0.114649691071    -0.423867013031
    H           -3.195346684689    -1.086744013622     0.561974831045

  Mulliken Charges: (a.u.)
   Center  Symbol    Alpha    Beta     Spin     Total
       1     H     0.46494  0.46494  0.00000  0.07011
       2     C     2.91108  2.91108  0.00000  0.17783
       3     C     3.07938  3.07938  0.00000 -0.15875
       4     O     4.16381  4.16381  0.00000 -0.32761
       5     C     3.10214  3.10214  0.00000 -0.20428
       6     H     0.44562  0.44562  0.00000  0.10876
       7     H     0.44021  0.44021  0.00000  0.11958
       8     C     3.08469  3.08469  0.00000 -0.16939
       9     H     0.45236  0.45236  0.00000  0.09527
      10     H     0.44831  0.44831  0.00000  0.10338
      11     C     3.14900  3.14900  0.00000 -0.29800
      12     H     0.45287  0.45287  0.00000  0.09425
      13     H     0.45091  0.45091  0.00000  0.09818
      14     H     0.45449  0.45449  0.00000  0.09103
      15     H     0.44649  0.44649  0.00000  0.10703
      16     H     0.45370  0.45370  0.00000  0.09261

   Total alpha = 24.00000, Total beta = 24.00000, Total charge = -0.00000

*** Psi4 exiting successfully. Buy a developer a beer!
