  ==> Input File <==

--------------------------------------------------------------------------
set {
	reference rhf
	basis cc-pvtz
}

set_num_threads( 4 )
memory 2 gb

molecule MOL {
0 1

H	 1.651322	 -0.822465	 0.000000
O	 0.729993	 -1.034364	 0.000000
C	 0.037305	 0.100061	 0.000000
C	 -0.661385	 0.332065	 1.306171
O	 -0.001174	 0.818134	 -0.937916
H	 -1.333977	 -0.491700	 1.507417
H	 -1.208958	 1.258906	 1.263114
H	 0.067915	 0.364306	 2.105265

	symmetry c1
}
set optking {
	frozen_dihedral = ("
		4 3 2 1
	")
}

ee = optimize('scf')
oeprop('DIPOLE', 'QUADRUPOLE', 'MULLIKEN_CHARGES')
f=open( 'psi4out.xyz', 'w' )
f.write( "8  " )
f.write( str(ee) + "\n" )
f.write( MOL.save_string_xyz() )
f.close()
--------------------------------------------------------------------------

    Molecular point group: c1
  Charge       = 0
  Multiplicity = 1
  Basis Set: CC-PVTZ
  Basis Set:
  @DF-RHF Final Energy:  -227.88626931990572
    Total Energy =                       -227.8862693199057503
    Molecular point group: c1
  Basis Set: CC-PVTZ
  Basis Set:
  Basis Set: CC-PVTZ
  Basis Set:
  @DF-RHF Final Energy:  -227.88655191009406
    Total Energy =                       -227.8865519100940560
  Basis Set: CC-PVTZ
  Basis Set:
  Basis Set: CC-PVTZ
  Basis Set:
  @DF-RHF Final Energy:  -227.88731046967931
    Total Energy =                       -227.8873104696793064
  Basis Set: CC-PVTZ
  Basis Set:
  Basis Set: CC-PVTZ
  Basis Set:
  @DF-RHF Final Energy:  -227.88746919777469
    Total Energy =                       -227.8874691977747489
  Basis Set: CC-PVTZ
  Basis Set:
  @DF-RHF Final Energy:  -227.88748897829845
    Total Energy =                       -227.8874889782984496
  Basis Set: CC-PVTZ
  Basis Set:
  @DF-RHF Final Energy:  -227.88749540281850
    Total Energy =                       -227.8874954028184732
  Basis Set: CC-PVTZ
  Basis Set:
  Basis Set: CC-PVTZ
  Basis Set:
  @DF-RHF Final Energy:  -227.88749921550911
    Total Energy =                       -227.8874992155091377
  Basis Set: CC-PVTZ
  Basis Set:
  Basis Set: CC-PVTZ
  Basis Set:
  @DF-RHF Final Energy:  -227.88749994340228
    Total Energy =                       -227.8874999434023039
  Basis Set: CC-PVTZ
  Basis Set:
  Charge       = 0
  Multiplicity = 1
  Basis Set: CC-PVTZ
  Basis Set:

    Orbital Energies (a.u.)
    -----------------------

    Doubly Occupied:

       1A    -20.590261     2A    -20.551555     3A    -11.379418
       4A    -11.240599     5A     -1.467678     6A     -1.372717
       7A     -1.025065     8A     -0.829434     9A     -0.710056
      10A     -0.677082    11A     -0.663000    12A     -0.587844
      13A     -0.580620    14A     -0.524397    15A     -0.499044
      16A     -0.453687

  @DF-RHF Final Energy:  -227.88750092671370

   => Energetics <=

    Nuclear Repulsion Energy =            122.1593517050222317
    One-Electron Energy =                -553.7887893189199531
    Two-Electron Energy =                 203.7419366871840225
    DFT Exchange-Correlation Energy =       0.0000000000000000
    Empirical Dispersion Energy =           0.0000000000000000
    PCM Polarization Energy =               0.0000000000000000
    EFP Energy =                            0.0000000000000000
    Total Energy =                       -227.8875009267136988
    Molecular point group: c1
  Basis Set: CC-PVTZ
  Basis Set:

  -Total Gradient:
     Atom            X                  Y                   Z
    ------   -----------------  -----------------  -----------------
       1       -0.000126282077    -0.000299802927     0.008381789519
       2        0.001841944706     0.001340620900    -0.009641564637
       3       -0.005675111054    -0.003450742247    -0.000493148670
       4        0.004231203378     0.002434268274     0.001860054831
       5       -0.000262079937     0.000001464092    -0.000066663231
       6        0.000000861620    -0.000001703838    -0.000015836337
       7       -0.000006892380    -0.000002166997    -0.000019994028
       8       -0.000003644256    -0.000021937256    -0.000004637445

  **** Optimization is complete! (in 9 steps) ****
    Final optimized geometry and variables:
    Molecular point group: c1

    Geometry (in Angstrom), charge = 0, multiplicity = 1:

    H            1.586079635089    -0.952729180829    -0.114219304833
    O            0.655004355589    -1.102082871040    -0.128067507495
    C           -0.026613176344     0.069566553985    -0.093542086667
    C           -0.740354994377     0.290497178477     1.207445387374
    O           -0.009857418514     0.828715309468    -0.989972035716
    H           -1.345937032470    -0.572024958290     1.452882517555
    H           -1.349368899913     1.178249802810     1.153021108454
    H            0.002434848928     0.397828738764     1.989358799166

  Mulliken Charges: (a.u.)
   Center  Symbol    Alpha    Beta     Spin     Total
       1     H     0.38211  0.38211  0.00000  0.23578
       2     O     4.17773  4.17773  0.00000 -0.35546
       3     C     2.80468  2.80468  0.00000  0.39063
       4     C     3.13583  3.13583  0.00000 -0.27167
       5     O     4.16637  4.16637  0.00000 -0.33274
       6     H     0.44328  0.44328  0.00000  0.11345
       7     H     0.43866  0.43866  0.00000  0.12269
       8     H     0.45134  0.45134  0.00000  0.09732

   Total alpha = 16.00000, Total beta = 16.00000, Total charge = -0.00000
