  ==> Input File <==

--------------------------------------------------------------------------
set {
	reference rhf
	basis cc-pvtz
}

set_num_threads( 4 )
memory 2 gb

molecule MOL {
0 1

H	 -0.419049	 -1.452104	 -0.562010
N	 -0.625934	 -0.663929	 -0.000707
C	 -1.978635	 -0.158664	 0.001017
C	 0.376272	 -0.120333	 0.725012
H	 -2.519057	 -0.493535	 -0.876362
H	 -1.938890	 0.917202	 -0.004137
H	 -2.514266	 -0.485137	 0.884506
C	 1.711838	 -0.814832	 0.574170
O	 0.230401	 0.828687	 1.437163
H	 2.037931	 -0.787108	 -0.459026
H	 2.438077	 -0.314547	 1.193330
H	 1.635138	 -1.853319	 0.874640

	symmetry c1
}
set optking {
	frozen_dihedral = ("
		4 2 3 5
	")
}

ee = optimize('scf')
oeprop('DIPOLE', 'QUADRUPOLE', 'MULLIKEN_CHARGES')
f=open( 'psi4out.xyz', 'w' )
f.write( "12  " )
f.write( str(ee) + "\n" )
f.write( MOL.save_string_xyz() )
f.close()
--------------------------------------------------------------------------

    Molecular point group: c1
  Charge       = 0
  Multiplicity = 1
  Basis Set: CC-PVTZ
  Basis Set:
  @DF-RHF Final Energy:  -247.10077468666901
    Total Energy =                       -247.1007746866690127
    Molecular point group: c1
  Basis Set: CC-PVTZ
  Basis Set:
  Basis Set: CC-PVTZ
  Basis Set:
  @DF-RHF Final Energy:  -247.10108878371349
    Total Energy =                       -247.1010887837135215
  Basis Set: CC-PVTZ
  Basis Set:
  Basis Set: CC-PVTZ
  Basis Set:
  @DF-RHF Final Energy:  -247.10087438867524
    Total Energy =                       -247.1008743886753223
  Basis Set: CC-PVTZ
  Basis Set:
  Basis Set: CC-PVTZ
  Basis Set:
  @DF-RHF Final Energy:  -247.10119792249614
    Total Energy =                       -247.1011979224959987
  Basis Set: CC-PVTZ
  Basis Set:
  @DF-RHF Final Energy:  -247.10120956639170
    Total Energy =                       -247.1012095663916170
  @DF-RHF Final Energy:  -247.10122954725648
    Total Energy =                       -247.1012295472565938
  @DF-RHF Final Energy:  -247.10123945138747
    Total Energy =                       -247.1012394513874710
  @DF-RHF Final Energy:  -247.10124336153825
    Total Energy =                       -247.1012433615382520
  @DF-RHF Final Energy:  -247.10124493709364
    Total Energy =                       -247.1012449370935542
  @DF-RHF Final Energy:  -247.10125968195155
    Total Energy =                       -247.1012596819513760
  @DF-RHF Final Energy:  -247.10126354118538
    Total Energy =                       -247.1012635411852330
  @DF-RHF Final Energy:  -247.10127853251151
    Total Energy =                       -247.1012785325114010
  @DF-RHF Final Energy:  -247.10130948338170
    Total Energy =                       -247.1013094833817831
  Basis Set: CC-PVTZ
  Basis Set:
  @DF-RHF Final Energy:  -247.10135096653983
    Total Energy =                       -247.1013509665398828
  Basis Set: CC-PVTZ
  Basis Set:
  Basis Set: CC-PVTZ
  Basis Set:
  @DF-RHF Final Energy:  -247.10137023356370
    Total Energy =                       -247.1013702335635003
  Basis Set: CC-PVTZ
  Basis Set:
  Basis Set: CC-PVTZ
  Basis Set:
  @DF-RHF Final Energy:  -247.10137408132329
    Total Energy =                       -247.1013740813233994
  Basis Set: CC-PVTZ
  Basis Set:
  Charge       = 0
  Multiplicity = 1
  Basis Set: CC-PVTZ
  Basis Set:

    Orbital Energies (a.u.)
    -----------------------

    Doubly Occupied:

       1A    -20.506119     2A    -15.575600     3A    -11.335754
       4A    -11.253603     5A    -11.228336     6A     -1.388458
       7A     -1.231142     8A     -1.016382     9A     -0.933432
      10A     -0.789095    11A     -0.690723    12A     -0.651635
      13A     -0.635962    14A     -0.585923    15A     -0.582925
      16A     -0.556265    17A     -0.547014    18A     -0.507520
      19A     -0.417510    20A     -0.390666

  @DF-RHF Final Energy:  -247.10137482127388

   => Energetics <=

    Nuclear Repulsion Energy =            181.8214445410598330
    One-Electron Energy =                -696.1975137095053014
    Two-Electron Energy =                 267.2746943471714758
    DFT Exchange-Correlation Energy =       0.0000000000000000
    Empirical Dispersion Energy =           0.0000000000000000
    PCM Polarization Energy =               0.0000000000000000
    EFP Energy =                            0.0000000000000000
    Total Energy =                       -247.1013748212740211
    Molecular point group: c1
  Basis Set: CC-PVTZ
  Basis Set:

  -Total Gradient:
     Atom            X                  Y                   Z
    ------   -----------------  -----------------  -----------------
       1       -0.000005196497    -0.000016020772     0.000017952262
       2       -0.000048376545    -0.000170797449     0.000168269996
       3       -0.000053155616    -0.000152777297     0.000035993019
       4        0.000032284151     0.000109659731    -0.000097664381
       5        0.000055734821     0.000176962886    -0.000068749526
       6       -0.000000257805    -0.000000911222     0.000002520215
       7       -0.000002140028    -0.000004100314    -0.000004336683
       8        0.000002858288     0.000001721621     0.000017059825
       9        0.000017991337     0.000053678230    -0.000051436724
      10        0.000021530892     0.000050277588    -0.000012197797
      11       -0.000003531991    -0.000016939116     0.000037810344
      12       -0.000017741009    -0.000030753887    -0.000045220550

  **** Optimization is complete! (in 17 steps) ****
    Final optimized geometry and variables:
    Molecular point group: c1

    Geometry (in Angstrom), charge = 0, multiplicity = 1:

    H           -0.327974767309    -1.176469206344    -1.220330096076
    N           -0.526837398646    -0.399775256456    -0.641297736918
    C           -1.892682931523     0.061682998356    -0.549479713626
    C            0.442352132320     0.053049684550     0.182752809897
    H           -2.397443647816    -0.142138559886    -1.483688845210
    H           -1.902055396573     1.125145330122    -0.371139570570
    H           -2.433954994037    -0.422705752337     0.255423889063
    C            1.787476926757    -0.621297613892     0.033807234563
    O            0.253177216734     0.918293545017     0.985984289121
    H            1.989265119981    -0.914468217126    -0.988566154110
    H            2.555117751193     0.052703867847     0.379565778974
    H            1.804661947899    -1.509853118659     0.654881667644

  Mulliken Charges: (a.u.)
   Center  Symbol    Alpha    Beta     Spin     Total
       1     H     0.41146  0.41146  0.00000  0.17707
       2     N     3.61674  3.61674  0.00000 -0.23347
       3     C     3.07917  3.07917  0.00000 -0.15834
       4     C     2.83957  2.83957  0.00000  0.32086
       5     H     0.45525  0.45525  0.00000  0.08949
       6     H     0.43822  0.43822  0.00000  0.12355
       7     H     0.45682  0.45682  0.00000  0.08636
       8     C     3.14946  3.14946  0.00000 -0.29892
       9     O     4.21719  4.21719  0.00000 -0.43438
      10     H     0.45598  0.45598  0.00000  0.08804
      11     H     0.43486  0.43486  0.00000  0.13028
      12     H     0.44528  0.44528  0.00000  0.10945

   Total alpha = 20.00000, Total beta = 20.00000, Total charge = -0.00000
