  ==> Input File <==

--------------------------------------------------------------------------
set {
	reference rhf
	basis 6-31G*
}

set_num_threads( 1 )
memory 2 gb

molecule MOL {
0 1

O	 -2.042549	 -1.228399	 -0.269030
C	 -1.653912	 -0.146171	 0.050137
C	 -0.332303	 0.024011	 0.778412
C	 -2.438579	 1.106236	 -0.272369
C	 0.845713	 -0.001731	 -0.208243
H	 -0.323783	 0.953829	 1.340327
H	 -0.235459	 -0.796807	 1.480410
C	 2.175924	 0.361581	 0.453251
H	 0.653541	 0.687297	 -1.028849
H	 0.910595	 -0.994210	 -0.644037
C	 3.350547	 0.328053	 -0.523654
H	 2.101064	 1.352635	 0.895555
H	 2.367351	 -0.326556	 1.273246
H	 3.204087	 1.031551	 -1.338327
H	 3.470586	 -0.660115	 -0.957887
H	 4.280230	 0.586609	 -0.026800
H	 -3.277823	 0.863061	 -0.908988
H	 -1.806773	 1.843019	 -0.759671
H	 -2.802853	 1.554979	 0.648059

	symmetry c1
}
set optking {
	frozen_dihedral = ("
		11 8 5 9,
		5 3 2 4
	")
}

ee = energy('scf')
oeprop('DIPOLE', 'QUADRUPOLE', 'MULLIKEN_CHARGES')
f=open( 'psi4out.xyz', 'w' )
f.write( "19  " )
f.write( str(ee) + "\n" )
f.write( MOL.save_string_xyz() )
f.close()
--------------------------------------------------------------------------

    Molecular point group: c1

    Geometry (in Angstrom), charge = 0, multiplicity = 1:

       Center              X                  Y                   Z               Mass
    ------------   -----------------  -----------------  -----------------  -----------------
           O         -2.035613938207    -1.293926788808    -0.259040103940    15.994914619560
           C         -1.646976938207    -0.211698788808     0.060126896060    12.000000000000
           C         -0.325367938207    -0.041516788808     0.788401896060    12.000000000000
           C         -2.431643938207     1.040708211192    -0.262379103940    12.000000000000
           C          0.852648061793    -0.067258788808    -0.198253103940    12.000000000000
           H         -0.316847938207     0.888301211192     1.350316896060     1.007825032070
           H         -0.228523938207    -0.862334788808     1.490399896060     1.007825032070
           C          2.182859061793     0.296053211192     0.463240896060    12.000000000000
           H          0.660476061793     0.621769211192    -1.018859103940     1.007825032070
           H          0.917530061793    -1.059737788808    -0.634047103940     1.007825032070
           C          3.357482061793     0.262525211192    -0.513664103940    12.000000000000
           H          2.107999061793     1.287107211192     0.905544896060     1.007825032070
           H          2.374286061793    -0.392083788808     1.283235896060     1.007825032070
           H          3.211022061793     0.966023211192    -1.328337103940     1.007825032070
           H          3.477521061793    -0.725642788808    -0.947897103940     1.007825032070
           H          4.287165061793     0.521081211192    -0.016810103940     1.007825032070
           H         -3.270887938207     0.797533211192    -0.898998103940     1.007825032070
           H         -1.799837938207     1.777491211192    -0.749681103940     1.007825032070
           H         -2.795917938207     1.489451211192     0.658048896060     1.007825032070

  Charge       = 0
  Multiplicity = 1
  Basis Set: 6-31G*
  Basis Set:

    Orbital Energies (a.u.)
    -----------------------

    Doubly Occupied:

       1A    -20.547417     2A    -11.324593     3A    -11.230702
       4A    -11.229342     5A    -11.228402     6A    -11.225151
       7A    -11.215146     8A     -1.393181     9A     -1.091587
      10A     -1.029330    11A     -0.983969    12A     -0.890064
      13A     -0.806981    14A     -0.733428    15A     -0.662773
      16A     -0.646441    17A     -0.622321    18A     -0.613062
      19A     -0.582802    20A     -0.573348    21A     -0.552733
      22A     -0.538060    23A     -0.510586    24A     -0.501409
      25A     -0.482535    26A     -0.476399    27A     -0.466831
      28A     -0.396740

  @DF-RHF Final Energy:  -309.06482095003150

   => Energetics <=

    Nuclear Repulsion Energy =            301.3049859404395647
    One-Electron Energy =               -1015.6288977640831490
    Two-Electron Energy =                 405.2590908736121378
    DFT Exchange-Correlation Energy =       0.0000000000000000
    Empirical Dispersion Energy =           0.0000000000000000
    PCM Polarization Energy =               0.0000000000000000
    EFP Energy =                            0.0000000000000000
    Total Energy =                       -309.0648209500314465

  Mulliken Charges: (a.u.)
   Center  Symbol    Alpha    Beta     Spin     Total
       1     O     4.26205  4.26205  0.00000 -0.52410
       2     C     2.73717  2.73717  0.00000  0.52567
       3     C     3.20050  3.20050  0.00000 -0.40100
       4     C     3.28957  3.28957  0.00000 -0.57913
       5     C     3.15997  3.15997  0.00000 -0.31995
       6     H     0.41694  0.41694  0.00000  0.16612
       7     H     0.40081  0.40081  0.00000  0.19838
       8     C     3.15218  3.15218  0.00000 -0.30436
       9     H     0.42080  0.42080  0.00000  0.15839
      10     H     0.40677  0.40677  0.00000  0.18646
      11     C     3.24030  3.24030  0.00000 -0.48059
      12     H     0.42243  0.42243  0.00000  0.15514
      13     H     0.41952  0.41952  0.00000  0.16097
      14     H     0.42100  0.42100  0.00000  0.15799
      15     H     0.41890  0.41890  0.00000  0.16220
      16     H     0.41747  0.41747  0.00000  0.16506
      17     H     0.39695  0.39695  0.00000  0.20611
      18     H     0.40996  0.40996  0.00000  0.18007
      19     H     0.40671  0.40671  0.00000  0.18658

   Total alpha = 28.00000, Total beta = 28.00000, Total charge = -0.00000
