  ==> Input File <==

--------------------------------------------------------------------------
set {
	reference rhf
	basis cc-pvtz
}

set_num_threads( 4 )
memory 2 gb

molecule MOL {
0 1

H	 -2.149496	 -2.244167	 0.000000
O	 -2.454378	 -1.354528	 0.000000
C	 -1.430628	 -0.482077	 0.000000
C	 -0.193548	 -0.947895	 -0.421091
C	 -1.573480	 0.830528	 0.397343
H	 -0.103127	 -1.971553	 -0.726012
C	 0.889563	 -0.099217	 -0.441691
H	 -2.524692	 1.204071	 0.725385
C	 -0.470790	 1.673730	 0.370604
H	 1.842451	 -0.467276	 -0.768609
C	 0.764887	 1.221371	 -0.046427
C	 -0.629278	 3.045565	 0.788047
H	 1.606095	 1.884030	 -0.061449
N	 -0.756746	 4.117687	 1.115140

	symmetry c1
}
set optking {
	frozen_dihedral = ("
		5 3 2 1
	")
}

ee = optimize('scf')
oeprop('DIPOLE', 'QUADRUPOLE', 'MULLIKEN_CHARGES')
f=open( 'psi4out.xyz', 'w' )
f.write( "14  " )
f.write( str(ee) + "\n" )
f.write( MOL.save_string_xyz() )
f.close()
--------------------------------------------------------------------------

    Molecular point group: c1
  Charge       = 0
  Multiplicity = 1
  Basis Set: CC-PVTZ
  Basis Set:
  @DF-RHF Final Energy:  -397.42994827703211
    Total Energy =                       -397.4299482770321674
    Molecular point group: c1
  Basis Set: CC-PVTZ
  Basis Set:
  Basis Set: CC-PVTZ
  Basis Set:
  @DF-RHF Final Energy:  -397.25005102178136
    Total Energy =                       -397.2500510217813599
  Basis Set: CC-PVTZ
  Basis Set:
  Basis Set: CC-PVTZ
  Basis Set:
  @DF-RHF Final Energy:  -397.36004223988607
    Total Energy =                       -397.3600422398859564
  Basis Set: CC-PVTZ
  Basis Set:
  Basis Set: CC-PVTZ
  Basis Set:
  @DF-RHF Final Energy:  -397.42303262602655
    Total Energy =                       -397.4230326260263837
  Basis Set: CC-PVTZ
  Basis Set:
  @DF-RHF Final Energy:  -397.43087978368618
    Total Energy =                       -397.4308797836861231
  @DF-RHF Final Energy:  -397.43149498367387
    Total Energy =                       -397.4314949836739288
  @DF-RHF Final Energy:  -397.43115162149343
    Total Energy =                       -397.4311516214935409
  @DF-RHF Final Energy:  -397.43184044103890
    Total Energy =                       -397.4318404410389576
  @DF-RHF Final Energy:  -397.43109032854488
    Total Energy =                       -397.4310903285447694
  @DF-RHF Final Energy:  -397.43152101634138
    Total Energy =                       -397.4315210163415486
  @DF-RHF Final Energy:  -397.43202299291971
    Total Energy =                       -397.4320229929196557
  @DF-RHF Final Energy:  -397.43209502419825
    Total Energy =                       -397.4320950241984747
  @DF-RHF Final Energy:  -397.43063888545282
    Total Energy =                       -397.4306388854524812
  @DF-RHF Final Energy:  -397.43171859417129
    Total Energy =                       -397.4317185941708885
  @DF-RHF Final Energy:  -397.43206406314846
    Total Energy =                       -397.4320640631480046
  @DF-RHF Final Energy:  -397.43191900246313
    Total Energy =                       -397.4319190024630188
  @DF-RHF Final Energy:  -397.43196308616297
    Total Energy =                       -397.4319630861629093
  @DF-RHF Final Energy:  -397.43205399139873
    Total Energy =                       -397.4320539913990160
  @DF-RHF Final Energy:  -397.43209184929418
    Total Energy =                       -397.4320918492940109
  @DF-RHF Final Energy:  -397.43206025712738
    Total Energy =                       -397.4320602571274321
  @DF-RHF Final Energy:  -397.43211690820010
    Total Energy =                       -397.4321169082004417
  @DF-RHF Final Energy:  -397.43212272248655
    Total Energy =                       -397.4321227224859285
  @DF-RHF Final Energy:  -397.43212046553367
    Total Energy =                       -397.4321204655338988
  @DF-RHF Final Energy:  -397.43211938579583
    Total Energy =                       -397.4321193857963408
  @DF-RHF Final Energy:  -397.43211757012085
    Total Energy =                       -397.4321175701212496
  @DF-RHF Final Energy:  -397.43205478087117
    Total Energy =                       -397.4320547808714537
  @DF-RHF Final Energy:  -397.43200066387567
    Total Energy =                       -397.4320006638758969
  @DF-RHF Final Energy:  -397.43211686254455
    Total Energy =                       -397.4321168625444898
  @DF-RHF Final Energy:  -397.43211955088566
    Total Energy =                       -397.4321195508853179
  @DF-RHF Final Energy:  -397.43212290382394
    Total Energy =                       -397.4321229038237107
  @DF-RHF Final Energy:  -397.43212444846512
    Total Energy =                       -397.4321244484654017
  @DF-RHF Final Energy:  -397.43212451444066
    Total Energy =                       -397.4321245144407158
  @DF-RHF Final Energy:  -397.43212288938156
    Total Energy =                       -397.4321228893817306
  @DF-RHF Final Energy:  -397.43212280396330
    Total Energy =                       -397.4321228039634661
  @DF-RHF Final Energy:  -397.43212293077625
    Total Energy =                       -397.4321229307761314
  @DF-RHF Final Energy:  -397.43212278146217
    Total Energy =                       -397.4321227814618851
  Basis Set: CC-PVTZ
  Basis Set:
  @DF-RHF Final Energy:  -397.43212271036560
    Total Energy =                       -397.4321227103655474
  Basis Set: CC-PVTZ
  Basis Set:
  Basis Set: CC-PVTZ
  Basis Set:
  @DF-RHF Final Energy:  -397.43212392637929
    Total Energy =                       -397.4321239263792904
  Basis Set: CC-PVTZ
  Basis Set:
  Basis Set: CC-PVTZ
  Basis Set:
  @DF-RHF Final Energy:  -397.43212403327954
    Total Energy =                       -397.4321240332792513
  Basis Set: CC-PVTZ
  Basis Set:
  Charge       = 0
  Multiplicity = 1
  Basis Set: CC-PVTZ
  Basis Set:

    Orbital Energies (a.u.)
    -----------------------

    Doubly Occupied:

       1A    -20.605372     2A    -15.563697     3A    -11.324093
       4A    -11.291555     5A    -11.266989     6A    -11.261971
       7A    -11.256900     8A    -11.256854     9A    -11.255784
      10A     -1.437510    11A     -1.236553    12A     -1.186739
      13A     -1.066365    14A     -1.043432    15A     -0.902203
      16A     -0.861778    17A     -0.798459    18A     -0.717746
      19A     -0.695609    20A     -0.676952    21A     -0.633367
      22A     -0.623158    23A     -0.592648    24A     -0.567521
      25A     -0.550985    26A     -0.544739    27A     -0.526733
      28A     -0.480058    29A     -0.477565    30A     -0.367344
      31A     -0.343328

  @DF-RHF Final Energy:  -397.43212406651668

   => Energetics <=

    Nuclear Repulsion Energy =            380.4375886656338821
    One-Electron Energy =               -1292.9114092017255189
    Two-Electron Energy =                 515.0416964695748447
    DFT Exchange-Correlation Energy =       0.0000000000000000
    Empirical Dispersion Energy =           0.0000000000000000
    PCM Polarization Energy =               0.0000000000000000
    EFP Energy =                            0.0000000000000000
    Total Energy =                       -397.4321240665167352
    Molecular point group: c1
  Basis Set: CC-PVTZ
  Basis Set:

  -Total Gradient:
     Atom            X                  Y                   Z
    ------   -----------------  -----------------  -----------------
       1        0.000028215725     0.000065794474     0.001783445855
       2        0.000169007293    -0.000238816084    -0.001473040945
       3       -0.000411817976     0.000511762901    -0.002065598303
       4       -0.000198269337    -0.000083010542     0.000428148734
       5        0.000107289054    -0.000430623268     0.001288795119
       6        0.000126592296    -0.000005641384    -0.000074507061
       7        0.000006263575    -0.000039030557    -0.000190568501
       8        0.000216390207    -0.000057122400    -0.000018058618
       9        0.000203991631     0.000147762302     0.000632394146
      10       -0.000045143948    -0.000085281223     0.000000391228
      11       -0.000339137156    -0.000020050006     0.000011722263
      12       -0.000045358682    -0.000153692646    -0.000608115296
      13        0.000177932114     0.000118342039     0.000022294619
      14        0.000004045201     0.000269606397     0.000262696762

    Molecular point group: c1

    Geometry (in Angstrom), charge = 0, multiplicity = 1:

    H           -1.562293483058    -3.020317428038    -0.170182906874
    O           -1.801218575194    -2.110857499873    -0.171972516413
    C           -0.712632049079    -1.318008705755    -0.202697031589
    C            0.524630579420    -1.768722369485    -0.625030342103
    C           -0.866602259936    -0.007627275080     0.210140804891
    H            0.642555605109    -2.786537722126    -0.948261236222
    C            1.605972756008    -0.908208852119    -0.640258782394
    H           -1.825536563979     0.332835311463     0.543363475368
    C            0.222791235470     0.843066689002     0.182018540300
    H            2.560975434437    -1.267804173872    -0.970271287527
    C            1.467821699200     0.403446242392    -0.240837252176
    C            0.058092286998     2.213197347490     0.604044265033
    H            2.301964109878     1.075552532757    -0.253362781139
    N           -0.066041895869     3.284127384269     0.936573856984

  Mulliken Charges: (a.u.)
   Center  Symbol    Alpha    Beta     Spin     Total
       1     H     0.38477  0.38477  0.00000  0.23046
       2     O     4.17094  4.17094  0.00000 -0.34187
       3     C     2.84435  2.84435  0.00000  0.31131
       4     C     3.12858  3.12858  0.00000 -0.25716
       5     C     3.12195  3.12195  0.00000 -0.24389
       6     H     0.42726  0.42726  0.00000  0.14548
       7     C     3.05708  3.05708  0.00000 -0.11416
       8     H     0.40914  0.40914  0.00000  0.18171
       9     C     2.92142  2.92142  0.00000  0.15716
      10     H     0.41669  0.41669  0.00000  0.16661
      11     C     3.10490  3.10490  0.00000 -0.20980
      12     C     3.02412  3.02412  0.00000 -0.04824
      13     H     0.41451  0.41451  0.00000  0.17098
      14     N     3.57429  3.57429  0.00000 -0.14858

   Total alpha = 31.00000, Total beta = 31.00000, Total charge =  0.00000
