                              Psi4 1.0.54 Driver

  ==> Input File <==

--------------------------------------------------------------------------
set {
	reference rhf
	basis cc-pvtz
}

set_num_threads( 4 )
memory 2 gb

molecule MOL {
0 1

H	 -2.266619	 1.169943	 0.000098
O	 -1.438073	 1.611259	 0.000041
C	 -0.408657	 0.734701	 0.000005
C	 0.466617	 0.799328	 -1.068231
C	 -0.225890	 -0.193233	 1.018655
H	 0.291365	 1.529204	 -1.834063
C	 1.539089	 -0.064711	 -1.133097
C	 0.860030	 -1.048802	 0.927515
C	 -1.181936	 -0.262476	 2.183723
H	 2.214428	 -0.008715	 -1.965420
C	 1.742262	 -0.995913	 -0.133090
H	 1.015122	 -1.771716	 1.706815
H	 -2.194892	 -0.486532	 1.861173
H	 -0.885847	 -1.038513	 2.874766
H	 -1.209222	 0.671049	 2.738801
H	 2.574350	 -1.671251	 -0.176878

	symmetry c1
}
set optking {
	frozen_dihedral = ("
		4 3 2 1
	")
}

ee,wfn = optimize('scf', return_wfn=True)
oeprop( wfn, 'DIPOLE', 'QUADRUPOLE', 'MULLIKEN_CHARGES')
f=open( 'psi4out.xyz', 'w' )
f.write( "16  " )
f.write( str(ee) + "\n" )
f.write( MOL.save_string_xyz() )
f.close()
--------------------------------------------------------------------------

    Molecular point group: c1
  Charge       = 0
  Multiplicity = 1
  Basis Set: CC-PVTZ
  Basis Set:
  @DF-RHF Final Energy:  -344.71636025807186
    Total Energy =                       -344.7163602580717452
    Molecular point group: c1
  Basis Set: CC-PVTZ
  Basis Set:
  Basis Set: CC-PVTZ
  Basis Set:
  @DF-RHF Final Energy:  -344.71684571859129
    Total Energy =                       -344.7168457185912871
  Basis Set: CC-PVTZ
  Basis Set:
  Basis Set: CC-PVTZ
  Basis Set:
  @DF-RHF Final Energy:  -344.71690614819062
    Total Energy =                       -344.7169061481906738
  Basis Set: CC-PVTZ
  Basis Set:
  Basis Set: CC-PVTZ
  Basis Set:
  @DF-RHF Final Energy:  -344.71691820985018
    Total Energy =                       -344.7169182098502347
  Basis Set: CC-PVTZ
  Basis Set:
  Basis Set: CC-PVTZ
  Basis Set:
  @DF-RHF Final Energy:  -344.71692070659424
    Total Energy =                       -344.7169207065940668
  Basis Set: CC-PVTZ
  Basis Set:
  Charge       = 0
  Multiplicity = 1
  Basis Set: CC-PVTZ
  Basis Set:

    Orbital Energies (a.u.)
    -----------------------

    Doubly Occupied:

       1A    -20.572682     2A    -11.284464     3A    -11.234113
       4A    -11.227125     5A    -11.226914     6A    -11.223924
       7A    -11.221675     8A    -11.221062     9A     -1.399789
      10A     -1.153707    11A     -1.049628    12A     -1.007452
      13A     -0.938763    14A     -0.829544    15A     -0.815272
      16A     -0.731084    17A     -0.675059    18A     -0.653979
      19A     -0.624867    20A     -0.596022    21A     -0.574585
      22A     -0.571645    23A     -0.550146    24A     -0.528305
      25A     -0.503735    26A     -0.488046    27A     -0.469827
      28A     -0.333334    29A     -0.319677

  @DF-RHF Final Energy:  -344.71692100233150

   => Energetics <=

    Nuclear Repulsion Energy =            350.6348389907902288
    One-Electron Energy =               -1162.6506738246966961
    Two-Electron Energy =                 467.2989138315749074
    DFT Exchange-Correlation Energy =       0.0000000000000000
    Empirical Dispersion Energy =           0.0000000000000000
    PCM Polarization Energy =               0.0000000000000000
    EFP Energy =                            0.0000000000000000
    Total Energy =                       -344.7169210023315031
    Molecular point group: c1
  Basis Set: CC-PVTZ
  Basis Set:

  -Total Gradient:
     Atom            X                  Y                   Z
    ------   -----------------  -----------------  -----------------
       1       -0.000017606074     0.000070954418    -0.001689930765
       2       -0.000342556654    -0.000429079024     0.001806442779
       3        0.001085395996     0.001115924100     0.000499605421
       4       -0.000745499312    -0.000726285218    -0.000640471907
       5        0.000012781739    -0.000013959894     0.000026270334
       6        0.000001677492    -0.000009222167     0.000008771632
       7        0.000022510791    -0.000037568378     0.000017592188
       8       -0.000047700642     0.000041085536     0.000028371714
       9       -0.000007940744    -0.000014357993    -0.000024510023
      10        0.000005746785    -0.000000661119    -0.000005157055
      11        0.000020877668     0.000009679548    -0.000040543852
      12        0.000001126506    -0.000006948979     0.000004700865
      13        0.000013406764     0.000004573040     0.000003485724
      14       -0.000003158840     0.000004385027     0.000005042559
      15        0.000009013056    -0.000008461988    -0.000000843509
      16       -0.000008074527    -0.000000056906     0.000001173892

  **** Optimization is complete! (in 6 steps) ****
    Final optimized geometry and variables:
    Molecular point group: c1

    Geometry (in Angstrom), charge = 0, multiplicity = 1:

    H           -2.356359831385     1.079221656700    -0.206503355499
    O           -1.525115919261     1.520091005724    -0.203076681102
    C           -0.497196456625     0.621968360435    -0.253800403361
    C            0.376420203827     0.690639360021    -1.318498316295
    C           -0.321388601986    -0.310459496676     0.761867305653
    H            0.204956339451     1.427105716410    -2.079006733137
    C            1.453367555108    -0.172836772044    -1.386018943570
    C            0.758550079288    -1.171636539055     0.668197401770
    C           -1.278971790462    -0.368367790105     1.923896499439
    H            2.133673337391    -0.113357118575    -2.213856485183
    C            1.644238698996    -1.109984014052    -0.392041813957
    H            0.912995347738    -1.899304811884     1.442994345649
    H           -2.271051439478    -0.681149503290     1.610957185598
    H           -0.936485769951    -1.074359320836     2.667678016759
    H           -1.380118479898     0.601986489363     2.393778247358
    H            2.475773221081    -1.786602636410    -0.435952101597

  Mulliken Charges: (a.u.)
   Center  Symbol    Alpha    Beta     Spin     Total
       1     H     0.38667  0.38667  0.00000  0.22666
       2     O     4.18733  4.18733  0.00000 -0.37467
       3     C     2.88291  2.88291  0.00000  0.23418
       4     C     3.10814  3.10814  0.00000 -0.21629
       5     C     2.99967  2.99967  0.00000  0.00066
       6     H     0.41755  0.41755  0.00000  0.16490
       7     C     3.07372  3.07372  0.00000 -0.14744
       8     C     3.09145  3.09145  0.00000 -0.18290
       9     C     3.15318  3.15318  0.00000 -0.30636
      10     H     0.42219  0.42219  0.00000  0.15562
      11     C     3.08173  3.08173  0.00000 -0.16346
      12     H     0.42489  0.42489  0.00000  0.15021
      13     H     0.45674  0.45674  0.00000  0.08651
      14     H     0.44985  0.44985  0.00000  0.10030
      15     H     0.43974  0.43974  0.00000  0.12053
      16     H     0.42423  0.42423  0.00000  0.15155

   Total alpha = 29.00000, Total beta = 29.00000, Total charge = -0.00000

*** Psi4 exiting successfully. Buy a developer a beer!
