  ==> Input File <==

--------------------------------------------------------------------------
set {
	reference rhf
	basis 6-31G*
}

set_num_threads( 4 )
memory 2 gb

molecule MOL {
0 1

O	 0.749854	 1.307668	 -0.000040
C	 0.576249	 0.131685	 -0.000108
C	 -0.766779	 -0.556801	 -0.000461
O	 1.568443	 -0.749345	 -0.000005
C	 -1.945214	 0.412366	 0.000161
H	 -0.796911	 -1.211249	 -0.867467
H	 -0.796854	 -1.212390	 0.865687
C	 -3.287791	 -0.317055	 0.000105
H	 -1.876087	 1.060580	 -0.866812
H	 -1.875822	 1.059691	 0.867761
H	 -3.394745	 -0.949193	 -0.877058
H	 -4.111778	 0.388953	 0.000015
H	 -3.394954	 -0.949187	 0.877259
C	 1.762292	 -1.498815	 1.185712
H	 1.980792	 -0.844461	 2.017349
H	 2.601316	 -2.148229	 0.990352
H	 0.882223	 -2.082435	 1.414571

	symmetry c1
}
set optking {
	frozen_dihedral = ("
		14 4 2 1
	")
}

ee = optimize('scf')
oeprop('DIPOLE', 'QUADRUPOLE', 'MULLIKEN_CHARGES')
f=open( 'psi4out.xyz', 'w' )
f.write( "17  " )
f.write( str(ee) + "\n" )
f.write( MOL.save_string_xyz() )
f.close()
--------------------------------------------------------------------------

    Molecular point group: c1
  Charge       = 0
  Multiplicity = 1
  Basis Set: 6-31G*
  Basis Set:
  @DF-RHF Final Energy:  -344.88249594120867
    Total Energy =                       -344.8824959412082762
    Molecular point group: c1
  Basis Set: 6-31G*
  Basis Set:
  Basis Set: 6-31G*
  Basis Set:
  @DF-RHF Final Energy:  -344.88152796818747
    Total Energy =                       -344.8815279681875268
  Basis Set: 6-31G*
  Basis Set:
  Basis Set: 6-31G*
  Basis Set:
  @DF-RHF Final Energy:  -344.88442593957586
    Total Energy =                       -344.8844259395755216
  Basis Set: 6-31G*
  Basis Set:
  Basis Set: 6-31G*
  Basis Set:
  @DF-RHF Final Energy:  -344.88564731283486
    Total Energy =                       -344.8856473128345783
  Basis Set: 6-31G*
  Basis Set:
  Basis Set: 6-31G*
  Basis Set:
  @DF-RHF Final Energy:  -344.88570796528086
    Total Energy =                       -344.8857079652810853
  Basis Set: 6-31G*
  Basis Set:
  Basis Set: 6-31G*
  Basis Set:
  @DF-RHF Final Energy:  -344.88572062015908
    Total Energy =                       -344.8857206201592476
  Basis Set: 6-31G*
  Basis Set:
  Basis Set: 6-31G*
  Basis Set:
  @DF-RHF Final Energy:  -344.88572163291178
    Total Energy =                       -344.8857216329118955
  Basis Set: 6-31G*
  Basis Set:
  Charge       = 0
  Multiplicity = 1
  Basis Set: 6-31G*
  Basis Set:

    Orbital Energies (a.u.)
    -----------------------

    Doubly Occupied:

       1A    -20.587393     2A    -20.555830     3A    -11.375412
       4A    -11.294112     5A    -11.241836     6A    -11.225575
       7A    -11.217760     8A     -1.458970     9A     -1.368040
      10A     -1.081602    11A     -0.989590    12A     -0.958205
      13A     -0.835975    14A     -0.765724    15A     -0.699998
      16A     -0.677814    17A     -0.675783    18A     -0.638170
      19A     -0.616553    20A     -0.579633    21A     -0.566486
      22A     -0.544136    23A     -0.518441    24A     -0.494069
      25A     -0.490053    26A     -0.482223    27A     -0.454771
      28A     -0.435275

  @DF-RHF Final Energy:  -344.88572179864912

   => Energetics <=

    Nuclear Repulsion Energy =            312.6793463106265563
    One-Electron Energy =               -1089.4712775966527261
    Two-Electron Energy =                 431.9062094873771684
    DFT Exchange-Correlation Energy =       0.0000000000000000
    Empirical Dispersion Energy =           0.0000000000000000
    PCM Polarization Energy =               0.0000000000000000
    EFP Energy =                            0.0000000000000000
    Total Energy =                       -344.8857217986490014
    Molecular point group: c1
  Basis Set: 6-31G*
  Basis Set:

  -Total Gradient:
     Atom            X                  Y                   Z
    ------   -----------------  -----------------  -----------------
       1        0.000052203670    -0.000023969206     0.000598717770
       2        0.000029708046     0.000246729882    -0.000767553048
       3        0.000006384839    -0.000000761776     0.000042423954
       4       -0.000380051229    -0.000605428283     0.000019033760
       5        0.000007397524    -0.000012430680    -0.000030807551
       6        0.000001302381    -0.000002337322    -0.000013280401
       7        0.000002991260    -0.000002629616    -0.000024598686
       8       -0.000009474669     0.000006306737     0.000014687954
       9        0.000001360155    -0.000004484998     0.000004968791
      10       -0.000005878871     0.000009444587     0.000001653863
      11       -0.000001656052     0.000005829046    -0.000002830070
      12       -0.000005932502    -0.000002305816     0.000005904659
      13        0.000002383263    -0.000004860448    -0.000005594666
      14        0.000288114834     0.000408635962     0.000139961434
      15        0.000001919657    -0.000012352911     0.000010023404
      16        0.000007182048    -0.000006187639     0.000004710537
      17        0.000002045637     0.000000802476     0.000002578295

  **** Optimization is complete! (in 8 steps) ****
    Final optimized geometry and variables:
    Molecular point group: c1

    Geometry (in Angstrom), charge = 0, multiplicity = 1:

    O            0.900259724619     1.462730842113    -0.158185728622
    C            0.721205338849     0.295338435197    -0.139315706745
    C           -0.642086437382    -0.359614080165    -0.148603968012
    O            1.763761710513    -0.565055232052    -0.177533891117
    C           -1.797424196957     0.635580737644    -0.213570175668
    H           -0.661765215133    -1.041075525910    -0.995487952327
    H           -0.731922983061    -0.986300620775     0.735364393330
    C           -3.156619226768    -0.062054147474    -0.231467505113
    H           -1.686208005601     1.253026170082    -1.098087323494
    H           -1.737550727866     1.308946293082     0.634678266633
    H           -3.253355393959    -0.718504048879    -1.091706370171
    H           -3.962592052236     0.662812114924    -0.277998226416
    H           -3.305585088564    -0.663496300303     0.661203012942
    C            2.066847907417    -1.310431695986     0.980617259511
    H            2.206489509417    -0.655895501358     1.833200458011
    H            2.991420333069    -1.826925339032     0.775480215447
    H            1.296403399274    -2.039828656389     1.202623468586

  Mulliken Charges: (a.u.)
   Center  Symbol    Alpha    Beta     Spin     Total
       1     O     4.25066  4.25066  0.00000 -0.50133
       2     C     2.61266  2.61266  0.00000  0.77468
       3     C     3.21727  3.21727  0.00000 -0.43453
       4     O     4.31356  4.31356  0.00000 -0.62711
       5     C     3.15106  3.15106  0.00000 -0.30212
       6     H     0.39919  0.39919  0.00000  0.20162
       7     H     0.40775  0.40775  0.00000  0.18450
       8     C     3.24293  3.24293  0.00000 -0.48587
       9     H     0.40886  0.40886  0.00000  0.18229
      10     H     0.41083  0.41083  0.00000  0.17834
      11     H     0.42074  0.42074  0.00000  0.15852
      12     H     0.41418  0.41418  0.00000  0.17164
      13     H     0.42238  0.42238  0.00000  0.15523
      14     C     3.09281  3.09281  0.00000 -0.18563
      15     H     0.41327  0.41327  0.00000  0.17345
      16     H     0.40084  0.40084  0.00000  0.19833
      17     H     0.42101  0.42101  0.00000  0.15798

   Total alpha = 28.00000, Total beta = 28.00000, Total charge =  0.00000
