  ==> Input File <==

--------------------------------------------------------------------------
set {
	reference rhf
	basis cc-pvtz
}

set_num_threads( 4 )
memory 2 gb

molecule MOL {
0 1

H	 2.144945	 -1.159189	 -0.794566
C	 1.395113	 -1.282443	 -0.021443
N	 0.526300	 -0.128137	 0.000000
H	 1.911722	 -1.370861	 0.925836
H	 0.872173	 -2.221499	 -0.214526
C	 -0.247113	 0.037112	 -1.209233
H	 -0.081523	 -0.174647	 0.788700
H	 -0.996493	 -0.743733	 -1.271440
H	 0.397975	 -0.057351	 -2.073512
H	 -0.763794	 0.997171	 -1.271673

	symmetry c1
}
set optking {
	frozen_dihedral = ("
		2 3 6 8
	")
}

ee = optimize('scf')
oeprop('DIPOLE', 'QUADRUPOLE', 'MULLIKEN_CHARGES')
f=open( 'psi4out.xyz', 'w' )
f.write( "10  " )
f.write( str(ee) + "\n" )
f.write( MOL.save_string_xyz() )
f.close()
--------------------------------------------------------------------------

    Molecular point group: c1
  Charge       = 0
  Multiplicity = 1
  Basis Set: CC-PVTZ
  Basis Set:
  @DF-RHF Final Energy:  -134.29127012776195
    Total Energy =                       -134.2912701277620329
    Molecular point group: c1
  Basis Set: CC-PVTZ
  Basis Set:
  Basis Set: CC-PVTZ
  Basis Set:
  @DF-RHF Final Energy:  -134.29235148706167
    Total Energy =                       -134.2923514870616373
  Basis Set: CC-PVTZ
  Basis Set:
  Basis Set: CC-PVTZ
  Basis Set:
  @DF-RHF Final Energy:  -134.29248932024109
    Total Energy =                       -134.2924893202410317
  Basis Set: CC-PVTZ
  Basis Set:
  Basis Set: CC-PVTZ
  Basis Set:
  @DF-RHF Final Energy:  -134.29249174560186
    Total Energy =                       -134.2924917456019216
  Basis Set: CC-PVTZ
  Basis Set:
  Charge       = 0
  Multiplicity = 1
  Basis Set: CC-PVTZ
  Basis Set:

    Orbital Energies (a.u.)
    -----------------------

    Doubly Occupied:

       1A    -15.531547     2A    -11.234238     3A    -11.234114
       4A     -1.199968     5A     -0.948236     6A     -0.854912
       7A     -0.663169     8A     -0.611074     9A     -0.591800
      10A     -0.540294    11A     -0.512554    12A     -0.507277
      13A     -0.361945

  @DF-RHF Final Energy:  -134.29249206115338

   => Energetics <=

    Nuclear Repulsion Energy =             84.7074203735949709
    One-Electron Energy =                -348.4175728166246131
    Two-Electron Energy =                 129.4176603818762032
    DFT Exchange-Correlation Energy =       0.0000000000000000
    Empirical Dispersion Energy =           0.0000000000000000
    PCM Polarization Energy =               0.0000000000000000
    EFP Energy =                            0.0000000000000000
    Total Energy =                       -134.2924920611534390
    Molecular point group: c1
  Basis Set: CC-PVTZ
  Basis Set:

  -Total Gradient:
     Atom            X                  Y                   Z
    ------   -----------------  -----------------  -----------------
       1       -0.000014745887     0.000017591978     0.000001098809
       2        0.001393895532     0.000991444124    -0.000771497462
       3       -0.002399775460    -0.001013460025     0.001470478088
       4       -0.000008173191     0.000015679478     0.000001903764
       5       -0.000006317911     0.000022070192     0.000003914195
       6        0.002633346089    -0.001498427023    -0.001978127950
       7       -0.000001493088    -0.000013314372    -0.000003011911
       8       -0.001596244517     0.001473778326     0.001242376639
       9        0.000001656949    -0.000002827133     0.000027568223
      10       -0.000002148515     0.000007464455     0.000005297604

  **** Optimization is complete! (in 5 steps) ****
    Final optimized geometry and variables:
    Molecular point group: c1

    Geometry (in Angstrom), charge = 0, multiplicity = 1:

    H            1.601387642477    -0.684253568401    -0.373589109743
    C            0.853804539755    -0.800084159790     0.402399196510
    N           -0.019826504158     0.350407929086     0.407826674228
    H            1.372319869697    -0.869751773997     1.350283282903
    H            0.337983922018    -1.746845266014     0.227390873346
    C           -0.803498056385     0.500370100934    -0.797106336140
    H           -0.613948336761     0.333220753868     1.207568090656
    H           -1.581893284311    -0.255942045281    -0.914293496144
    H           -0.152898245286     0.453361277992    -1.661671925107
    H           -1.286465853635     1.470164071210    -0.802464084592

  Mulliken Charges: (a.u.)
   Center  Symbol    Alpha    Beta     Spin     Total
       1     H     0.45678  0.45678  0.00000  0.08644
       2     C     3.08019  3.08019  0.00000 -0.16039
       3     N     3.63054  3.63054  0.00000 -0.26108
       4     H     0.45262  0.45262  0.00000  0.09476
       5     H     0.47583  0.47583  0.00000  0.04833
       6     C     3.08210  3.08210  0.00000 -0.16420
       7     H     0.43997  0.43997  0.00000  0.12005
       8     H     0.47212  0.47212  0.00000  0.05576
       9     H     0.45768  0.45768  0.00000  0.08464
      10     H     0.45216  0.45216  0.00000  0.09568

   Total alpha = 13.00000, Total beta = 13.00000, Total charge =  0.00000
