  ==> Input File <==

--------------------------------------------------------------------------
set {
	reference rhf
	basis 6-31G*
}

set_num_threads( 1 )
memory 2 gb

molecule MOL {
0 1

H	 -1.280471	 0.862152	 0.874220
C	 -0.790252	 0.431209	 0.000000
N	 0.538815	 0.649616	 0.000000
O	 -1.401205	 -0.160675	 -0.840011
C	 1.521968	 -0.411503	 0.000000
H	 0.852804	 1.592852	 0.000000
H	 2.150599	 -0.357004	 -0.881901
H	 0.999455	 -1.354525	 0.000000
H	 2.150599	 -0.357004	 0.881901

	symmetry c1
}
set optking {
	frozen_dihedral = ("
		6 3 5 7
	")
}

ee = energy('scf')
oeprop('DIPOLE', 'QUADRUPOLE', 'MULLIKEN_CHARGES')
f=open( 'psi4out.xyz', 'w' )
f.write( "9  " )
f.write( str(ee) + "\n" )
f.write( MOL.save_string_xyz() )
f.close()
--------------------------------------------------------------------------

    Molecular point group: c1

    Geometry (in Angstrom), charge = 0, multiplicity = 1:

       Center              X                  Y                   Z               Mass
    ------------   -----------------  -----------------  -----------------  -----------------
           H         -1.260561850102     0.740997615823     1.086880183063     1.007825032070
           C         -0.770342850102     0.310054615823     0.212660183063    12.000000000000
           N          0.558724149898     0.528461615823     0.212660183063    14.003074004780
           O         -1.381295850102    -0.281829384177    -0.627350816937    15.994914619560
           C          1.541877149898    -0.532657384177     0.212660183063    12.000000000000
           H          0.872713149898     1.471697615823     0.212660183063     1.007825032070
           H          2.170508149898    -0.478158384177    -0.669240816937     1.007825032070
           H          1.019364149898    -1.475679384177     0.212660183063     1.007825032070
           H          2.170508149898    -0.478158384177     1.094561183063     1.007825032070

  Charge       = 0
  Multiplicity = 1
  Basis Set: 6-31G*
  Basis Set:

    Orbital Energies (a.u.)
    -----------------------

    Doubly Occupied:

       1A    -20.550382     2A    -15.563087     3A    -11.347487
       4A    -11.263455     5A     -1.400072     6A     -1.228677
       7A     -0.962039     8A     -0.813361     9A     -0.732428
      10A     -0.650529    11A     -0.641255    12A     -0.596162
      13A     -0.560237    14A     -0.515179    15A     -0.435114
      16A     -0.380308

  @DF-RHF Final Energy:  -207.92884679218821

   => Energetics <=

    Nuclear Repulsion Energy =            121.6633065358612811
    One-Electron Energy =                -523.9047724759525408
    Two-Electron Energy =                 194.3126191479028648
    DFT Exchange-Correlation Energy =       0.0000000000000000
    Empirical Dispersion Energy =           0.0000000000000000
    PCM Polarization Energy =               0.0000000000000000
    EFP Energy =                            0.0000000000000000
    Total Energy =                       -207.9288467921883807

  Mulliken Charges: (a.u.)
   Center  Symbol    Alpha    Beta     Spin     Total
       1     H     0.43037  0.43037  0.00000  0.13925
       2     C     2.76006  2.76006  0.00000  0.47988
       3     N     3.88992  3.88992  0.00000 -0.77983
       4     O     4.24369  4.24369  0.00000 -0.48738
       5     C     3.13377  3.13377  0.00000 -0.26754
       6     H     0.30907  0.30907  0.00000  0.38186
       7     H     0.41355  0.41355  0.00000  0.17290
       8     H     0.40278  0.40278  0.00000  0.19443
       9     H     0.41679  0.41679  0.00000  0.16641

   Total alpha = 16.00000, Total beta = 16.00000, Total charge =  0.00000
