  ==> Input File <==

--------------------------------------------------------------------------
set {
	reference rhf
	basis 6-31G*
}

set_num_threads( 4 )
memory 2 gb

molecule MOL {
0 1

H	 2.176868	 -0.646004	 -0.217325
O	 1.337496	 -0.537251	 0.205931
C	 0.702312	 0.627605	 -0.264544
C	 -0.714990	 0.596302	 0.266387
H	 0.682322	 0.642550	 -1.350929
H	 1.215941	 1.520383	 0.085680
O	 -1.405996	 -0.526611	 -0.195820
H	 -1.257453	 1.468809	 -0.075599
H	 -0.688972	 0.618407	 1.353696
H	 -2.158255	 -0.220999	 -0.686453

	symmetry c1
}
set optking {
	frozen_dihedral = ("
		10 7 4 3
	")
}

ee = optimize('scf')
oeprop('DIPOLE', 'QUADRUPOLE', 'MULLIKEN_CHARGES')
f=open( 'psi4out.xyz', 'w' )
f.write( "10  " )
f.write( str(ee) + "\n" )
f.write( MOL.save_string_xyz() )
f.close()
--------------------------------------------------------------------------

    Molecular point group: c1
  Charge       = 0
  Multiplicity = 1
  Basis Set: 6-31G*
  Basis Set:
  @DF-RHF Final Energy:  -228.91509098590319
    Total Energy =                       -228.9150909859031060
    Molecular point group: c1
  Basis Set: 6-31G*
  Basis Set:
  Basis Set: 6-31G*
  Basis Set:
  @DF-RHF Final Energy:  -228.91672445700954
    Total Energy =                       -228.9167244570094795
  Basis Set: 6-31G*
  Basis Set:
  Basis Set: 6-31G*
  Basis Set:
  @DF-RHF Final Energy:  -228.91693150259169
    Total Energy =                       -228.9169315025917513
  Basis Set: 6-31G*
  Basis Set:
  Basis Set: 6-31G*
  Basis Set:
  @DF-RHF Final Energy:  -228.91694986464927
    Total Energy =                       -228.9169498646493821
  Basis Set: 6-31G*
  Basis Set:
  Basis Set: 6-31G*
  Basis Set:
  @DF-RHF Final Energy:  -228.91695141002711
    Total Energy =                       -228.9169514100270533
  Basis Set: 6-31G*
  Basis Set:
  Charge       = 0
  Multiplicity = 1
  Basis Set: 6-31G*
  Basis Set:

    Orbital Energies (a.u.)
    -----------------------

    Doubly Occupied:

       1A    -20.552490     2A    -20.551613     3A    -11.270556
       4A    -11.269503     5A     -1.370049     6A     -1.350080
       7A     -1.001282     8A     -0.834757     9A     -0.721345
      10A     -0.687946    11A     -0.639122    12A     -0.593679
      13A     -0.574711    14A     -0.515222    15A     -0.492405
      16A     -0.442620    17A     -0.429099

  @DF-RHF Final Energy:  -228.91695163376829

   => Energetics <=

    Nuclear Repulsion Energy =            133.1780014623464581
    One-Electron Energy =                -577.5969488376407526
    Two-Electron Energy =                 215.5019957415259455
    DFT Exchange-Correlation Energy =       0.0000000000000000
    Empirical Dispersion Energy =           0.0000000000000000
    PCM Polarization Energy =               0.0000000000000000
    EFP Energy =                            0.0000000000000000
    Total Energy =                       -228.9169516337683490
    Molecular point group: c1
  Basis Set: 6-31G*
  Basis Set:

  -Total Gradient:
     Atom            X                  Y                   Z
    ------   -----------------  -----------------  -----------------
       1        0.000013092279    -0.000004450861     0.000008018602
       2       -0.000018955081     0.000007706800    -0.000021167729
       3        0.000042821940    -0.000043428860     0.000053975017
       4       -0.000050148436     0.000057835360    -0.000014362554
       5        0.000004177550     0.000002055473    -0.000017455345
       6       -0.000008699821    -0.000004699419    -0.000004361263
       7        0.000070211946    -0.000002035808    -0.000081940852
       8       -0.000003375962    -0.000011995476    -0.000001169437
       9        0.000001183997     0.000007823537     0.000010271323
      10       -0.000050308411    -0.000008810744     0.000068192240

  **** Optimization is complete! (in 6 steps) ****
    Final optimized geometry and variables:
    Molecular point group: c1

    Geometry (in Angstrom), charge = 0, multiplicity = 1:

    H            2.234591370909    -0.628681304746    -0.172535183695
    O            1.410199800951    -0.517220448685     0.278246725658
    C            0.714897250105     0.569254838772    -0.265299366815
    C           -0.698510392999     0.558674357675     0.275747314309
    H            0.679929593157     0.512397011985    -1.350845400058
    H            1.192448681658     1.509702044759     0.010110129907
    O           -1.428152973702    -0.528123535876    -0.232961229635
    H           -1.175750230320     1.502869241196     0.024183006326
    H           -0.659631713138     0.482758150746     1.356689500788
    H           -2.181773322648    -0.218737230939    -0.710717658944

  Mulliken Charges: (a.u.)
   Center  Symbol    Alpha    Beta     Spin     Total
       1     H     0.27983  0.27983  0.00000  0.44033
       2     O     4.36489  4.36489  0.00000 -0.72978
       3     C     2.99594  2.99594  0.00000  0.00812
       4     C     3.00330  3.00330  0.00000 -0.00660
       5     H     0.42978  0.42978  0.00000  0.14044
       6     H     0.43415  0.43415  0.00000  0.13169
       7     O     4.36663  4.36663  0.00000 -0.73327
       8     H     0.43225  0.43225  0.00000  0.13550
       9     H     0.41310  0.41310  0.00000  0.17380
      10     H     0.28012  0.28012  0.00000  0.43977

   Total alpha = 17.00000, Total beta = 17.00000, Total charge =  0.00000
