  ==> Input File <==

--------------------------------------------------------------------------
set {
	reference rhf
	basis 6-31G*
}

set_num_threads( 4 )
memory 2 gb

molecule MOL {
0 1

H	 -1.775173	 0.995369	 -0.630970
N	 -1.852125	 0.165761	 -0.074816
C	 -0.563778	 -0.502042	 0.037919
H	 -2.517188	 -0.428760	 -0.531973
C	 0.575259	 0.508231	 -0.048326
H	 -0.482092	 -1.204004	 -0.786564
H	 -0.460411	 -1.085169	 0.956626
C	 1.954651	 -0.143624	 0.035137
H	 0.475158	 1.060484	 -0.977307
H	 0.469181	 1.234488	 0.755973
H	 2.103292	 -0.853109	 -0.774172
H	 2.742821	 0.599562	 -0.030094
H	 2.083613	 -0.679371	 0.971560

	symmetry c1
}
set optking {
	frozen_dihedral = ("
		1 2 3 6
	")
}

ee = optimize('scf')
oeprop('DIPOLE', 'QUADRUPOLE', 'MULLIKEN_CHARGES')
f=open( 'psi4out.xyz', 'w' )
f.write( "13  " )
f.write( str(ee) + "\n" )
f.write( MOL.save_string_xyz() )
f.close()
--------------------------------------------------------------------------

    Molecular point group: c1
  Charge       = 0
  Multiplicity = 1
  Basis Set: 6-31G*
  Basis Set:
  @DF-RHF Final Energy:  -173.27801561022346
    Total Energy =                       -173.2780156102234059
    Molecular point group: c1
  Basis Set: 6-31G*
  Basis Set:
  Basis Set: 6-31G*
  Basis Set:
  @DF-RHF Final Energy:  -173.27992720884913
    Total Energy =                       -173.2799272088491023
  Basis Set: 6-31G*
  Basis Set:
  Basis Set: 6-31G*
  Basis Set:
  @DF-RHF Final Energy:  -173.28016915517355
    Total Energy =                       -173.2801691551736099
  Basis Set: 6-31G*
  Basis Set:
  Basis Set: 6-31G*
  Basis Set:
  @DF-RHF Final Energy:  -173.28017516711503
    Total Energy =                       -173.2801751671150043
  Basis Set: 6-31G*
  Basis Set:
  Charge       = 0
  Multiplicity = 1
  Basis Set: 6-31G*
  Basis Set:

    Orbital Energies (a.u.)
    -----------------------

    Doubly Occupied:

       1A    -15.529505     2A    -11.239434     3A    -11.217397
       4A    -11.211767     5A     -1.174435     6A     -1.037294
       7A     -0.899397     8A     -0.805187     9A     -0.649436
      10A     -0.642319    11A     -0.603855    12A     -0.559101
      13A     -0.541643    14A     -0.495124    15A     -0.477993
      16A     -0.471076    17A     -0.375833

  @DF-RHF Final Energy:  -173.28017590519079

   => Energetics <=

    Nuclear Repulsion Energy =            131.8636838679705647
    One-Electron Energy =                -494.4261289629339444
    Two-Electron Energy =                 189.2822691897725917
    DFT Exchange-Correlation Energy =       0.0000000000000000
    Empirical Dispersion Energy =           0.0000000000000000
    PCM Polarization Energy =               0.0000000000000000
    EFP Energy =                            0.0000000000000000
    Total Energy =                       -173.2801759051907879
    Molecular point group: c1
  Basis Set: 6-31G*
  Basis Set:

  -Total Gradient:
     Atom            X                  Y                   Z
    ------   -----------------  -----------------  -----------------
       1        0.000930519712     0.001833197959     0.002866251038
       2       -0.001542145016    -0.002965934385    -0.003027505838
       3        0.001886629136     0.003547888105    -0.001821166165
       4        0.000015452920     0.000002933054     0.000005460070
       5       -0.000120377220    -0.000074318323     0.000004660667
       6       -0.001259841889    -0.002315081567     0.001905614751
       7        0.000045853859    -0.000007158334     0.000037397529
       8        0.000048093481     0.000014938154     0.000044001704
       9       -0.000023394103    -0.000039957012     0.000016753784
      10        0.000005219221    -0.000002788633    -0.000030363093
      11       -0.000019950669     0.000023436270    -0.000004773276
      12        0.000033866304    -0.000008814090     0.000013064235
      13        0.000000074264    -0.000008341198    -0.000009395406

  **** Optimization is complete! (in 5 steps) ****
    Final optimized geometry and variables:
    Molecular point group: c1

    Geometry (in Angstrom), charge = 0, multiplicity = 1:

    H           -1.833721051623     0.992638148194    -0.566676877260
    N           -1.860654316261     0.161295974667    -0.010373316433
    C           -0.565846213497    -0.505838990009     0.011112686070
    H           -2.583206654132    -0.430351184525    -0.367362168597
    C            0.575728492462     0.502566577674    -0.037265749089
    H           -0.454275400732    -1.233552472028    -0.795060957572
    H           -0.493085450756    -1.074579099828     0.934835239479
    C            1.951004589868    -0.150080759325     0.091309432870
    H            0.524022107166     1.057052860017    -0.972913273465
    H            0.432385642364     1.224969105075     0.761682602348
    H            2.126337670271    -0.861014501903    -0.711120299027
    H            2.740985940527     0.592915424057     0.052216286213
    H            2.045195980033    -0.683231104903     1.032724206382

  Mulliken Charges: (a.u.)
   Center  Symbol    Alpha    Beta     Spin     Total
       1     H     0.33353  0.33353  0.00000  0.33295
       2     N     3.92945  3.92945  0.00000 -0.85891
       3     C     3.04740  3.04740  0.00000 -0.09480
       4     H     0.33163  0.33163  0.00000  0.33673
       5     C     3.16315  3.16315  0.00000 -0.32630
       6     H     0.43412  0.43412  0.00000  0.13176
       7     H     0.42125  0.42125  0.00000  0.15750
       8     C     3.24251  3.24251  0.00000 -0.48503
       9     H     0.42586  0.42586  0.00000  0.14828
      10     H     0.41325  0.41325  0.00000  0.17349
      11     H     0.42122  0.42122  0.00000  0.15755
      12     H     0.41746  0.41746  0.00000  0.16508
      13     H     0.41915  0.41915  0.00000  0.16169

   Total alpha = 17.00000, Total beta = 17.00000, Total charge =  0.00000
