  ==> Input File <==

--------------------------------------------------------------------------
set {
	reference rhf
	basis 6-31G*
}

set_num_threads( 1 )
memory 2 gb

molecule MOL {
0 1

O	 -3.182627	 0.574480	 -0.976344
C	 -2.668563	 0.129746	 -0.000350
C	 -3.294321	 0.168332	 1.370126
O	 -1.481751	 -0.454642	 0.000584
H	 -4.248537	 -0.343369	 1.331439
H	 -2.661361	 -0.290672	 2.115187
H	 -3.486758	 1.200942	 1.635764
C	 -0.334255	 0.388708	 0.000906
C	 0.891947	 -0.504646	 0.000751
H	 -0.365390	 1.025305	 -0.873475
H	 -0.365484	 1.024911	 0.875569
C	 2.191998	 0.301789	 0.000897
H	 0.855148	 -1.151283	 -0.871571
H	 0.855132	 -1.151660	 0.872805
C	 3.441114	 -0.581407	 0.000108
H	 2.215074	 0.954890	 -0.869742
H	 2.215465	 0.953923	 0.872248
C	 4.739576	 0.224112	 -0.001102
H	 3.419457	 -1.233487	 -0.870178
H	 3.420834	 -1.233096	 0.870717
H	 4.804918	 0.861552	 -0.878265
H	 5.606527	 -0.429058	 -0.001824
H	 4.806469	 0.861674	 0.875853

	symmetry c1
}
set optking {
	frozen_dihedral = ("
		13 9 8 10,
		2 4 8 10,
		16 12 9 13,
		19 15 12 16
	")
}

ee = energy('scf')
oeprop('DIPOLE', 'QUADRUPOLE', 'MULLIKEN_CHARGES')
f=open( 'psi4out.xyz', 'w' )
f.write( "23  " )
f.write( str(ee) + "\n" )
f.write( MOL.save_string_xyz() )
f.close()
--------------------------------------------------------------------------

    Molecular point group: c1

    Geometry (in Angstrom), charge = 0, multiplicity = 1:

       Center              X                  Y                   Z               Mass
    ------------   -----------------  -----------------  -----------------  -----------------
           O         -3.199604045778     0.539927957181    -1.022256191987    15.994914619560
           C         -2.685540045778     0.095193957181    -0.046262191987    12.000000000000
           C         -3.311298045778     0.133779957181     1.324213808013    12.000000000000
           O         -1.498728045778    -0.489194042819    -0.045328191987    15.994914619560
           H         -4.265514045778    -0.377921042819     1.285526808013     1.007825032070
           H         -2.678338045778    -0.325224042819     2.069274808013     1.007825032070
           H         -3.503735045778     1.166389957181     1.589851808013     1.007825032070
           C         -0.351232045778     0.354155957181    -0.045006191987    12.000000000000
           C          0.874969954222    -0.539198042819    -0.045161191987    12.000000000000
           H         -0.382367045778     0.990752957181    -0.919387191987     1.007825032070
           H         -0.382461045778     0.990358957181     0.829656808013     1.007825032070
           C          2.175020954222     0.267236957181    -0.045015191987    12.000000000000
           H          0.838170954222    -1.185835042819    -0.917483191987     1.007825032070
           H          0.838154954222    -1.186212042819     0.826892808013     1.007825032070
           C          3.424136954222    -0.615959042819    -0.045804191987    12.000000000000
           H          2.198096954222     0.920337957181    -0.915654191987     1.007825032070
           H          2.198487954222     0.919370957181     0.826335808013     1.007825032070
           C          4.722598954222     0.189559957181    -0.047014191987    12.000000000000
           H          3.402479954222    -1.268039042819    -0.916090191987     1.007825032070
           H          3.403856954222    -1.267648042819     0.824804808013     1.007825032070
           H          4.787940954222     0.826999957181    -0.924177191987     1.007825032070
           H          5.589549954222    -0.463610042819    -0.047736191987     1.007825032070
           H          4.789491954222     0.827121957181     0.829940808013     1.007825032070

  Charge       = 0
  Multiplicity = 1
  Basis Set: 6-31G*
  Basis Set:

    Orbital Energies (a.u.)
    -----------------------

    Doubly Occupied:

       1A    -20.583206     2A    -20.549637     3A    -11.374711
       4A    -11.294292     5A    -11.231868     6A    -11.228321
       7A    -11.227285     8A    -11.224085     9A    -11.214978
      10A     -1.461593    11A     -1.363788    12A     -1.096726
      13A     -1.039402    14A     -1.006131    15A     -0.936994
      16A     -0.845248    17A     -0.806477    18A     -0.776496
      19A     -0.699513    20A     -0.683866    21A     -0.655404
      22A     -0.650392    23A     -0.617126    24A     -0.591072
      25A     -0.583461    26A     -0.575151    27A     -0.558471
      28A     -0.550634    29A     -0.516872    30A     -0.502097
      31A     -0.485903    32A     -0.479492    33A     -0.474184
      34A     -0.471819    35A     -0.451167    36A     -0.432858

  @DF-RHF Final Energy:  -422.95867029309272

   => Energetics <=

    Nuclear Repulsion Energy =            449.7082957752927541
    One-Electron Energy =               -1466.8524964430393993
    Two-Electron Energy =                 594.1855303746531263
    DFT Exchange-Correlation Energy =       0.0000000000000000
    Empirical Dispersion Energy =           0.0000000000000000
    PCM Polarization Energy =               0.0000000000000000
    EFP Energy =                            0.0000000000000000
    Total Energy =                       -422.9586702930935189

  Mulliken Charges: (a.u.)
   Center  Symbol    Alpha    Beta     Spin     Total
       1     O     4.25869  4.25869  0.00000 -0.51738
       2     C     2.62386  2.62386  0.00000  0.75228
       3     C     3.29351  3.29351  0.00000 -0.58701
       4     O     4.31788  4.31788  0.00000 -0.63576
       5     H     0.39549  0.39549  0.00000  0.20902
       6     H     0.40337  0.40337  0.00000  0.19327
       7     H     0.39915  0.39915  0.00000  0.20171
       8     C     2.99644  2.99644  0.00000  0.00712
       9     C     3.16356  3.16356  0.00000 -0.32713
      10     H     0.40819  0.40819  0.00000  0.18362
      11     H     0.42242  0.42242  0.00000  0.15516
      12     C     3.16127  3.16127  0.00000 -0.32254
      13     H     0.40831  0.40831  0.00000  0.18339
      14     H     0.41339  0.41339  0.00000  0.17322
      15     C     3.15174  3.15174  0.00000 -0.30349
      16     H     0.41996  0.41996  0.00000  0.16008
      17     H     0.42245  0.42245  0.00000  0.15510
      18     C     3.23998  3.23998  0.00000 -0.47995
      19     H     0.42000  0.42000  0.00000  0.16000
      20     H     0.42121  0.42121  0.00000  0.15757
      21     H     0.42048  0.42048  0.00000  0.15904
      22     H     0.41735  0.41735  0.00000  0.16530
      23     H     0.42131  0.42131  0.00000  0.15738

   Total alpha = 36.00000, Total beta = 36.00000, Total charge =  0.00000
