                              Psi4 1.0.54 Driver

  ==> Input File <==

--------------------------------------------------------------------------
set {
	reference rhf
	basis cc-pvtz
}

set_num_threads( 4 )
memory 2 gb

molecule MOL {
0 1

H	 -1.752232	 -2.214755	 -0.011938
C	 -1.343852	 -1.221619	 -0.018179
N	 -0.058800	 -1.097635	 -0.261688
C	 -2.148159	 -0.124236	 0.219734
C	 0.449026	 0.119242	 -0.273393
H	 -3.196988	 -0.237571	 0.417076
N	 -1.655094	 1.094230	 0.209506
C	 -0.370318	 1.215445	 -0.035100
C	 1.924033	 0.265863	 -0.538106
H	 0.033214	 2.210441	 -0.046812
C	 2.774425	 0.011819	 0.707585
H	 2.199999	 -0.440131	 -1.312172
H	 2.123089	 1.259062	 -0.923003
H	 3.828467	 0.092690	 0.470117
H	 2.588946	 -0.979536	 1.099746
H	 2.549475	 0.731118	 1.487041

	symmetry c1
}
set optking {
	frozen_dihedral = ("
		12 9 5 3
	")
}

ee,wfn = optimize('scf', return_wfn=True)
oeprop( wfn, 'DIPOLE', 'QUADRUPOLE', 'MULLIKEN_CHARGES')
f=open( 'psi4out.xyz', 'w' )
f.write( "16  " )
f.write( str(ee) + "\n" )
f.write( MOL.save_string_xyz() )
f.close()
--------------------------------------------------------------------------

    Molecular point group: c1
  Charge       = 0
  Multiplicity = 1
  Basis Set: CC-PVTZ
  Basis Set:
  @DF-RHF Final Energy:  -340.87226993319359
    Total Energy =                       -340.8722699331938770
    Molecular point group: c1
  Basis Set: CC-PVTZ
  Basis Set:
  Basis Set: CC-PVTZ
  Basis Set:
  @DF-RHF Final Energy:  -340.87227777362722
    Total Energy =                       -340.8722777736272747
  Basis Set: CC-PVTZ
  Basis Set:
  Basis Set: CC-PVTZ
  Basis Set:
  @DF-RHF Final Energy:  -340.87228421396406
    Total Energy =                       -340.8722842139642353
  Basis Set: CC-PVTZ
  Basis Set:
  Basis Set: CC-PVTZ
  Basis Set:
  @DF-RHF Final Energy:  -340.87228634661255
    Total Energy =                       -340.8722863466128956
  Basis Set: CC-PVTZ
  Basis Set:
  Charge       = 0
  Multiplicity = 1
  Basis Set: CC-PVTZ
  Basis Set:

    Orbital Energies (a.u.)
    -----------------------

    Doubly Occupied:

       1A    -15.580706     2A    -15.576157     3A    -11.278285
       4A    -11.272411     5A    -11.268571     6A    -11.267878
       7A    -11.231414     8A    -11.218096     9A     -1.316146
      10A     -1.224200    11A     -1.086498    12A     -1.015608
      13A     -0.906125    14A     -0.896162    15A     -0.830063
      16A     -0.719054    17A     -0.713220    18A     -0.659879
      19A     -0.612619    20A     -0.605429    21A     -0.585274
      22A     -0.563489    23A     -0.524077    24A     -0.507877
      25A     -0.502302    26A     -0.488790    27A     -0.433270
      28A     -0.397895    29A     -0.346851

  @DF-RHF Final Energy:  -340.87228670126672

   => Energetics <=

    Nuclear Repulsion Energy =            350.5816724980809340
    One-Electron Energy =               -1155.6512304289440181
    Two-Electron Energy =                 464.1972712295961969
    DFT Exchange-Correlation Energy =       0.0000000000000000
    Empirical Dispersion Energy =           0.0000000000000000
    PCM Polarization Energy =               0.0000000000000000
    EFP Energy =                            0.0000000000000000
    Total Energy =                       -340.8722867012668871
    Molecular point group: c1
  Basis Set: CC-PVTZ
  Basis Set:

  -Total Gradient:
     Atom            X                  Y                   Z
    ------   -----------------  -----------------  -----------------
       1       -0.000018535205     0.000001210851    -0.000044176436
       2        0.000153222602    -0.000055641789     0.000065922197
       3       -0.000182017950    -0.000054318738    -0.000444526076
       4       -0.000019290028     0.000147704753     0.000001145281
       5        0.000094766288     0.000067585592     0.000712159074
       6       -0.000004263983    -0.000013393548    -0.000002106086
       7       -0.000132057164    -0.000086839848     0.000020510316
       8        0.000124701811    -0.000037844142    -0.000058009198
       9       -0.000168568926     0.000458576052    -0.000700736813
      10       -0.000000124430    -0.000007835432     0.000030563606
      11        0.000048907674    -0.000019446645     0.000058471348
      12        0.000147659635    -0.000371381720     0.000383071290
      13       -0.000022559380    -0.000036587529     0.000028937771
      14       -0.000053686753    -0.000014198902     0.000026816147
      15        0.000015111375     0.000070856143    -0.000015860537
      16        0.000016734439    -0.000048445099    -0.000062181886

  **** Optimization is complete! (in 5 steps) ****
    Final optimized geometry and variables:
    Molecular point group: c1

    Geometry (in Angstrom), charge = 0, multiplicity = 1:

    H           -1.749411053213    -2.247473094285    -0.017502863328
    C           -1.341430382841    -1.254309569336    -0.025123456654
    N           -0.056482003889    -1.130449333359    -0.275705501320
    C           -2.144245354395    -0.157888385273     0.214793426785
    C            0.450269169449     0.085761381312    -0.289978435299
    H           -3.192094437578    -0.270921815984     0.416864916520
    N           -1.651665277406     1.061914096079     0.199892390059
    C           -0.369150293036     1.182815832034    -0.050675410526
    C            1.925250755852     0.234468536047    -0.551986729622
    H            0.034344671401     2.177916319912    -0.067702956608
    C            2.769571910573    -0.023390155417     0.698202105641
    H            2.202323095038    -0.472903369259    -1.322887372450
    H            2.127194943025     1.229230679246    -0.931438629095
    H            3.824653885320     0.066863371962     0.469314865963
    H            2.589407945738    -1.020061349885     1.080457793164
    H            2.534203682751     0.686395295423     1.483045877325

  Mulliken Charges: (a.u.)
   Center  Symbol    Alpha    Beta     Spin     Total
       1     H     0.41361  0.41361  0.00000  0.17277
       2     C     3.04421  3.04421  0.00000 -0.08841
       3     N     3.59837  3.59837  0.00000 -0.19675
       4     C     3.04752  3.04752  0.00000 -0.09504
       5     C     2.93629  2.93629  0.00000  0.12742
       6     H     0.41364  0.41364  0.00000  0.17271
       7     N     3.58680  3.58680  0.00000 -0.17361
       8     C     3.07843  3.07843  0.00000 -0.15686
       9     C     3.08087  3.08087  0.00000 -0.16174
      10     H     0.41538  0.41538  0.00000  0.16923
      11     C     3.14429  3.14429  0.00000 -0.28859
      12     H     0.44332  0.44332  0.00000  0.11335
      13     H     0.44859  0.44859  0.00000  0.10283
      14     H     0.44898  0.44898  0.00000  0.10204
      15     H     0.44634  0.44634  0.00000  0.10732
      16     H     0.45334  0.45334  0.00000  0.09332

   Total alpha = 29.00000, Total beta = 29.00000, Total charge = -0.00000

*** Psi4 exiting successfully. Buy a developer a beer!
