                              Psi4 1.0.54 Driver

  ==> Input File <==

--------------------------------------------------------------------------
set {
	reference rhf
	basis cc-pvtz
}

set_num_threads( 4 )
memory 2 gb

molecule MOL {
0 1

H	 0.019676	 -3.598580	 -0.873632
O	 0.314108	 -2.771046	 -0.524013
C	 -0.706585	 -1.918735	 -0.543351
C	 -0.318151	 -0.570512	 0.000144
O	 -1.774671	 -2.224993	 -0.947535
C	 -1.454884	 0.441630	 -0.000560
H	 0.068150	 -0.728451	 1.002001
H	 0.523129	 -0.218543	 -0.588298
C	 -2.822577	 -0.232186	 0.000063
H	 -1.359760	 1.084704	 -0.867077
H	 -1.359641	 1.085996	 0.864983
H	 -2.954352	 -0.858985	 -0.875745
H	 -3.615886	 0.505352	 0.000019
H	 -2.953878	 -0.858359	 0.876394

	symmetry c1
}
set optking {
	frozen_dihedral = ("
		7 4 6 10
	")
}

ee,wfn = optimize('scf', return_wfn=True)
oeprop( wfn, 'DIPOLE', 'QUADRUPOLE', 'MULLIKEN_CHARGES')
f=open( 'psi4out.xyz', 'w' )
f.write( "14  " )
f.write( str(ee) + "\n" )
f.write( MOL.save_string_xyz() )
f.close()
--------------------------------------------------------------------------

    Molecular point group: c1
  Charge       = 0
  Multiplicity = 1
  Basis Set: CC-PVTZ
  Basis Set:
  @DF-RHF Final Energy:  -305.97120733666770
    Total Energy =                       -305.9712073366676464
    Molecular point group: c1
  Basis Set: CC-PVTZ
  Basis Set:
  Basis Set: CC-PVTZ
  Basis Set:
  @DF-RHF Final Energy:  -305.98710441823278
    Total Energy =                       -305.9871044182328319
  Basis Set: CC-PVTZ
  Basis Set:
  Basis Set: CC-PVTZ
  Basis Set:
  @DF-RHF Final Energy:  -305.99045056795336
    Total Energy =                       -305.9904505679534168
  Basis Set: CC-PVTZ
  Basis Set:
  Basis Set: CC-PVTZ
  Basis Set:
  @DF-RHF Final Energy:  -305.98927257903381
    Total Energy =                       -305.9892725790338091
  Basis Set: CC-PVTZ
  Basis Set:
  @DF-RHF Final Energy:  -305.99233411698128
    Total Energy =                       -305.9923341169813966
  @DF-RHF Final Energy:  -305.99287956162686
    Total Energy =                       -305.9928795616269213
  @DF-RHF Final Energy:  -305.99323555434046
    Total Energy =                       -305.9932355543404583
  @DF-RHF Final Energy:  -305.99359824928570
    Total Energy =                       -305.9935982492855260
  @DF-RHF Final Energy:  -305.99376179026450
    Total Energy =                       -305.9937617902643865
  Basis Set: CC-PVTZ
  Basis Set:
  @DF-RHF Final Energy:  -305.99379789765834
    Total Energy =                       -305.9937978976583963
  Basis Set: CC-PVTZ
  Basis Set:
  Basis Set: CC-PVTZ
  Basis Set:
  @DF-RHF Final Energy:  -305.99380691834631
    Total Energy =                       -305.9938069183465359
  Basis Set: CC-PVTZ
  Basis Set:
  Basis Set: CC-PVTZ
  Basis Set:
  @DF-RHF Final Energy:  -305.99380952233855
    Total Energy =                       -305.9938095223386654
  Basis Set: CC-PVTZ
  Basis Set:
  Charge       = 0
  Multiplicity = 1
  Basis Set: CC-PVTZ
  Basis Set:

    Orbital Energies (a.u.)
    -----------------------

    Doubly Occupied:

       1A    -20.606157     2A    -20.538610     3A    -11.374882
       4A    -11.239664     5A    -11.229191     6A    -11.208741
       7A     -1.478746     8A     -1.369066     9A     -1.080060
      10A     -0.978267    11A     -0.865768    12A     -0.791674
      13A     -0.706668    14A     -0.687590    15A     -0.659883
      16A     -0.621152    17A     -0.594548    18A     -0.570916
      19A     -0.554243    20A     -0.506193    21A     -0.490901
      22A     -0.482017    23A     -0.477356    24A     -0.442410

  @DF-RHF Final Energy:  -305.99381017458222

   => Energetics <=

    Nuclear Repulsion Energy =            245.6054848092732357
    One-Electron Energy =                -904.0891843851246676
    Two-Electron Energy =                 352.4898894012693518
    DFT Exchange-Correlation Energy =       0.0000000000000000
    Empirical Dispersion Energy =           0.0000000000000000
    PCM Polarization Energy =               0.0000000000000000
    EFP Energy =                            0.0000000000000000
    Total Energy =                       -305.9938101745821086
    Molecular point group: c1
  Basis Set: CC-PVTZ
  Basis Set:

  -Total Gradient:
     Atom            X                  Y                   Z
    ------   -----------------  -----------------  -----------------
       1        0.000013959150    -0.000001238906    -0.000004119318
       2        0.000013568910    -0.000010009744     0.000036986726
       3       -0.000054959361     0.000055784314    -0.000047496341
       4       -0.005379743757    -0.004469517540     0.002993763895
       5       -0.000014825359     0.000083125646     0.000035543334
       6       -0.003856443357    -0.004727183420    -0.004121069062
       7        0.005015946406     0.004426002292    -0.001757873096
       8        0.000021201920    -0.000006897619    -0.000038976572
       9        0.000068972722     0.000013926942     0.000013335407
      10        0.004139529500     0.004704979038     0.002879042899
      11        0.000021062799    -0.000008108098    -0.000001848413
      12        0.000017079650    -0.000031775384    -0.000014358472
      13       -0.000002655164    -0.000025714181     0.000000588726
      14       -0.000002694061    -0.000003373343     0.000026480290

  **** Optimization is complete! (in 13 steps) ****
    Final optimized geometry and variables:
    Molecular point group: c1

    Geometry (in Angstrom), charge = 0, multiplicity = 1:

    H            0.672341174647    -2.519281752017     0.365393918370
    O            0.889490593040    -1.665808840159     0.710261972128
    C            0.433379435557    -0.746541358687    -0.133303154395
    C            0.799138630748     0.651526287713     0.282402086208
    O           -0.152373117969    -1.035144045044    -1.120093171373
    C           -0.258038991086     1.741205531387     0.026747592366
    H            1.143574797730     0.668275868204     1.306201106972
    H            1.682745804764     0.882647203492    -0.307435139839
    C           -1.714242781293     1.327868711239     0.208005546134
    H           -0.093257727450     2.191556817152    -0.943984115116
    H           -0.039647792244     2.537012005243     0.732231968771
    H           -2.023344006866     0.611191650624    -0.538289951260
    H           -2.358296345843     2.195880589362     0.132199312733
    H           -1.874465432442     0.887186887295     1.187540597460

  Mulliken Charges: (a.u.)
   Center  Symbol    Alpha    Beta     Spin     Total
       1     H     0.38071  0.38071  0.00000  0.23858
       2     O     4.15973  4.15973  0.00000 -0.31946
       3     C     2.79749  2.79749  0.00000  0.40501
       4     C     3.11068  3.11068  0.00000 -0.22136
       5     O     4.19905  4.19905  0.00000 -0.39810
       6     C     3.07974  3.07974  0.00000 -0.15948
       7     H     0.43403  0.43403  0.00000  0.13193
       8     H     0.43973  0.43973  0.00000  0.12055
       9     C     3.15880  3.15880  0.00000 -0.31761
      10     H     0.44776  0.44776  0.00000  0.10447
      11     H     0.45094  0.45094  0.00000  0.09813
      12     H     0.43753  0.43753  0.00000  0.12495
      13     H     0.44811  0.44811  0.00000  0.10378
      14     H     0.45570  0.45570  0.00000  0.08860

   Total alpha = 24.00000, Total beta = 24.00000, Total charge =  0.00000

*** Psi4 exiting successfully. Buy a developer a beer!
