  ==> Input File <==

--------------------------------------------------------------------------
set {
	reference rhf
	basis cc-pvtz
}

set_num_threads( 4 )
memory 2 gb

molecule MOL {
0 1

H	 -1.835082	 1.385983	 0.000069
C	 -1.300516	 0.441153	 -0.000028
O	 -0.006604	 0.654344	 -0.000106
O	 -1.828920	 -0.612308	 0.000113
C	 0.852093	 -0.482521	 -0.000013
C	 2.277533	 0.016301	 0.000281
H	 0.638940	 -1.081255	 -0.874107
H	 0.638622	 -1.081386	 0.873917
H	 2.475833	 0.617287	 -0.878048
H	 2.958365	 -0.826505	 0.000352
H	 2.475508	 0.617183	 0.878755

	symmetry c1
}
set optking {
	frozen_dihedral = ("
		5 3 2 4
	")
}

ee = optimize('scf')
oeprop('DIPOLE', 'QUADRUPOLE', 'MULLIKEN_CHARGES')
f=open( 'psi4out.xyz', 'w' )
f.write( "11  " )
f.write( str(ee) + "\n" )
f.write( MOL.save_string_xyz() )
f.close()
--------------------------------------------------------------------------

    Molecular point group: c1
  Charge       = 0
  Multiplicity = 1
  Basis Set: CC-PVTZ
  Basis Set:
  @DF-RHF Final Energy:  -266.93189480473438
    Total Energy =                       -266.9318948047343838
    Molecular point group: c1
  Basis Set: CC-PVTZ
  Basis Set:
  Charge       = 0
  Multiplicity = 1
  Basis Set: CC-PVTZ
  Basis Set:

    Orbital Energies (a.u.)
    -----------------------

    Doubly Occupied:

       1A    -20.605702     2A    -20.545759     3A    -11.370117
       4A    -11.290016     5A    -11.225145     6A     -1.479603
       7A     -1.377430     8A     -1.053888     9A     -0.903808
      10A     -0.806097    11A     -0.740634    12A     -0.693504
      13A     -0.682538    14A     -0.593486    15A     -0.578618
      16A     -0.558140    17A     -0.519285    18A     -0.516151
      19A     -0.463772    20A     -0.458257

  @DF-RHF Final Energy:  -266.93189476129874

   => Energetics <=

    Nuclear Repulsion Energy =            179.6506590439520039
    One-Electron Energy =                -720.2412078106256104
    Two-Electron Energy =                 273.6586540053750127
    DFT Exchange-Correlation Energy =       0.0000000000000000
    Empirical Dispersion Energy =           0.0000000000000000
    PCM Polarization Energy =               0.0000000000000000
    EFP Energy =                            0.0000000000000000
    Total Energy =                       -266.9318947612985653
    Molecular point group: c1
  Basis Set: CC-PVTZ
  Basis Set:

  -Total Gradient:
     Atom            X                  Y                   Z
    ------   -----------------  -----------------  -----------------
       1       -0.000006512100     0.000005860885    -0.000065846374
       2        0.000003896113     0.000012563598     0.000168111364
       3       -0.000038414431     0.000009889186    -0.000031797218
       4        0.000021501747     0.000001849364    -0.000058059838
       5        0.000023063721    -0.000026034214    -0.000009047090
       6       -0.000004850095    -0.000004214527    -0.000002199812
       7        0.000005106579    -0.000000389435    -0.000000483469
       8        0.000000904085     0.000004162512    -0.000000835782
       9       -0.000002907595    -0.000001277561     0.000000060509
      10        0.000002243796    -0.000000803750     0.000000057580
      11       -0.000004031824    -0.000001606060     0.000000040130

  **** Optimization is complete! (in 2 steps) ****
    Final optimized geometry and variables:
    Molecular point group: c1

    Geometry (in Angstrom), charge = 0, multiplicity = 1:

    H           -1.835279535586     1.385933905752    -0.000759632371
    C           -1.300568262676     0.441218006269     0.000058270197
    O           -0.006625629172     0.654390150157     0.000341260473
    O           -1.828697286193    -0.612394269569    -0.000420893734
    C            0.851999133779    -0.482441587290     0.000048476376
    C            2.277449739550     0.016235587757     0.000058648151
    H            0.638747208556    -1.081122868755    -0.874072333216
    H            0.638853313159    -1.081485532982     0.873943046742
    H            2.475534263570     0.617347716197    -0.878236889658
    H            2.958236777503    -0.826622609630    -0.000165195015
    H            2.475646386681     0.616972043765     0.878585514509

  Mulliken Charges: (a.u.)
   Center  Symbol    Alpha    Beta     Spin     Total
       1     H     0.44775  0.44775  0.00000  0.10450
       2     C     2.84644  2.84644  0.00000  0.30713
       3     O     4.14419  4.14419  0.00000 -0.28837
       4     O     4.19491  4.19491  0.00000 -0.38982
       5     C     2.97236  2.97236  0.00000  0.05527
       6     C     3.13325  3.13325  0.00000 -0.26650
       7     H     0.45310  0.45310  0.00000  0.09381
       8     H     0.45310  0.45310  0.00000  0.09380
       9     H     0.45034  0.45034  0.00000  0.09932
      10     H     0.45422  0.45422  0.00000  0.09155
      11     H     0.45034  0.45034  0.00000  0.09932

   Total alpha = 20.00000, Total beta = 20.00000, Total charge =  0.00000
