                              Psi4 1.0.54 Driver

  ==> Input File <==

--------------------------------------------------------------------------
set {
	reference rhf
	basis cc-pvtz
}

set_num_threads( 4 )
memory 2 gb

molecule MOL {
0 1

H	 -4.340537	 -0.784487	 0.000000
O	 -3.958786	 0.074640	 0.000000
C	 -2.613554	 0.009900	 0.000000
C	 -2.028896	 -1.173320	 0.419930
C	 -1.817370	 1.066551	 -0.398075
H	 -2.656203	 -1.986542	 0.726551
C	 -0.657150	 -1.294198	 0.439875
H	 -2.263626	 1.987666	 -0.725138
C	 -0.439999	 0.943497	 -0.377437
H	 -0.206766	 -2.210273	 0.765033
C	 0.134701	 -0.234357	 0.040716
H	 0.173404	 1.765456	 -0.686992
Br	 2.025081	 -0.406049	 0.070060

	symmetry c1
}
set optking {
	frozen_dihedral = ("
		4 3 2 1
	")
}

ee,wfn = optimize('scf', return_wfn=True)
oeprop( wfn, 'DIPOLE', 'QUADRUPOLE', 'MULLIKEN_CHARGES')
f=open( 'psi4out.xyz', 'w' )
f.write( "13  " )
f.write( str(ee) + "\n" )
f.write( MOL.save_string_xyz() )
f.close()
--------------------------------------------------------------------------

    Molecular point group: c1
  Charge       = 0
  Multiplicity = 1
  Basis Set: CC-PVTZ
  Basis Set:
  @DF-RHF Final Energy: -2877.54448749603080
    Total Energy =                      -2877.5444874960303423
    Molecular point group: c1
  Basis Set: CC-PVTZ
  Basis Set:
  Basis Set: CC-PVTZ
  Basis Set:
  @DF-RHF Final Energy: -2877.54634600848294
    Total Energy =                      -2877.5463460084856706
  Basis Set: CC-PVTZ
  Basis Set:
  Basis Set: CC-PVTZ
  Basis Set:
  @DF-RHF Final Energy: -2877.54650129338825
    Total Energy =                      -2877.5465012933918842
  Basis Set: CC-PVTZ
  Basis Set:
  Basis Set: CC-PVTZ
  Basis Set:
  @DF-RHF Final Energy: -2877.54652296021686
    Total Energy =                      -2877.5465229602145882
  Basis Set: CC-PVTZ
  Basis Set:
  Basis Set: CC-PVTZ
  Basis Set:
  @DF-RHF Final Energy: -2877.54652761590705
    Total Energy =                      -2877.5465276159075074
  Basis Set: CC-PVTZ
  Basis Set:
  Charge       = 0
  Multiplicity = 1
  Basis Set: CC-PVTZ
  Basis Set:

    Orbital Energies (a.u.)
    -----------------------

    Doubly Occupied:

       1A   -490.018631     2A    -65.158954     3A    -58.514179
       4A    -58.512811     5A    -58.512807     6A    -20.595444
       7A    -11.311157     8A    -11.288242     9A    -11.253893
      10A    -11.252199    11A    -11.242826    12A    -11.237664
      13A     -9.832749    14A     -7.444368    15A     -7.437617
      16A     -7.437549    17A     -3.188058    18A     -3.184502
      19A     -3.184404    20A     -3.175752    21A     -3.175748
      22A     -1.426639    23A     -1.179947    24A     -1.066817
      25A     -1.042153    26A     -0.970526    27A     -0.869090
      28A     -0.828043    29A     -0.757956    30A     -0.689112
      31A     -0.654158    32A     -0.631218    33A     -0.610227
      34A     -0.607338    35A     -0.576753    36A     -0.523855
      37A     -0.511468    38A     -0.501474    39A     -0.428245
      40A     -0.413774    41A     -0.360254    42A     -0.318326

  @DF-RHF Final Energy: -2877.54652813017719

   => Energetics <=

    Nuclear Repulsion Energy =            525.4820452061095466
    One-Electron Energy =               -5042.2032988229784678
    Two-Electron Energy =                1639.1747254866907042
    DFT Exchange-Correlation Energy =       0.0000000000000000
    Empirical Dispersion Energy =           0.0000000000000000
    PCM Polarization Energy =               0.0000000000000000
    EFP Energy =                            0.0000000000000000
    Total Energy =                      -2877.5465281301785581
    Molecular point group: c1
  Basis Set: CC-PVTZ
  Basis Set:

  -Total Gradient:
     Atom            X                  Y                   Z
    ------   -----------------  -----------------  -----------------
       1        0.000015945842    -0.000027884669    -0.001699003031
       2       -0.000005553432     0.000273725762     0.002819305149
       3       -0.000116301443    -0.000714576692    -0.002373618938
       4        0.000044275044     0.000431468495     0.001224713963
       5        0.000096130798     0.000015221919     0.000027108646
       6       -0.000002551614    -0.000001415260     0.000001634494
       7       -0.000014130073    -0.000019290236     0.000023505907
       8       -0.000009397745    -0.000004292409    -0.000000882590
       9       -0.000013133772    -0.000001038957     0.000017079228
      10        0.000002406012     0.000005814519    -0.000006427846
      11        0.000001727793     0.000043752255    -0.000026300760
      12        0.000003672381     0.000002694147    -0.000008581332
      13       -0.000003090386    -0.000004179020     0.000001467117

  **** Optimization is complete! (in 6 steps) ****
    Final optimized geometry and variables:
    Molecular point group: c1

    Geometry (in Angstrom), charge = 0, multiplicity = 1:

    H           -4.386898764046    -0.469279409952    -0.073983596245
    O           -3.943538436928     0.359841985232    -0.080638709566
    C           -2.604986469111     0.196572801882    -0.058402176021
    C           -2.008309645916    -0.974751835032     0.368007215574
    C           -1.819294567375     1.268325350186    -0.445537542086
    H           -2.612603781951    -1.804870974951     0.684139086090
    C           -0.630154124068    -1.081961722912     0.392740303641
    H           -2.292755103861     2.173875210934    -0.769185137981
    C           -0.445705690825     1.163448973844    -0.412630610191
    H           -0.171525900458    -1.993157152133     0.719942600638
    C            0.145307114530    -0.013445283338     0.003757329534
    H            0.160557402132     1.993823130599    -0.713786638416
    BR           2.037679851321    -0.156535389128     0.041418320218

  Mulliken Charges: (a.u.)
   Center  Symbol    Alpha    Beta     Spin     Total
       1     H     0.38586  0.38586  0.00000  0.22828
       2     O     4.17286  4.17286  0.00000 -0.34572
       3     C     2.86209  2.86209  0.00000  0.27582
       4     C     3.11637  3.11637  0.00000 -0.23274
       5     C     3.09334  3.09334  0.00000 -0.18668
       6     H     0.42882  0.42882  0.00000  0.14236
       7     C     3.08465  3.08465  0.00000 -0.16930
       8     H     0.41553  0.41553  0.00000  0.16893
       9     C     3.07752  3.07752  0.00000 -0.15504
      10     H     0.41057  0.41057  0.00000  0.17885
      11     C     2.97505  2.97505  0.00000  0.04990
      12     H     0.41063  0.41063  0.00000  0.17874
      13    BR    17.56671 17.56671  0.00000 -0.13341

   Total alpha = 42.00000, Total beta = 42.00000, Total charge =  0.00000

*** Psi4 exiting successfully. Buy a developer a beer!
