  ==> Input File <==

--------------------------------------------------------------------------
set {
	reference rhf
	basis 6-31G*
}

set_num_threads( 4 )
memory 2 gb

molecule MOL {
0 1

H	 -3.892951	 0.981613	 -0.358725
C	 -3.196921	 0.361773	 0.172313
C	 -2.076860	 -0.007332	 -0.404944
H	 -3.439953	 0.057760	 1.173024
O	 -1.180634	 -0.819263	 0.215062
H	 -1.811520	 0.292194	 -1.403480
C	 0.051604	 -1.018856	 -0.387932
C	 1.043764	 0.054862	 -0.001873
H	 -0.017620	 -1.041351	 -1.469781
H	 0.437898	 -1.966374	 -0.042284
F	 0.390283	 1.148837	 0.361427
F	 1.799283	 -0.318742	 1.017657
F	 1.843120	 0.371880	 -0.999330

	symmetry c1
}
set optking {
	frozen_dihedral = ("
		11 8 7 9
	")
}

ee = optimize('scf')
oeprop('DIPOLE', 'QUADRUPOLE', 'MULLIKEN_CHARGES')
f=open( 'psi4out.xyz', 'w' )
f.write( "13  " )
f.write( str(ee) + "\n" )
f.write( MOL.save_string_xyz() )
f.close()
--------------------------------------------------------------------------

    Molecular point group: c1
  Charge       = 0
  Multiplicity = 1
  Basis Set: 6-31G*
  Basis Set:
  @DF-RHF Final Energy:  -527.53007599903617
    Total Energy =                       -527.5300759990363986
    Molecular point group: c1
  Basis Set: 6-31G*
  Basis Set:
  Basis Set: 6-31G*
  Basis Set:
  @DF-RHF Final Energy:  -527.53099613941140
    Total Energy =                       -527.5309961394117408
  Basis Set: 6-31G*
  Basis Set:
  Basis Set: 6-31G*
  Basis Set:
  @DF-RHF Final Energy:  -527.53121223992571
    Total Energy =                       -527.5312122399257078
  Basis Set: 6-31G*
  Basis Set:
  Basis Set: 6-31G*
  Basis Set:
  @DF-RHF Final Energy:  -527.53124448172889
    Total Energy =                       -527.5312444817293454
  Basis Set: 6-31G*
  Basis Set:
  @DF-RHF Final Energy:  -527.53125696647339
    Total Energy =                       -527.5312569664735065
  Basis Set: 6-31G*
  Basis Set:
  @DF-RHF Final Energy:  -527.53126149209743
    Total Energy =                       -527.5312614920974283
  Basis Set: 6-31G*
  Basis Set:
  Basis Set: 6-31G*
  Basis Set:
  @DF-RHF Final Energy:  -527.53126431484225
    Total Energy =                       -527.5312643148424741
  Basis Set: 6-31G*
  Basis Set:
  Basis Set: 6-31G*
  Basis Set:
  @DF-RHF Final Energy:  -527.53126569321648
    Total Energy =                       -527.5312656932169375
  Basis Set: 6-31G*
  Basis Set:
  Charge       = 0
  Multiplicity = 1
  Basis Set: 6-31G*
  Basis Set:

    Orbital Energies (a.u.)
    -----------------------

    Doubly Occupied:

       1A    -26.344836     2A    -26.343963     3A    -26.338975
       4A    -20.608478     5A    -11.504456     6A    -11.318650
       7A    -11.299721     8A    -11.215949     9A     -1.742076
      10A     -1.641168    11A     -1.636176    12A     -1.438683
      13A     -1.081960    14A     -1.015471    15A     -0.925695
      16A     -0.837300    17A     -0.830107    18A     -0.821588
      19A     -0.789488    20A     -0.726313    21A     -0.713796
      22A     -0.696193    23A     -0.674051    24A     -0.661220
      25A     -0.654049    26A     -0.642310    27A     -0.628474
      28A     -0.584292    29A     -0.561992    30A     -0.525524
      31A     -0.512295    32A     -0.351562

  @DF-RHF Final Energy:  -527.53126637462378

   => Energetics <=

    Nuclear Repulsion Energy =            412.3751249051602485
    One-Electron Energy =               -1548.4791653271745417
    Two-Electron Energy =                 608.5727740473904532
    DFT Exchange-Correlation Energy =       0.0000000000000000
    Empirical Dispersion Energy =           0.0000000000000000
    PCM Polarization Energy =               0.0000000000000000
    EFP Energy =                            0.0000000000000000
    Total Energy =                       -527.5312663746238968
    Molecular point group: c1
  Basis Set: 6-31G*
  Basis Set:

  -Total Gradient:
     Atom            X                  Y                   Z
    ------   -----------------  -----------------  -----------------
       1        0.000001802208     0.000002598420     0.000001435293
       2       -0.000018592390     0.000018318575    -0.000003113674
       3       -0.000012003091    -0.000081098413     0.000028559037
       4        0.000002731474     0.000002149192     0.000001845057
       5       -0.000035357304     0.000026792067    -0.000036581164
       6       -0.000001410168     0.000008737765    -0.000006857088
       7       -0.004253153820     0.003712348354     0.001229296081
       8        0.001077926033     0.000663263954    -0.005237655311
       9        0.003457249907    -0.003342843199     0.000015317828
      10       -0.000008574867     0.000003425979     0.000022610448
      11       -0.000105606386    -0.001005120037     0.003902516381
      12        0.000005046874    -0.000004393219    -0.000027058854
      13       -0.000110058460    -0.000004179435     0.000109685966

  **** Optimization is complete! (in 9 steps) ****
    Final optimized geometry and variables:
    Molecular point group: c1

    Geometry (in Angstrom), charge = 0, multiplicity = 1:

    H           -3.940180065177     0.953743611767    -0.354521714009
    C           -3.263743921150     0.300818451024     0.161956590711
    C           -2.085417136271     0.037888230390    -0.354051237764
    H           -3.572028976466    -0.119365476688     1.100865560989
    O           -1.200900316569    -0.792931998843     0.256945227883
    H           -1.756429162967     0.453636238703    -1.290184140311
    C            0.018158724550    -1.011570138758    -0.359427986947
    C            1.057056978782     0.055821028921    -0.021171976062
    H           -0.056035490738    -1.090103934447    -1.437898671335
    H            0.397898255935    -1.953038475012     0.009351207668
    F            0.506354080160     1.210667354284     0.294552794523
    F            1.808778061238    -0.310415970836     1.004422417976
    F            1.869023183944     0.250174285111    -1.048936299371

  Mulliken Charges: (a.u.)
   Center  Symbol    Alpha    Beta     Spin     Total
       1     H     0.40705  0.40705  0.00000  0.18590
       2     C     3.23674  3.23674  0.00000 -0.47349
       3     C     2.89317  2.89317  0.00000  0.21366
       4     H     0.40205  0.40205  0.00000  0.19589
       5     O     4.29880  4.29880  0.00000 -0.59760
       6     H     0.40747  0.40747  0.00000  0.18506
       7     C     3.07990  3.07990  0.00000 -0.15980
       8     C     2.44792  2.44792  0.00000  1.10417
       9     H     0.40223  0.40223  0.00000  0.19553
      10     H     0.38616  0.38616  0.00000  0.22769
      11     F     4.67480  4.67480  0.00000 -0.34961
      12     F     4.68034  4.68034  0.00000 -0.36069
      13     F     4.68336  4.68336  0.00000 -0.36671

   Total alpha = 32.00000, Total beta = 32.00000, Total charge = -0.00000
