  ==> Input File <==

--------------------------------------------------------------------------
set {
	reference rhf
	basis cc-pvtz
}

set_num_threads( 4 )
memory 2 gb

molecule MOL {
0 1

H	 3.083659	 -1.378387	 0.000000
O	 2.179005	 -1.633391	 0.000000
C	 1.366950	 -0.558201	 0.000000
C	 1.521922	 0.486894	 0.898021
C	 0.353336	 -0.518511	 -0.935432
H	 2.312066	 0.454341	 1.626061
C	 0.664388	 1.567657	 0.858774
H	 0.231038	 -1.324098	 -1.630353
C	 -0.501593	 0.568419	 -0.967773
H	 0.793909	 2.370403	 1.558522
C	 -0.352134	 1.615058	 -0.073886
C	 -1.597468	 0.623364	 -1.970478
H	 -1.020505	 2.454155	 -0.106818
O	 -1.814876	 -0.213223	 -2.778113
H	 -2.220603	 1.521446	 -1.918025

	symmetry c1
}
set optking {
	frozen_dihedral = ("
		4 3 2 1
	")
}

ee = optimize('scf')
oeprop('DIPOLE', 'QUADRUPOLE', 'MULLIKEN_CHARGES')
f=open( 'psi4out.xyz', 'w' )
f.write( "15  " )
f.write( str(ee) + "\n" )
f.write( MOL.save_string_xyz() )
f.close()
--------------------------------------------------------------------------

    Molecular point group: c1
  Charge       = 0
  Multiplicity = 1
  Basis Set: CC-PVTZ
  Basis Set:
  @DF-RHF Final Energy:  -418.43628297681784
    Total Energy =                       -418.4362829768177789
    Molecular point group: c1
  Basis Set: CC-PVTZ
  Basis Set:
  Basis Set: CC-PVTZ
  Basis Set:
  @DF-RHF Final Energy:  -418.43654655339827
    Total Energy =                       -418.4365465533985571
  Basis Set: CC-PVTZ
  Basis Set:
  Basis Set: CC-PVTZ
  Basis Set:
  @DF-RHF Final Energy:  -418.43653374615309
    Total Energy =                       -418.4365337461533727
  Basis Set: CC-PVTZ
  Basis Set:
  Basis Set: CC-PVTZ
  Basis Set:
  @DF-RHF Final Energy:  -418.43661219939293
    Total Energy =                       -418.4366121993929255
  Basis Set: CC-PVTZ
  Basis Set:
  Basis Set: CC-PVTZ
  Basis Set:
  @DF-RHF Final Energy:  -418.43667218733515
    Total Energy =                       -418.4366721873351480
  Basis Set: CC-PVTZ
  Basis Set:
  Charge       = 0
  Multiplicity = 1
  Basis Set: CC-PVTZ
  Basis Set:

    Orbital Energies (a.u.)
    -----------------------

    Doubly Occupied:

       1A    -20.587702     2A    -20.554526     3A    -11.327998
       4A    -11.306720     5A    -11.250584     6A    -11.250301
       7A    -11.248009     8A    -11.247079     9A    -11.239518
      10A     -1.417151    11A     -1.410337    12A     -1.174842
      13A     -1.052338    14A     -1.030723    15A     -0.901064
      16A     -0.849498    17A     -0.811723    18A     -0.742065
      19A     -0.703774    20A     -0.689355    21A     -0.648012
      22A     -0.641261    23A     -0.621700    24A     -0.610927
      25A     -0.562924    26A     -0.552140    27A     -0.542315
      28A     -0.510631    29A     -0.492682    30A     -0.426975
      31A     -0.357610    32A     -0.339411

  @DF-RHF Final Energy:  -418.43667331457681

   => Energetics <=

    Nuclear Repulsion Energy =            403.7519967215911834
    One-Electron Energy =               -1370.1735450601850062
    Two-Electron Energy =                 547.9848750240170148
    DFT Exchange-Correlation Energy =       0.0000000000000000
    Empirical Dispersion Energy =           0.0000000000000000
    PCM Polarization Energy =               0.0000000000000000
    EFP Energy =                            0.0000000000000000
    Total Energy =                       -418.4366733145767512
    Molecular point group: c1
  Basis Set: CC-PVTZ
  Basis Set:

  -Total Gradient:
     Atom            X                  Y                   Z
    ------   -----------------  -----------------  -----------------
       1        0.000106195614    -0.000014359677    -0.002153682820
       2       -0.000632334782    -0.000432455274     0.003204648042
       3        0.001646780069     0.001264325996    -0.001902437441
       4       -0.000982005771    -0.000910103125     0.000939678935
       5       -0.000128767402     0.000067267692    -0.000065943378
       6       -0.000006734193     0.000001271096     0.000013458435
       7       -0.000097337941     0.000125897214    -0.000147970267
       8        0.000002775901    -0.000006618879     0.000014406559
       9        0.000072541276    -0.000117256470    -0.000098522010
      10        0.000002994673    -0.000013497565     0.000005635696
      11        0.000038044035     0.000025658281     0.000194167362
      12       -0.000021379712    -0.000000099706     0.000033775706
      13       -0.000009797602    -0.000003988770    -0.000012489031
      14        0.000006031163     0.000006486140    -0.000008785901
      15        0.000002994675     0.000007473050    -0.000015939880

  **** Optimization is complete! (in 6 steps) ****
    Final optimized geometry and variables:
    Molecular point group: c1

    Geometry (in Angstrom), charge = 0, multiplicity = 1:

    H            2.871332385887    -1.558913909180     0.640777551007
    O            1.964552386874    -1.806242646126     0.602721955373
    C            1.160934760866    -0.712610826012     0.562341516897
    C            1.309387221547     0.323684401909     1.473272621462
    C            0.143240627329    -0.676921442565    -0.363218869757
    H            2.091517617259     0.273140900546     2.207500420754
    C            0.453443869207     1.403951625228     1.438883837447
    H            0.020744982916    -1.481273886894    -1.059682895044
    C           -0.723957647731     0.405091204654    -0.384903804141
    H            0.577855957827     2.203505453083     2.143104657290
    C           -0.569760785015     1.447417532710     0.509807394391
    C           -1.826400977732     0.458033634696    -1.378937900730
    H           -1.242832578944     2.283452824409     0.484871004075
    O           -2.042044016552    -0.374367830162    -2.191484093190
    H           -2.456363391043     1.350983585738    -1.315658279178

  Mulliken Charges: (a.u.)
   Center  Symbol    Alpha    Beta     Spin     Total
       1     H     0.38543  0.38543  0.00000  0.22914
       2     O     4.18095  4.18095  0.00000 -0.36189
       3     C     2.85751  2.85751  0.00000  0.28498
       4     C     3.11468  3.11468  0.00000 -0.22935
       5     C     3.11774  3.11774  0.00000 -0.23547
       6     H     0.42112  0.42112  0.00000  0.15777
       7     C     3.06553  3.06553  0.00000 -0.13105
       8     H     0.40255  0.40255  0.00000  0.19490
       9     C     2.97490  2.97490  0.00000  0.05020
      10     H     0.41915  0.41915  0.00000  0.16169
      11     C     3.10258  3.10258  0.00000 -0.20515
      12     C     2.90906  2.90906  0.00000  0.18187
      13     H     0.42269  0.42269  0.00000  0.15462
      14     O     4.16951  4.16951  0.00000 -0.33903
      15     H     0.45661  0.45661  0.00000  0.08678

   Total alpha = 32.00000, Total beta = 32.00000, Total charge = -0.00000
