  ==> Input File <==

--------------------------------------------------------------------------
set {
	reference rhf
	basis 6-31G*
}

set_num_threads( 4 )
memory 2 gb

molecule MOL {
0 1

H	 -3.420663	 1.227371	 -1.044276
O	 -3.452007	 0.283848	 -0.965577
C	 -3.181085	 -0.079926	 0.364119
C	 -1.765924	 0.277073	 0.805136
H	 -3.327791	 -1.152017	 0.410903
H	 -3.905698	 0.375695	 1.036898
C	 -1.721079	 1.238638	 1.993370
H	 -1.230017	 -0.639442	 1.053663
H	 -1.242519	 0.713030	 -0.044105
C	 -0.296873	 1.572521	 2.442075
H	 -2.274861	 0.807711	 2.821825
H	 -2.239553	 2.157673	 1.725128
C	 -0.259990	 2.540112	 3.628032
H	 0.218329	 0.650051	 2.699049
H	 0.253004	 2.007208	 1.608236
C	 1.145861	 2.974629	 4.058071
H	 -0.770720	 2.088131	 4.476892
H	 -0.831649	 3.429051	 3.369556
C	 2.013248	 1.849696	 4.626023
H	 1.050212	 3.753909	 4.810309
H	 1.655524	 3.431583	 3.212116
H	 1.522859	 1.365535	 5.466408
H	 2.964547	 2.236775	 4.978213
H	 2.227592	 1.087561	 3.884153

	symmetry c1
}
set optking {
	frozen_dihedral = ("
		7 4 3 2
	")
}

ee = optimize('scf')
oeprop('DIPOLE', 'QUADRUPOLE', 'MULLIKEN_CHARGES')
f=open( 'psi4out.xyz', 'w' )
f.write( "24  " )
f.write( str(ee) + "\n" )
f.write( MOL.save_string_xyz() )
f.close()
--------------------------------------------------------------------------

    Molecular point group: c1
  Charge       = 0
  Multiplicity = 1
  Basis Set: 6-31G*
  Basis Set:
  @DF-RHF Final Energy:  -349.24081566935661
    Total Energy =                       -349.2408156693568912
    Molecular point group: c1
  Basis Set: 6-31G*
  Basis Set:
  Basis Set: 6-31G*
  Basis Set:
  @DF-RHF Final Energy:  -349.24107875321522
    Total Energy =                       -349.2410787532150493
  Basis Set: 6-31G*
  Basis Set:
  Basis Set: 6-31G*
  Basis Set:
  @DF-RHF Final Energy:  -349.24115829185581
    Total Energy =                       -349.2411582918557542
  Basis Set: 6-31G*
  Basis Set:
  Basis Set: 6-31G*
  Basis Set:
  @DF-RHF Final Energy:  -349.24116142255741
    Total Energy =                       -349.2411614225572407
  Basis Set: 6-31G*
  Basis Set:
  Charge       = 0
  Multiplicity = 1
  Basis Set: 6-31G*
  Basis Set:

    Orbital Energies (a.u.)
    -----------------------

    Doubly Occupied:

       1A    -20.551223     2A    -11.266910     3A    -11.220420
       4A    -11.217054     5A    -11.216595     6A    -11.215768
       7A    -11.215736     8A    -11.209532     9A     -1.357583
      10A     -1.092700    11A     -1.050149    12A     -0.985505
      13A     -0.915741    14A     -0.852675    15A     -0.804016
      16A     -0.780234    17A     -0.686588    18A     -0.656987
      19A     -0.622594    20A     -0.614712    21A     -0.596759
      22A     -0.585476    23A     -0.558029    24A     -0.538921
      25A     -0.533119    26A     -0.507774    27A     -0.492186
      28A     -0.485167    29A     -0.474612    30A     -0.462523
      31A     -0.457056    32A     -0.442581    33A     -0.421668

  @DF-RHF Final Energy:  -349.24116144677822

   => Energetics <=

    Nuclear Repulsion Energy =            380.4741753744459061
    One-Electron Energy =               -1227.2534863339924414
    Two-Electron Energy =                 497.5381495127683138
    DFT Exchange-Correlation Energy =       0.0000000000000000
    Empirical Dispersion Energy =           0.0000000000000000
    PCM Polarization Energy =               0.0000000000000000
    EFP Energy =                            0.0000000000000000
    Total Energy =                       -349.2411614467782783
    Molecular point group: c1
  Basis Set: 6-31G*
  Basis Set:

  -Total Gradient:
     Atom            X                  Y                   Z
    ------   -----------------  -----------------  -----------------
       1       -0.000004518519     0.000019195089    -0.000041791776
       2        0.000114783348    -0.000257488003    -0.000110099981
       3       -0.000166825766     0.000225247462     0.000239503607
       4        0.000068081671     0.000247463314    -0.000343109230
       5       -0.000007136082    -0.000010394979     0.000040263119
       6        0.000003075032     0.000006038090    -0.000005976257
       7        0.000009464417    -0.000218596704     0.000193278307
       8       -0.000015202991     0.000009602967    -0.000008368428
       9        0.000015237682    -0.000001049633     0.000000967062
      10       -0.000004298067    -0.000009372240     0.000004871283
      11        0.000017052273    -0.000007040271     0.000005537012
      12       -0.000014414495     0.000011993180     0.000015687730
      13       -0.000003388188    -0.000007728219     0.000024097078
      14        0.000000561245     0.000008429278     0.000012608567
      15       -0.000013173098    -0.000016472434    -0.000014905648
      16        0.000003067641    -0.000001516544    -0.000018769923
      17       -0.000004538992     0.000001495846     0.000004386679
      18        0.000000464984    -0.000003016869    -0.000003205254
      19       -0.000000012455    -0.000000280948     0.000006648363
      20       -0.000001832633    -0.000002507585    -0.000003846708
      21        0.000002718129     0.000002521248    -0.000002787359
      22       -0.000000668775    -0.000003090084    -0.000000491975
      23       -0.000001015931     0.000000118469     0.000002745635
      24        0.000002519575     0.000006449567     0.000002758105

  **** Optimization is complete! (in 5 steps) ****
    Final optimized geometry and variables:
    Molecular point group: c1

    Geometry (in Angstrom), charge = 0, multiplicity = 1:

    H           -2.425925215388    -0.088697315329    -3.142522185502
    O           -2.467577276334    -1.031060384774    -3.057621268737
    C           -2.219101289444    -1.390146860950    -1.721511777545
    C           -0.791010765751    -1.050288425301    -1.250509565762
    H           -2.391937446422    -2.456683852524    -1.678170155069
    H           -2.953028468577    -0.922993701654    -1.067083285063
    C           -0.744101105974    -0.083212141926    -0.064410012492
    H           -0.263690154762    -1.962752858673    -0.984771777623
    H           -0.250113906111    -0.628279425489    -2.093148621329
    C            0.678766509401     0.258644646022     0.380256730402
    H           -1.288430257838    -0.515286157992     0.773794770846
    H           -1.270931417520     0.834378434722    -0.324938593112
    C            0.716645599473     1.222886731271     1.568921186529
    H            1.199948203188    -0.661878850126     0.630417825395
    H            1.219921438697     0.698326197324    -0.456328347481
    C            2.122765973158     1.663840202359     1.991450131474
    H            0.214187513487     0.765496871944     2.419904419175
    H            0.138504874139     2.109661266688     1.316831945481
    C            2.999280404151     0.542015361643     2.551349082460
    H            2.027206616635     2.440784076738     2.745981699244
    H            2.624593455275     2.125480538705     1.143435820974
    H            2.516440458358     0.052925787822     3.393219727854
    H            3.950248906512     0.933573083843     2.899200397886
    H            3.213758756487    -0.216824582694     1.806253201892

  Mulliken Charges: (a.u.)
   Center  Symbol    Alpha    Beta     Spin     Total
       1     H     0.28403  0.28403  0.00000  0.43194
       2     O     4.36997  4.36997  0.00000 -0.73994
       3     C     2.99516  2.99516  0.00000  0.00968
       4     C     3.17529  3.17529  0.00000 -0.35059
       5     H     0.41402  0.41402  0.00000  0.17195
       6     H     0.42815  0.42815  0.00000  0.14369
       7     C     3.15733  3.15733  0.00000 -0.31466
       8     H     0.41743  0.41743  0.00000  0.16515
       9     H     0.41401  0.41401  0.00000  0.17198
      10     C     3.15381  3.15381  0.00000 -0.30762
      11     H     0.42198  0.42198  0.00000  0.15604
      12     H     0.42672  0.42672  0.00000  0.14657
      13     C     3.15247  3.15247  0.00000 -0.30494
      14     H     0.42047  0.42047  0.00000  0.15905
      15     H     0.42359  0.42359  0.00000  0.15281
      16     C     3.15241  3.15241  0.00000 -0.30481
      17     H     0.42403  0.42403  0.00000  0.15194
      18     H     0.42274  0.42274  0.00000  0.15452
      19     C     3.24133  3.24133  0.00000 -0.48266
      20     H     0.42079  0.42079  0.00000  0.15842
      21     H     0.42323  0.42323  0.00000  0.15355
      22     H     0.42223  0.42223  0.00000  0.15553
      23     H     0.41893  0.41893  0.00000  0.16214
      24     H     0.41987  0.41987  0.00000  0.16026

   Total alpha = 33.00000, Total beta = 33.00000, Total charge = -0.00000
