  ==> Input File <==

--------------------------------------------------------------------------
set {
	reference rhf
	basis 6-31G*
}

set_num_threads( 4 )
memory 2 gb

molecule MOL {
0 1

H	 -3.269016	 -0.876744	 0.468090
C	 -2.809304	 0.000122	 0.025886
N	 -1.391456	 0.000019	 0.300661
H	 -3.037557	 -0.000063	 -1.044252
H	 -3.269223	 0.876956	 0.468000
C	 -0.938419	 1.260471	 0.855464
C	 -0.605428	 -0.361940	 -0.862505
H	 -1.092934	 2.086791	 0.154873
H	 -1.514216	 1.475146	 1.749855
C	 0.537264	 1.183066	 1.214539
H	 -0.938399	 -1.330511	 -1.221056
H	 -0.737897	 0.356982	 -1.676821
C	 0.870256	 -0.439346	 -0.503429
H	 0.870236	 2.151635	 1.573091
H	 0.669734	 0.464143	 2.028855
N	 1.323292	 0.821106	 0.051374
H	 1.446053	 -0.654021	 -1.397820
H	 1.024770	 -1.265665	 0.197161
C	 2.741140	 0.821004	 0.326148
H	 3.046750	 1.799656	 0.679157
H	 3.291673	 0.607301	 -0.583287
H	 3.030652	 0.082550	 1.079915

	symmetry c1
}
set optking {
	frozen_dihedral = ("
		6 3 2 4
	")
}

ee = optimize('scf')
oeprop('DIPOLE', 'QUADRUPOLE', 'MULLIKEN_CHARGES')
f=open( 'psi4out.xyz', 'w' )
f.write( "22  " )
f.write( str(ee) + "\n" )
f.write( MOL.save_string_xyz() )
f.close()
--------------------------------------------------------------------------

    Molecular point group: c1
  Charge       = 0
  Multiplicity = 1
  Basis Set: 6-31G*
  Basis Set:
  @DF-RHF Final Energy:  -344.22436326392597
    Total Energy =                       -344.2243632639259658
    Molecular point group: c1
  Basis Set: 6-31G*
  Basis Set:
  Basis Set: 6-31G*
  Basis Set:
  @DF-RHF Final Energy:  -344.22498309155901
    Total Energy =                       -344.2249830915592383
  Basis Set: 6-31G*
  Basis Set:
  Basis Set: 6-31G*
  Basis Set:
  @DF-RHF Final Energy:  -344.22513081932124
    Total Energy =                       -344.2251308193212935
  Basis Set: 6-31G*
  Basis Set:
  Basis Set: 6-31G*
  Basis Set:
  @DF-RHF Final Energy:  -344.22513975746051
    Total Energy =                       -344.2251397574600560
  Basis Set: 6-31G*
  Basis Set:
  Charge       = 0
  Multiplicity = 1
  Basis Set: 6-31G*
  Basis Set:

    Orbital Energies (a.u.)
    -----------------------

    Doubly Occupied:

       1A    -15.541338     2A    -15.537631     3A    -11.238520
       4A    -11.238397     5A    -11.237451     6A    -11.237396
       7A    -11.235799     8A    -11.235447     9A     -1.252669
      10A     -1.200768    11A     -1.024392    12A     -0.990558
      13A     -0.911880    14A     -0.866588    15A     -0.835348
      16A     -0.753147    17A     -0.664298    18A     -0.634773
      19A     -0.629837    20A     -0.624663    21A     -0.618259
      22A     -0.578493    23A     -0.551175    24A     -0.549214
      25A     -0.542594    26A     -0.518713    27A     -0.497341
      28A     -0.488042    29A     -0.465343    30A     -0.455054
      31A     -0.348275    32A     -0.337042

  @DF-RHF Final Energy:  -344.22514042950525

   => Energetics <=

    Nuclear Repulsion Energy =            420.8130214110817633
    One-Electron Energy =               -1300.3954331684337831
    Two-Electron Energy =                 535.3572713278471156
    DFT Exchange-Correlation Energy =       0.0000000000000000
    Empirical Dispersion Energy =           0.0000000000000000
    PCM Polarization Energy =               0.0000000000000000
    EFP Energy =                            0.0000000000000000
    Total Energy =                       -344.2251404295049042
    Molecular point group: c1
  Basis Set: 6-31G*
  Basis Set:

  -Total Gradient:
     Atom            X                  Y                   Z
    ------   -----------------  -----------------  -----------------
       1        0.000004336351     0.000010671420    -0.000007790368
       2       -0.000448232467     0.004166709502     0.001173203814
       3        0.000637100985     0.000448719099    -0.003584951446
       4        0.000201168362    -0.003580545329    -0.000104210094
       5        0.000015039059    -0.000012546547     0.000007707365
       6       -0.000398204374    -0.001036677256     0.002527698330
       7       -0.000028363661    -0.000018608768    -0.000006605955
       8        0.000005690915    -0.000000417729     0.000003920802
       9        0.000004111332     0.000012731738     0.000002235347
      10        0.000000523753     0.000022188967     0.000002188109
      11        0.000005309290    -0.000004550980    -0.000012876031
      12       -0.000001286898     0.000001494156     0.000001146598
      13       -0.000001762483    -0.000006197707    -0.000009887083
      14        0.000006740525    -0.000003298532     0.000002013883
      15       -0.000009513581     0.000002191258     0.000002510179
      16       -0.000015863937    -0.000004651204     0.000007328323
      17       -0.000001983275    -0.000000086778     0.000003968310
      18       -0.000003225177    -0.000008249591    -0.000001345866
      19        0.000012027207     0.000015005792    -0.000010872406
      20        0.000009405576    -0.000002658291     0.000000641326
      21        0.000008437277    -0.000000278788     0.000004198260
      22       -0.000001454778    -0.000000944433    -0.000000221396

  **** Optimization is complete! (in 5 steps) ****
    Final optimized geometry and variables:
    Molecular point group: c1

    Geometry (in Angstrom), charge = 0, multiplicity = 1:

    H           -3.201262072235    -1.357906365864     0.270124512704
    C           -2.791403930651    -0.436085366518    -0.134189571389
    N           -1.359395880067    -0.369762729092     0.097183113536
    H           -3.037321180557    -0.418109500384    -1.194968582509
    H           -3.301929839779     0.391079696186     0.344246668979
    C           -0.897498885210     0.876075308697     0.673160929272
    C           -0.568934330909    -0.767166541008    -1.047342221409
    H           -1.034411557286     1.720789745135    -0.009354069077
    H           -1.471413906980     1.080432207194     1.570419182031
    C            0.574966669715     0.771936246642     1.039056453963
    H           -0.910248376599    -1.739882267475    -1.386998308132
    H           -0.684515907557    -0.066854711651    -1.880471289902
    C            0.902111690570    -0.857378432575    -0.673308078227
    H            0.922321319428     1.733001116188     1.404295044103
    H            0.690784492691     0.046447008208     1.850223045646
    N            1.362326065020     0.401782912773    -0.120959598932
    H            1.484755290633    -1.083081514421    -1.560593924883
    H            1.041767420900    -1.680641977160     0.034076838843
    C            2.778946095518     0.390799894552     0.160015103954
    H            3.091506801220     1.367803152634     0.511562211599
    H            3.331654335938     0.169786243427    -0.746346151657
    H            3.059183564905    -0.347968691935     0.917052737468

  Mulliken Charges: (a.u.)
   Center  Symbol    Alpha    Beta     Spin     Total
       1     H     0.41689  0.41689  0.00000  0.16622
       2     C     3.13838  3.13838  0.00000 -0.27675
       3     N     3.79407  3.79407  0.00000 -0.58814
       4     H     0.42652  0.42652  0.00000  0.14696
       5     H     0.41998  0.41998  0.00000  0.16005
       6     C     3.05320  3.05320  0.00000 -0.10640
       7     C     3.05397  3.05397  0.00000 -0.10795
       8     H     0.42949  0.42949  0.00000  0.14102
       9     H     0.41809  0.41809  0.00000  0.16382
      10     C     3.05688  3.05688  0.00000 -0.11375
      11     H     0.41786  0.41786  0.00000  0.16427
      12     H     0.42899  0.42899  0.00000  0.14203
      13     C     3.05650  3.05650  0.00000 -0.11300
      14     H     0.41837  0.41837  0.00000  0.16325
      15     H     0.42896  0.42896  0.00000  0.14208
      16     N     3.78718  3.78718  0.00000 -0.57436
      17     H     0.41832  0.41832  0.00000  0.16336
      18     H     0.42897  0.42897  0.00000  0.14207
      19     C     3.14009  3.14009  0.00000 -0.28019
      20     H     0.41686  0.41686  0.00000  0.16629
      21     H     0.41686  0.41686  0.00000  0.16627
      22     H     0.43359  0.43359  0.00000  0.13282

   Total alpha = 32.00000, Total beta = 32.00000, Total charge =  0.00000
