  ==> Input File <==

--------------------------------------------------------------------------
set {
	reference rhf
	basis 6-31G*
}

set_num_threads( 1 )
memory 2 gb

molecule MOL {
0 1

O	 3.825186	 -0.225340	 0.553724
C	 2.843464	 0.164689	 -0.000222
C	 1.546494	 -0.624492	 -0.000609
C	 2.829135	 1.483924	 -0.744917
C	 0.291004	 0.242674	 0.000989
H	 1.557904	 -1.283758	 -0.867573
H	 1.558622	 -1.285963	 0.864672
C	 -0.994322	 -0.586602	 0.000262
H	 0.309117	 0.896430	 -0.865270
H	 0.309661	 0.894078	 0.869017
C	 -2.259874	 0.272531	 0.000494
H	 -1.004862	 -1.240012	 -0.870939
H	 -1.005220	 -1.241071	 0.870675
C	 -3.549786	 -0.549746	 -0.000374
H	 -2.250389	 0.926680	 -0.869574
H	 -2.250838	 0.925513	 0.871430
C	 -4.809590	 0.315458	 -0.000369
H	 -3.560515	 -1.202009	 -0.871156
H	 -3.561123	 -1.202955	 0.869711
H	 -4.844746	 0.956611	 -0.876632
H	 -5.706986	 -0.295590	 -0.001609
H	 -4.845960	 0.954827	 0.877144
H	 2.075362	 2.145911	 -0.328724
H	 3.800484	 1.953307	 -0.674253
H	 2.577934	 1.326242	 -1.789747

	symmetry c1
}
set optking {
	frozen_dihedral = ("
		9 5 8 12,
		15 11 8 12,
		15 11 14 18,
		9 5 3 6
	")
}

ee = energy('scf')
oeprop('DIPOLE', 'QUADRUPOLE', 'MULLIKEN_CHARGES')
f=open( 'psi4out.xyz', 'w' )
f.write( "25  " )
f.write( str(ee) + "\n" )
f.write( MOL.save_string_xyz() )
f.close()
--------------------------------------------------------------------------

    Molecular point group: c1

    Geometry (in Angstrom), charge = 0, multiplicity = 1:

       Center              X                  Y                   Z               Mass
    ------------   -----------------  -----------------  -----------------  -----------------
           O          3.864457875684    -0.289892236941     0.576318936501    15.994914619560
           C          2.882735875684     0.100136763059     0.022372936501    12.000000000000
           C          1.585765875684    -0.689044236941     0.021985936501    12.000000000000
           C          2.868406875684     1.419371763059    -0.722322063499    12.000000000000
           C          0.330275875684     0.178121763059     0.023583936501    12.000000000000
           H          1.597175875684    -1.348310236941    -0.844978063499     1.007825032070
           H          1.597893875684    -1.350515236941     0.887266936501     1.007825032070
           C         -0.955050124316    -0.651154236941     0.022856936501    12.000000000000
           H          0.348388875684     0.831877763059    -0.842675063499     1.007825032070
           H          0.348932875684     0.829525763059     0.891611936501     1.007825032070
           C         -2.220602124316     0.207978763059     0.023088936501    12.000000000000
           H         -0.965590124316    -1.304564236941    -0.848344063499     1.007825032070
           H         -0.965948124316    -1.305623236941     0.893269936501     1.007825032070
           C         -3.510514124316    -0.614298236941     0.022220936501    12.000000000000
           H         -2.211117124316     0.862127763059    -0.846979063499     1.007825032070
           H         -2.211566124316     0.860960763059     0.894024936501     1.007825032070
           C         -4.770318124316     0.250905763059     0.022225936501    12.000000000000
           H         -3.521243124316    -1.266561236941    -0.848561063499     1.007825032070
           H         -3.521851124316    -1.267507236941     0.892305936501     1.007825032070
           H         -4.805474124316     0.892058763059    -0.854037063499     1.007825032070
           H         -5.667714124316    -0.360142236941     0.020985936501     1.007825032070
           H         -4.806688124316     0.890274763059     0.899738936501     1.007825032070
           H          2.114633875684     2.081358763059    -0.306129063499     1.007825032070
           H          3.839755875684     1.888754763059    -0.651658063499     1.007825032070
           H          2.617205875684     1.261689763059    -1.767152063499     1.007825032070

  Charge       = 0
  Multiplicity = 1
  Basis Set: 6-31G*
  Basis Set:

    Orbital Energies (a.u.)
    -----------------------

    Doubly Occupied:

       1A    -20.547719     2A    -11.325090     3A    -11.231211
       4A    -11.230233     5A    -11.226189     6A    -11.224830
       7A    -11.220906     8A    -11.220262     9A    -11.212822
      10A     -1.392963    11A     -1.103813    12A     -1.063793
      13A     -1.010421    14A     -0.970201    15A     -0.898201
      16A     -0.823273    17A     -0.798127    18A     -0.731947
      19A     -0.668573    20A     -0.650103    21A     -0.636652
      22A     -0.622407    23A     -0.600074    24A     -0.589901
      25A     -0.564059    26A     -0.558920    27A     -0.546601
      28A     -0.533750    29A     -0.518644    30A     -0.500122
      31A     -0.488853    32A     -0.475179    33A     -0.470091
      34A     -0.469179    35A     -0.459039    36A     -0.395735

  @DF-RHF Final Energy:  -387.13166057711578

   => Energetics <=

    Nuclear Repulsion Energy =            440.3542905316963925
    One-Electron Energy =               -1397.0122058784581895
    Two-Electron Energy =                 569.5262547696465845
    DFT Exchange-Correlation Energy =       0.0000000000000000
    Empirical Dispersion Energy =           0.0000000000000000
    PCM Polarization Energy =               0.0000000000000000
    EFP Energy =                            0.0000000000000000
    Total Energy =                       -387.1316605771152126

  Mulliken Charges: (a.u.)
   Center  Symbol    Alpha    Beta     Spin     Total
       1     O     4.26279  4.26279  0.00000 -0.52558
       2     C     2.72889  2.72889  0.00000  0.54222
       3     C     3.20748  3.20748  0.00000 -0.41497
       4     C     3.29564  3.29564  0.00000 -0.59129
       5     C     3.16678  3.16678  0.00000 -0.33357
       6     H     0.40561  0.40561  0.00000  0.18878
       7     H     0.39982  0.39982  0.00000  0.20036
       8     C     3.15189  3.15189  0.00000 -0.30378
       9     H     0.41754  0.41754  0.00000  0.16492
      10     H     0.41653  0.41653  0.00000  0.16693
      11     C     3.15124  3.15124  0.00000 -0.30247
      12     H     0.42180  0.42180  0.00000  0.15640
      13     H     0.41983  0.41983  0.00000  0.16035
      14     C     3.15202  3.15202  0.00000 -0.30404
      15     H     0.42372  0.42372  0.00000  0.15255
      16     H     0.42287  0.42287  0.00000  0.15426
      17     C     3.23957  3.23957  0.00000 -0.47915
      18     H     0.42257  0.42257  0.00000  0.15486
      19     H     0.42200  0.42200  0.00000  0.15600
      20     H     0.42162  0.42162  0.00000  0.15677
      21     H     0.41830  0.41830  0.00000  0.16340
      22     H     0.42126  0.42126  0.00000  0.15748
      23     H     0.40533  0.40533  0.00000  0.18934
      24     H     0.39613  0.39613  0.00000  0.20773
      25     H     0.40876  0.40876  0.00000  0.18248

   Total alpha = 36.00000, Total beta = 36.00000, Total charge = -0.00000
