  ==> Input File <==

--------------------------------------------------------------------------
set {
	reference rhf
	basis cc-pvtz
}

set_num_threads( 4 )
memory 2 gb

molecule MOL {
0 1

H	 2.190573	 -0.629143	 -0.208718
O	 1.355408	 -0.529451	 0.208662
C	 0.700177	 0.619554	 -0.266242
C	 -0.713111	 0.588314	 0.266177
H	 0.678680	 0.627133	 -1.351786
H	 1.199747	 1.521489	 0.077736
O	 -1.421673	 -0.521378	 -0.196983
H	 -1.244794	 1.469161	 -0.069059
H	 -0.685100	 0.604721	 1.352683
H	 -2.171665	 -0.218057	 -0.678161

	symmetry c1
}
set optking {
	frozen_dihedral = ("
		10 7 4 3
	")
}

ee = optimize('scf')
oeprop('DIPOLE', 'QUADRUPOLE', 'MULLIKEN_CHARGES')
f=open( 'psi4out.xyz', 'w' )
f.write( "10  " )
f.write( str(ee) + "\n" )
f.write( MOL.save_string_xyz() )
f.close()
--------------------------------------------------------------------------

    Molecular point group: c1
  Charge       = 0
  Multiplicity = 1
  Basis Set: CC-PVTZ
  Basis Set:
  @DF-RHF Final Energy:  -229.02049431260639
    Total Energy =                       -229.0204943126063881
    Molecular point group: c1
  Basis Set: CC-PVTZ
  Basis Set:
  Basis Set: CC-PVTZ
  Basis Set:
  @DF-RHF Final Energy:  -229.02180782255658
    Total Energy =                       -229.0218078225565534
  Basis Set: CC-PVTZ
  Basis Set:
  Basis Set: CC-PVTZ
  Basis Set:
  @DF-RHF Final Energy:  -229.02199235248784
    Total Energy =                       -229.0219923524877856
  Basis Set: CC-PVTZ
  Basis Set:
  Basis Set: CC-PVTZ
  Basis Set:
  @DF-RHF Final Energy:  -229.02200047919271
    Total Energy =                       -229.0220004791926840
  Basis Set: CC-PVTZ
  Basis Set:
  Basis Set: CC-PVTZ
  Basis Set:
  @DF-RHF Final Energy:  -229.02200177493461
    Total Energy =                       -229.0220017749344379
  Basis Set: CC-PVTZ
  Basis Set:
  Charge       = 0
  Multiplicity = 1
  Basis Set: CC-PVTZ
  Basis Set:

    Orbital Energies (a.u.)
    -----------------------

    Doubly Occupied:

       1A    -20.546235     2A    -20.545420     3A    -11.268995
       4A    -11.268072     5A     -1.374683     6A     -1.355308
       7A     -1.003142     8A     -0.836298     9A     -0.724815
      10A     -0.691898    11A     -0.641785    12A     -0.598129
      13A     -0.578379    14A     -0.519648    15A     -0.494882
      16A     -0.446798    17A     -0.433432

  @DF-RHF Final Energy:  -229.02200212985983

   => Energetics <=

    Nuclear Repulsion Energy =            133.2834202836309316
    One-Electron Energy =                -577.9550020548933844
    Two-Electron Energy =                 215.6495796414026813
    DFT Exchange-Correlation Energy =       0.0000000000000000
    Empirical Dispersion Energy =           0.0000000000000000
    PCM Polarization Energy =               0.0000000000000000
    EFP Energy =                            0.0000000000000000
    Total Energy =                       -229.0220021298597999
    Molecular point group: c1
  Basis Set: CC-PVTZ
  Basis Set:

  -Total Gradient:
     Atom            X                  Y                   Z
    ------   -----------------  -----------------  -----------------
       1        0.000012632136    -0.000006747217     0.000011795638
       2       -0.000035094119     0.000031808084    -0.000030524952
       3        0.000049085047    -0.000007281319     0.000006766608
       4       -0.000013250663     0.000019240982     0.000048618445
       5       -0.000003406122     0.000002438476    -0.000026596176
       6       -0.000003237034    -0.000013718173    -0.000007897758
       7       -0.000026189666    -0.000008513628     0.000022037289
       8       -0.000002776552    -0.000022509984     0.000001583760
       9        0.000003553782     0.000004790354     0.000015862225
      10        0.000018683186     0.000000492425    -0.000041645081

  **** Optimization is complete! (in 6 steps) ****
    Final optimized geometry and variables:
    Molecular point group: c1

    Geometry (in Angstrom), charge = 0, multiplicity = 1:

    H            2.238596530542    -0.620555089908    -0.169261894049
    O            1.418093170318    -0.512685805368     0.274248153097
    C            0.712417501378     0.566615925283    -0.266299638977
    C           -0.697946225919     0.554606809200     0.275387053304
    H            0.677230579115     0.508144217672    -1.350851606182
    H            1.182518441638     1.509449865748     0.008893052632
    O           -1.434284381103    -0.527260046154    -0.228685814709
    H           -1.171600500680     1.499048237485     0.024104901742
    H           -0.657645482854     0.479766596700     1.356079535051
    H           -2.184440300648    -0.221365509686    -0.700273648751

  Mulliken Charges: (a.u.)
   Center  Symbol    Alpha    Beta     Spin     Total
       1     H     0.39541  0.39541  0.00000  0.20918
       2     O     4.19353  4.19353  0.00000 -0.38705
       3     C     2.95408  2.95408  0.00000  0.09185
       4     C     2.96829  2.96829  0.00000  0.06342
       5     H     0.47809  0.47809  0.00000  0.04382
       6     H     0.47940  0.47940  0.00000  0.04119
       7     O     4.19947  4.19947  0.00000 -0.39893
       8     H     0.47498  0.47498  0.00000  0.05003
       9     H     0.46404  0.46404  0.00000  0.07193
      10     H     0.39272  0.39272  0.00000  0.21456

   Total alpha = 17.00000, Total beta = 17.00000, Total charge = -0.00000
