                              Psi4 1.0.54 Driver

  ==> Input File <==

--------------------------------------------------------------------------
set {
	reference rhf
	basis cc-pvtz
}

set_num_threads( 4 )
memory 2 gb

molecule MOL {
0 1

H	 -3.294565	 0.569785	 0.000000
C	 -2.246225	 0.343737	 0.000000
C	 -1.809462	 -0.973484	 0.000000
C	 -1.312577	 1.353775	 0.000000
H	 -2.523539	 -1.775124	 0.000000
C	 -0.467257	 -1.267606	 0.000000
H	 -1.631287	 2.379013	 0.000000
C	 0.046966	 1.074396	 0.000000
H	 -0.119372	 -2.281828	 0.000000
C	 0.471772	 -0.241514	 0.000000
H	 0.748162	 1.882966	 0.000000
O	 1.760432	 -0.625184	 0.000000
C	 2.088693	 -1.965449	 0.209983
H	 1.754719	 -2.309089	 1.182650
H	 3.164689	 -2.026048	 0.166086
H	 1.667099	 -2.603385	 -0.558786

	symmetry c1
}
set optking {
	frozen_dihedral = ("
		13 12 10 8
	")
}

ee,wfn = optimize('scf', return_wfn=True)
oeprop( wfn, 'DIPOLE', 'QUADRUPOLE', 'MULLIKEN_CHARGES')
f=open( 'psi4out.xyz', 'w' )
f.write( "16  " )
f.write( str(ee) + "\n" )
f.write( MOL.save_string_xyz() )
f.close()
--------------------------------------------------------------------------

    Molecular point group: c1
  Charge       = 0
  Multiplicity = 1
  Basis Set: CC-PVTZ
  Basis Set:
  @DF-RHF Final Energy:  -344.69509447096914
    Total Energy =                       -344.6950944709687974
    Molecular point group: c1
  Basis Set: CC-PVTZ
  Basis Set:
  Basis Set: CC-PVTZ
  Basis Set:
  @DF-RHF Final Energy:  -344.69911662293623
    Total Energy =                       -344.6991166229363444
  Basis Set: CC-PVTZ
  Basis Set:
  Basis Set: CC-PVTZ
  Basis Set:
  @DF-RHF Final Energy:  -344.70301714130312
    Total Energy =                       -344.7030171413030075
  Basis Set: CC-PVTZ
  Basis Set:
  Basis Set: CC-PVTZ
  Basis Set:
  @DF-RHF Final Energy:  -344.70351756113280
    Total Energy =                       -344.7035175611329123
  Basis Set: CC-PVTZ
  Basis Set:
  Basis Set: CC-PVTZ
  Basis Set:
  @DF-RHF Final Energy:  -344.70357741279508
    Total Energy =                       -344.7035774127949708
  Basis Set: CC-PVTZ
  Basis Set:
  Basis Set: CC-PVTZ
  Basis Set:
  @DF-RHF Final Energy:  -344.70358410433005
    Total Energy =                       -344.7035841043302753
  Basis Set: CC-PVTZ
  Basis Set:
  Charge       = 0
  Multiplicity = 1
  Basis Set: CC-PVTZ
  Basis Set:

    Orbital Energies (a.u.)
    -----------------------

    Doubly Occupied:

       1A    -20.580122     2A    -11.293517     3A    -11.278449
       4A    -11.231285     5A    -11.230023     6A    -11.221938
       7A    -11.218061     8A    -11.217058     9A     -1.419567
      10A     -1.151003    11A     -1.025670    12A     -1.016689
      13A     -0.944154    14A     -0.834646    15A     -0.808349
      16A     -0.726086    17A     -0.667771    18A     -0.666579
      19A     -0.660552    20A     -0.619319    21A     -0.590348
      22A     -0.579729    23A     -0.528654    24A     -0.523124
      25A     -0.512229    26A     -0.479661    27A     -0.466532
      28A     -0.339783    29A     -0.310333

  @DF-RHF Final Energy:  -344.70358506164007

   => Energetics <=

    Nuclear Repulsion Energy =            348.8985501321503762
    One-Electron Energy =               -1158.9218103149610215
    Two-Electron Energy =                 465.3196751211704623
    DFT Exchange-Correlation Energy =       0.0000000000000000
    Empirical Dispersion Energy =           0.0000000000000000
    PCM Polarization Energy =               0.0000000000000000
    EFP Energy =                            0.0000000000000000
    Total Energy =                       -344.7035850616401831
    Molecular point group: c1
  Basis Set: CC-PVTZ
  Basis Set:

  -Total Gradient:
     Atom            X                  Y                   Z
    ------   -----------------  -----------------  -----------------
       1       -0.000014937284     0.000001962404    -0.000003542555
       2       -0.000032636608    -0.000071024505     0.000028054557
       3       -0.000053876013     0.000049716129    -0.000016690445
       4        0.000087511954    -0.000009203947    -0.000026699324
       5       -0.000011518341    -0.000000449803    -0.000004492330
       6        0.000042160655    -0.000015345136    -0.000047128620
       7        0.000006094103    -0.000008417513     0.000008406489
       8        0.000048868624     0.000008772469     0.000765383423
       9       -0.000010279271    -0.000007763508    -0.000012003467
      10       -0.000093698123     0.000070651021    -0.000596318056
      11        0.000027247009     0.000003985521     0.000001849801
      12       -0.000091750093    -0.000227700362    -0.000930274965
      13        0.000070504058     0.000147001563     0.000825728798
      14        0.000018721305     0.000003072607    -0.000011751552
      15        0.000007436560     0.000014228225    -0.000020603373
      16        0.000000151465     0.000040514838     0.000040081618

  **** Optimization is complete! (in 7 steps) ****
    Final optimized geometry and variables:
    Molecular point group: c1

    Geometry (in Angstrom), charge = 0, multiplicity = 1:

    H           -2.893407216114     1.673098200498    -0.074466076235
    C           -1.944283969924     1.173895524795    -0.061460944221
    C           -1.876451102910    -0.198797878756    -0.003254655376
    C           -0.764399217286     1.903066474105    -0.101931663139
    H           -2.778770818606    -0.779730328147     0.029052995957
    C           -0.654396609386    -0.856230209986     0.014173460481
    H           -0.797975177217     2.975231318497    -0.144967250598
    C            0.454001340184     1.267676554201    -0.083278337674
    H           -0.634398611618    -1.925524997898     0.058286297255
    C            0.515517125391    -0.120406435354    -0.028353146251
    H            1.371697414243     1.821514784165    -0.112124039530
    O            1.749974497298    -0.654689500442    -0.023785168789
    C            1.918959911057    -2.015485044657     0.238885563145
    H            1.478331391255    -2.292444719221     1.190050906508
    H            2.982933091018    -2.188727165163     0.277384265889
    H            1.491804345947    -2.630153920006    -0.545442288464

  Mulliken Charges: (a.u.)
   Center  Symbol    Alpha    Beta     Spin     Total
       1     H     0.42440  0.42440  0.00000  0.15120
       2     C     3.10061  3.10061  0.00000 -0.20123
       3     C     3.06150  3.06150  0.00000 -0.12299
       4     C     3.05826  3.05826  0.00000 -0.11653
       5     H     0.42357  0.42357  0.00000  0.15286
       6     C     3.14268  3.14268  0.00000 -0.28536
       7     H     0.42297  0.42297  0.00000  0.15406
       8     C     3.11137  3.11137  0.00000 -0.22274
       9     H     0.42253  0.42253  0.00000  0.15495
      10     C     2.85120  2.85120  0.00000  0.29761
      11     H     0.42081  0.42081  0.00000  0.15837
      12     O     4.15166  4.15166  0.00000 -0.30332
      13     C     3.04500  3.04500  0.00000 -0.09000
      14     H     0.46204  0.46204  0.00000  0.07591
      15     H     0.43901  0.43901  0.00000  0.12199
      16     H     0.46240  0.46240  0.00000  0.07521

   Total alpha = 29.00000, Total beta = 29.00000, Total charge =  0.00000

*** Psi4 exiting successfully. Buy a developer a beer!
