  ==> Input File <==

--------------------------------------------------------------------------
set {
	reference rhf
	basis cc-pvtz
}

set_num_threads( 4 )
memory 2 gb

molecule MOL {
0 1

H	 1.651322	 -0.822465	 0.000000
O	 0.729993	 -1.034364	 0.000000
C	 0.037305	 0.100061	 0.000000
C	 0.771752	 1.207148	 -0.694999
O	 -1.030258	 0.189768	 0.499054
H	 1.721859	 1.374216	 -0.204232
H	 0.176935	 2.105143	 -0.672089
H	 0.975928	 0.918745	 -1.718036

	symmetry c1
}
set optking {
	frozen_dihedral = ("
		4 3 2 1
	")
}

ee = optimize('scf')
oeprop('DIPOLE', 'QUADRUPOLE', 'MULLIKEN_CHARGES')
f=open( 'psi4out.xyz', 'w' )
f.write( "8  " )
f.write( str(ee) + "\n" )
f.write( MOL.save_string_xyz() )
f.close()
--------------------------------------------------------------------------

    Molecular point group: c1
  Charge       = 0
  Multiplicity = 1
  Basis Set: CC-PVTZ
  Basis Set:
  @DF-RHF Final Energy:  -227.89073796505042
    Total Energy =                       -227.8907379650503628
    Molecular point group: c1
  Basis Set: CC-PVTZ
  Basis Set:
  Basis Set: CC-PVTZ
  Basis Set:
  @DF-RHF Final Energy:  -227.89035655546868
    Total Energy =                       -227.8903565554686281
  Basis Set: CC-PVTZ
  Basis Set:
  Basis Set: CC-PVTZ
  Basis Set:
  @DF-RHF Final Energy:  -227.89141983885469
    Total Energy =                       -227.8914198388547732
  Basis Set: CC-PVTZ
  Basis Set:
  Basis Set: CC-PVTZ
  Basis Set:
  @DF-RHF Final Energy:  -227.89253907920693
    Total Energy =                       -227.8925390792068981
  Basis Set: CC-PVTZ
  Basis Set:
  @DF-RHF Final Energy:  -227.89255673565526
    Total Energy =                       -227.8925567356553188
  Basis Set: CC-PVTZ
  Basis Set:
  @DF-RHF Final Energy:  -227.89256886509284
    Total Energy =                       -227.8925688650929260
  Basis Set: CC-PVTZ
  Basis Set:
  Basis Set: CC-PVTZ
  Basis Set:
  @DF-RHF Final Energy:  -227.89257439807523
    Total Energy =                       -227.8925743980752259
  Basis Set: CC-PVTZ
  Basis Set:
  Basis Set: CC-PVTZ
  Basis Set:
  @DF-RHF Final Energy:  -227.89257303230679
    Total Energy =                       -227.8925730323069558
  Basis Set: CC-PVTZ
  Basis Set:
  Charge       = 0
  Multiplicity = 1
  Basis Set: CC-PVTZ
  Basis Set:

    Orbital Energies (a.u.)
    -----------------------

    Doubly Occupied:

       1A    -20.604277     2A    -20.540946     3A    -11.378002
       4A    -11.249141     5A     -1.472457     6A     -1.376195
       7A     -1.026885     8A     -0.841303     9A     -0.721291
      10A     -0.672207    11A     -0.660804    12A     -0.603315
      13A     -0.575343    14A     -0.548285    15A     -0.486152
      16A     -0.450467

  @DF-RHF Final Energy:  -227.89257365449356

   => Energetics <=

    Nuclear Repulsion Energy =            122.4988776501123056
    One-Electron Energy =                -554.3687610125496121
    Two-Electron Energy =                 203.9773097079437321
    DFT Exchange-Correlation Energy =       0.0000000000000000
    Empirical Dispersion Energy =           0.0000000000000000
    PCM Polarization Energy =               0.0000000000000000
    EFP Energy =                            0.0000000000000000
    Total Energy =                       -227.8925736544935603
    Molecular point group: c1
  Basis Set: CC-PVTZ
  Basis Set:

  -Total Gradient:
     Atom            X                  Y                   Z
    ------   -----------------  -----------------  -----------------
       1       -0.000096431674     0.000142233867     0.005400950496
       2       -0.000426334538    -0.000566057739    -0.008013086908
       3        0.001616390437     0.001227393946     0.005053055212
       4       -0.001329507038    -0.000903505172    -0.002783585116
       5        0.000217872128     0.000085654239     0.000316730854
       6        0.000002356475     0.000009056317     0.000011422413
       7        0.000003685164     0.000004774987     0.000004735543
       8        0.000011969047     0.000000449553     0.000009777505

  **** Optimization is complete! (in 9 steps) ****
    Final optimized geometry and variables:
    Molecular point group: c1

    Geometry (in Angstrom), charge = 0, multiplicity = 1:

    H            1.503654655117    -1.013989749578     0.113715655567
    O            0.571657931594    -1.145776587831     0.101333241683
    C           -0.101476238685     0.011754531819     0.060822191050
    C            0.610564540260     1.141012354584    -0.638332398025
    O           -1.197006060310     0.078334561327     0.479222467147
    H            1.587855711481     1.317831083986    -0.202393422879
    H            0.018445008361     2.038422013181    -0.570614517577
    H            0.753146039997     0.873018407989    -1.678233015606

  Mulliken Charges: (a.u.)
   Center  Symbol    Alpha    Beta     Spin     Total
       1     H     0.38893  0.38893  0.00000  0.22214
       2     O     4.14815  4.14815  0.00000 -0.29629
       3     C     2.81023  2.81023  0.00000  0.37954
       4     C     3.14750  3.14750  0.00000 -0.29499
       5     O     4.17215  4.17215  0.00000 -0.34430
       6     H     0.45683  0.45683  0.00000  0.08635
       7     H     0.43445  0.43445  0.00000  0.13110
       8     H     0.44177  0.44177  0.00000  0.11646

   Total alpha = 16.00000, Total beta = 16.00000, Total charge =  0.00000
