  ==> Input File <==

--------------------------------------------------------------------------
set {
	reference rhf
	basis 6-31G*
}

set_num_threads( 1 )
memory 2 gb

molecule MOL {
0 1

H	 3.049719	 -0.892465	 -0.833004
N	 3.092854	 -0.246221	 -0.068770
C	 1.865559	 0.531981	 0.018834
H	 3.877339	 0.353593	 -0.240927
C	 0.645745	 -0.382037	 -0.029944
H	 1.841966	 1.207024	 -0.831236
H	 1.815756	 1.155410	 0.915079
C	 -0.679275	 0.379305	 0.025956
H	 0.698998	 -0.976915	 -0.937203
H	 0.693479	 -1.083846	 0.802235
C	 -1.903357	 -0.536963	 -0.023547
H	 -0.726309	 1.082987	 -0.803784
H	 -0.717680	 0.977832	 0.934877
C	 -3.225172	 0.228290	 0.028445
H	 -1.867824	 -1.134999	 -0.931459
H	 -1.860449	 -1.239604	 0.805977
H	 -3.313397	 0.915643	 -0.808262
H	 -4.073500	 -0.448134	 -0.008893
H	 -3.306061	 0.809945	 0.942516

	symmetry c1
}
set optking {
	frozen_dihedral = ("
		6 3 5 9,
		12 8 5 9,
		12 8 11 15
	")
}

ee = energy('scf')
oeprop('DIPOLE', 'QUADRUPOLE', 'MULLIKEN_CHARGES')
f=open( 'psi4out.xyz', 'w' )
f.write( "19  " )
f.write( str(ee) + "\n" )
f.write( MOL.save_string_xyz() )
f.close()
--------------------------------------------------------------------------

    Molecular point group: c1

    Geometry (in Angstrom), charge = 0, multiplicity = 1:

       Center              X                  Y                   Z               Mass
    ------------   -----------------  -----------------  -----------------  -----------------
           H          3.051635346611    -0.891675339429    -0.813166675881     1.007825032070
           N          3.094770346611    -0.245431339429    -0.048932675881    14.003074004780
           C          1.867475346611     0.532770660571     0.038671324119    12.000000000000
           H          3.879255346611     0.354382660571    -0.221089675881     1.007825032070
           C          0.647661346611    -0.381247339429    -0.010106675881    12.000000000000
           H          1.843882346611     1.207813660571    -0.811398675881     1.007825032070
           H          1.817672346611     1.156199660571     0.934916324119     1.007825032070
           C         -0.677358653389     0.380094660571     0.045793324119    12.000000000000
           H          0.700914346611    -0.976125339429    -0.917365675881     1.007825032070
           H          0.695395346611    -1.083056339429     0.822072324119     1.007825032070
           C         -1.901440653389    -0.536173339429    -0.003709675881    12.000000000000
           H         -0.724392653389     1.083776660571    -0.783946675881     1.007825032070
           H         -0.715763653389     0.978621660571     0.954714324119     1.007825032070
           C         -3.223255653389     0.229079660571     0.048282324119    12.000000000000
           H         -1.865907653389    -1.134209339429    -0.911621675881     1.007825032070
           H         -1.858532653389    -1.238814339429     0.825814324119     1.007825032070
           H         -3.311480653389     0.916432660571    -0.788424675881     1.007825032070
           H         -4.071583653389    -0.447344339429     0.010944324119     1.007825032070
           H         -3.304144653389     0.810734660571     0.962353324119     1.007825032070

  Charge       = 0
  Multiplicity = 1
  Basis Set: 6-31G*
  Basis Set:

    Orbital Energies (a.u.)
    -----------------------

    Doubly Occupied:

       1A    -15.530245     2A    -11.240016     3A    -11.215315
       4A    -11.214518     5A    -11.212745     6A    -11.208480
       7A     -1.176493     8A     -1.074315     9A     -0.999361
      10A     -0.900634    11A     -0.814737    12A     -0.791611
      13A     -0.659466    14A     -0.644903    15A     -0.613804
      16A     -0.594984    17A     -0.565263    18A     -0.547062
      19A     -0.536983    20A     -0.498477    21A     -0.485373
      22A     -0.467322    23A     -0.462851    24A     -0.448708
      25A     -0.376417

  @DF-RHF Final Energy:  -251.34897431549848

   => Energetics <=

    Nuclear Repulsion Energy =            245.7843383941424236
    One-Electron Energy =                -825.7064712880511479
    Two-Electron Energy =                 328.5731585784104709
    DFT Exchange-Correlation Energy =       0.0000000000000000
    Empirical Dispersion Energy =           0.0000000000000000
    PCM Polarization Energy =               0.0000000000000000
    EFP Energy =                            0.0000000000000000
    Total Energy =                       -251.3489743154982534

  Mulliken Charges: (a.u.)
   Center  Symbol    Alpha    Beta     Spin     Total
       1     H     0.33462  0.33462  0.00000  0.33075
       2     N     3.92349  3.92349  0.00000 -0.84699
       3     C     3.05531  3.05531  0.00000 -0.11063
       4     H     0.33356  0.33356  0.00000  0.33289
       5     C     3.15673  3.15673  0.00000 -0.31345
       6     H     0.43511  0.43511  0.00000  0.12977
       7     H     0.42022  0.42022  0.00000  0.15957
       8     C     3.15436  3.15436  0.00000 -0.30871
       9     H     0.42730  0.42730  0.00000  0.14539
      10     H     0.41392  0.41392  0.00000  0.17216
      11     C     3.15111  3.15111  0.00000 -0.30222
      12     H     0.42420  0.42420  0.00000  0.15159
      13     H     0.42280  0.42280  0.00000  0.15441
      14     C     3.23942  3.23942  0.00000 -0.47884
      15     H     0.42318  0.42318  0.00000  0.15364
      16     H     0.42188  0.42188  0.00000  0.15625
      17     H     0.42205  0.42205  0.00000  0.15589
      18     H     0.41915  0.41915  0.00000  0.16170
      19     H     0.42159  0.42159  0.00000  0.15681

   Total alpha = 25.00000, Total beta = 25.00000, Total charge =  0.00000
