                              Psi4 1.0.54 Driver

  ==> Input File <==

--------------------------------------------------------------------------
set {
	reference rhf
	basis cc-pvtz
}

set_num_threads( 4 )
memory 2 gb

molecule MOL {
0 1

H	 -1.146964	 -0.318825	 0.746095
N	 -0.712187	 0.000026	 -0.093397
C	 0.734067	 -0.000020	 0.038424
H	 -1.054284	 0.920409	 -0.270344
H	 1.140372	 -0.872115	 -0.458226
H	 1.140363	 0.872301	 -0.457869
H	 1.095085	 -0.000244	 1.065614

	symmetry c1
}
set optking {
	frozen_dihedral = ("
		1 2 3 7
	")
}

ee,wfn = optimize('scf', return_wfn=True)
oeprop( wfn, 'DIPOLE', 'QUADRUPOLE', 'MULLIKEN_CHARGES')
f=open( 'psi4out.xyz', 'w' )
f.write( "7  " )
f.write( str(ee) + "\n" )
f.write( MOL.save_string_xyz() )
f.close()
--------------------------------------------------------------------------

    Molecular point group: c1
  Charge       = 0
  Multiplicity = 1
  Basis Set: CC-PVTZ
  Basis Set:
  @DF-RHF Final Energy:   -95.25109077308259
    Total Energy =                        -95.2510907730826233
    Molecular point group: c1
  Basis Set: CC-PVTZ
  Basis Set:
  Basis Set: CC-PVTZ
  Basis Set:
  @DF-RHF Final Energy:   -95.25125507868572
    Total Energy =                        -95.2512550786857162
  Basis Set: CC-PVTZ
  Basis Set:
  Basis Set: CC-PVTZ
  Basis Set:
  @DF-RHF Final Energy:   -95.25129212247799
    Total Energy =                        -95.2512921224780769
  Basis Set: CC-PVTZ
  Basis Set:
  Charge       = 0
  Multiplicity = 1
  Basis Set: CC-PVTZ
  Basis Set:

    Orbital Energies (a.u.)
    -----------------------

    Doubly Occupied:

       1A    -15.527794     2A    -11.235731     3A     -1.170583
       4A     -0.897990     5A     -0.664899     6A     -0.601165
       7A     -0.558636     8A     -0.518444     9A     -0.385941

  @DF-RHF Final Energy:   -95.25129261680640

   => Energetics <=

    Nuclear Repulsion Energy =             42.3139874014585899
    One-Electron Energy =                -212.0081940061253931
    Two-Electron Energy =                  74.4429139878604644
    DFT Exchange-Correlation Energy =       0.0000000000000000
    Empirical Dispersion Energy =           0.0000000000000000
    PCM Polarization Energy =               0.0000000000000000
    EFP Energy =                            0.0000000000000000
    Total Energy =                        -95.2512926168063530
    Molecular point group: c1
  Basis Set: CC-PVTZ
  Basis Set:

  -Total Gradient:
     Atom            X                  Y                   Z
    ------   -----------------  -----------------  -----------------
       1       -0.000087874430     0.002429658074     0.000853802819
       2        0.000136242874    -0.003743294211    -0.001013364191
       3       -0.000135613432     0.003771003207     0.000176122917
       4        0.000020256118    -0.000040393553    -0.000024934816
       5       -0.000004709213     0.000001700121     0.000001644724
       6        0.000052587743     0.000005341656     0.000009475620
       7        0.000019110340    -0.002424015294    -0.000002747073

  **** Optimization is complete! (in 4 steps) ****
    Final optimized geometry and variables:
    Molecular point group: c1

    Geometry (in Angstrom), charge = 0, multiplicity = 1:

    H           -1.149555292674    -0.340521361392     0.755191199178
    N           -0.716456908903    -0.020473321874    -0.083639612855
    C            0.736670803100    -0.017750438317     0.039627507986
    H           -1.059638564514     0.901881623027    -0.241645104740
    H            1.154697112799    -0.896017250107    -0.438946763320
    H            1.156314583155     0.849267757400    -0.454021569874
    H            1.081472356911    -0.018795835551     1.069702367322

  Mulliken Charges: (a.u.)
   Center  Symbol    Alpha    Beta     Spin     Total
       1     H     0.42923  0.42923  0.00000  0.14154
       2     N     3.68529  3.68529  0.00000 -0.37057
       3     C     3.06981  3.06981  0.00000 -0.13963
       4     H     0.42835  0.42835  0.00000  0.14331
       5     H     0.45995  0.45995  0.00000  0.08010
       6     H     0.45952  0.45952  0.00000  0.08096
       7     H     0.46785  0.46785  0.00000  0.06429

   Total alpha =  9.00000, Total beta =  9.00000, Total charge = -0.00000

*** Psi4 exiting successfully. Buy a developer a beer!
