  ==> Input File <==

--------------------------------------------------------------------------
set {
	reference rhf
	basis 6-31G*
}

set_num_threads( 4 )
memory 2 gb

molecule MOL {
0 1

H	 -3.268288	 -0.291324	 1.444831
C	 -3.308529	 -0.268686	 0.348706
C	 -2.656284	 0.931914	 -0.288279
O	 -3.839083	 -1.148750	 -0.247742
C	 -1.218017	 1.149660	 0.201853
H	 -2.696734	 0.812313	 -1.364740
H	 -3.259345	 1.800328	 -0.025925
C	 -0.250753	 0.046504	 -0.234893
H	 -0.867683	 2.106292	 -0.174184
H	 -1.214936	 1.231934	 1.287661
C	 1.180775	 0.282413	 0.250794
H	 -0.258878	 -0.024632	 -1.320582
H	 -0.599641	 -0.916864	 0.132174
C	 2.148627	 -0.814315	 -0.201312
H	 1.519989	 1.250133	 -0.110017
H	 1.187389	 0.341227	 1.338397
C	 3.580890	 -0.659131	 0.322722
H	 2.166869	 -0.852443	 -1.289387
H	 1.762857	 -1.776509	 0.128956
C	 4.324889	 0.564933	 -0.213704
H	 4.142010	 -1.551473	 0.056605
H	 3.564836	 -0.624694	 1.410140
H	 4.342616	 0.565491	 -1.300421
H	 3.866655	 1.493402	 0.110242
H	 5.353900	 0.572371	 0.132816

	symmetry c1
}
set optking {
	frozen_dihedral = ("
		8 11 14 18
	")
}

ee = optimize('scf')
oeprop('DIPOLE', 'QUADRUPOLE', 'MULLIKEN_CHARGES')
f=open( 'psi4out.xyz', 'w' )
f.write( "25  " )
f.write( str(ee) + "\n" )
f.write( MOL.save_string_xyz() )
f.close()
--------------------------------------------------------------------------

    Molecular point group: c1
  Charge       = 0
  Multiplicity = 1
  Basis Set: 6-31G*
  Basis Set:
  @DF-RHF Final Energy:  -387.12205375116724
    Total Energy =                       -387.1220537511666180
    Molecular point group: c1
  Basis Set: 6-31G*
  Basis Set:
  Basis Set: 6-31G*
  Basis Set:
  @DF-RHF Final Energy:  -387.12169192418418
    Total Energy =                       -387.1216919241842334
  Basis Set: 6-31G*
  Basis Set:
  Basis Set: 6-31G*
  Basis Set:
  @DF-RHF Final Energy:  -387.12204280417785
    Total Energy =                       -387.1220428041779087
  Basis Set: 6-31G*
  Basis Set:
  Basis Set: 6-31G*
  Basis Set:
  @DF-RHF Final Energy:  -387.12204932202116
    Total Energy =                       -387.1220493220215531
  Basis Set: 6-31G*
  Basis Set:
  Basis Set: 6-31G*
  Basis Set:
  @DF-RHF Final Energy:  -387.12204808189927
    Total Energy =                       -387.1220480818998340
  Basis Set: 6-31G*
  Basis Set:
  Basis Set: 6-31G*
  Basis Set:
  @DF-RHF Final Energy:  -387.12205682705593
    Total Energy =                       -387.1220568270562126
  Basis Set: 6-31G*
  Basis Set:
  Basis Set: 6-31G*
  Basis Set:
  @DF-RHF Final Energy:  -387.12205248272829
    Total Energy =                       -387.1220524827276677
  Basis Set: 6-31G*
  Basis Set:
  Charge       = 0
  Multiplicity = 1
  Basis Set: 6-31G*
  Basis Set:

    Orbital Energies (a.u.)
    -----------------------

    Doubly Occupied:

       1A    -20.562022     2A    -11.326180     3A    -11.235375
       4A    -11.234691     5A    -11.223999     6A    -11.219899
       7A    -11.218088     8A    -11.217021     9A    -11.210733
      10A     -1.401965    11A     -1.104016    12A     -1.069733
      13A     -1.013416    14A     -0.942531    15A     -0.875300
      16A     -0.820650    17A     -0.788137    18A     -0.781383
      19A     -0.664501    20A     -0.662021    21A     -0.632816
      22A     -0.625998    23A     -0.601339    24A     -0.594754
      25A     -0.575680    26A     -0.549407    27A     -0.536112
      28A     -0.524912    29A     -0.508160    30A     -0.495151
      31A     -0.491808    32A     -0.479534    33A     -0.464743
      34A     -0.458959    35A     -0.441287    36A     -0.409561

  @DF-RHF Final Energy:  -387.12205734957240

   => Energetics <=

    Nuclear Repulsion Energy =            439.0976167556649443
    One-Electron Energy =               -1394.5155780583336309
    Two-Electron Energy =                 568.2959039530963992
    DFT Exchange-Correlation Energy =       0.0000000000000000
    Empirical Dispersion Energy =           0.0000000000000000
    PCM Polarization Energy =               0.0000000000000000
    EFP Energy =                            0.0000000000000000
    Total Energy =                       -387.1220573495722874
    Molecular point group: c1
  Basis Set: 6-31G*
  Basis Set:

  -Total Gradient:
     Atom            X                  Y                   Z
    ------   -----------------  -----------------  -----------------
       1        0.000001600683     0.000001349238    -0.000001019252
       2       -0.000002424491    -0.000000916742     0.000005621676
       3        0.000003485789    -0.000002820452    -0.000004468570
       4        0.000002619467     0.000003645473    -0.000002973396
       5       -0.000001570114    -0.000000599207     0.000005220476
       6       -0.000000993141     0.000000516864    -0.000000553259
       7       -0.000000160671    -0.000000576761     0.000000289441
       8        0.000019473180     0.000050337683    -0.000089576633
       9       -0.000000815029    -0.000003766400     0.000000113712
      10       -0.000000559862     0.000002081700     0.000003503240
      11       -0.000049159775    -0.000092177340     0.000118256077
      12       -0.000001441672    -0.000003344839    -0.000001162080
      13        0.000001440498     0.000003318830     0.000000158789
      14        0.000129017461     0.000129894171    -0.000037634617
      15        0.000000824392    -0.000000239832    -0.000001299664
      16        0.000000186002     0.000001742366     0.000003173142
      17       -0.000002553922     0.000004035649     0.000003198956
      18       -0.000098573612    -0.000088113493    -0.000001454994
      19        0.000000264027    -0.000000399071     0.000001888160
      20       -0.000002361201    -0.000003018598     0.000000380445
      21        0.000000151438     0.000001389095    -0.000001397251
      22        0.000001647455     0.000000612492    -0.000000280678
      23       -0.000000733119     0.000000095021    -0.000002167584
      24       -0.000002086184    -0.000002560505    -0.000000083337
      25        0.000002722403    -0.000000485338     0.000002267201

  **** Optimization is complete! (in 8 steps) ****
    Final optimized geometry and variables:
    Molecular point group: c1

    Geometry (in Angstrom), charge = 0, multiplicity = 1:

    H           -3.277360602463    -0.297271455721     1.452226211320
    C           -3.311542343414    -0.274184893728     0.355814992148
    C           -2.656410733915     0.927132083438    -0.276992653618
    O           -3.843801128118    -1.151390001560    -0.243394103213
    C           -1.219070657298     1.142492844705     0.217150410568
    H           -2.694110759901     0.809489113948    -1.353822912195
    H           -3.259371577988     1.795548270378    -0.014699382226
    C           -0.250461435720     0.041953103911    -0.223308606794
    H           -0.868044624722     2.101545816218    -0.152547589538
    H           -1.218296281648     1.218469234456     1.303260724953
    C            1.181444237024     0.279162564063     0.260686159686
    H           -0.259523176123    -0.025623594475    -1.309224375197
    H           -0.597494926941    -0.923161640501     0.141154487151
    C            2.149098777266    -0.818783480817    -0.188890629995
    H            1.520216011927     1.246197918393    -0.102341278928
    H            1.188905132639     0.340336918251     1.348034553959
    C            3.581695023424    -0.662813930757     0.333854489931
    H            2.166513206870    -0.859869933775    -1.276777363764
    H            1.763025053161    -1.780083367930     0.143590249222
    C            4.326626217927     0.559062423149    -0.206877456296
    H            4.141998686586    -1.556607363429     0.071144154135
    H            3.565542084071    -0.624522856245     1.421222852966
    H            4.348125733123     0.553513688770    -1.293392974490
    H            3.867038857693     1.489308480265     0.110332695272
    H            5.354380934324     0.569125553328     0.142730639699

  Mulliken Charges: (a.u.)
   Center  Symbol    Alpha    Beta     Spin     Total
       1     H     0.43261  0.43261  0.00000  0.13478
       2     C     2.83082  2.83082  0.00000  0.33836
       3     C     3.20818  3.20818  0.00000 -0.41635
       4     O     4.23776  4.23776  0.00000 -0.47552
       5     C     3.16656  3.16656  0.00000 -0.33312
       6     H     0.39970  0.39970  0.00000  0.20060
       7     H     0.40660  0.40660  0.00000  0.18679
       8     C     3.15475  3.15475  0.00000 -0.30949
       9     H     0.41289  0.41289  0.00000  0.17421
      10     H     0.41961  0.41961  0.00000  0.16077
      11     C     3.15420  3.15420  0.00000 -0.30840
      12     H     0.41801  0.41801  0.00000  0.16398
      13     H     0.41844  0.41844  0.00000  0.16312
      14     C     3.15311  3.15311  0.00000 -0.30622
      15     H     0.42084  0.42084  0.00000  0.15833
      16     H     0.42377  0.42377  0.00000  0.15246
      17     C     3.15277  3.15277  0.00000 -0.30553
      18     H     0.42300  0.42300  0.00000  0.15400
      19     H     0.42065  0.42065  0.00000  0.15870
      20     C     3.24135  3.24135  0.00000 -0.48270
      21     H     0.41992  0.41992  0.00000  0.16016
      22     H     0.42327  0.42327  0.00000  0.15346
      23     H     0.42186  0.42186  0.00000  0.15628
      24     H     0.42069  0.42069  0.00000  0.15861
      25     H     0.41864  0.41864  0.00000  0.16272

   Total alpha = 36.00000, Total beta = 36.00000, Total charge = -0.00000
