                              Psi4 1.0.54 Driver

  ==> Input File <==

--------------------------------------------------------------------------
set {
	reference rhf
	basis cc-pvtz
}

set_num_threads( 4 )
memory 2 gb

molecule MOL {
0 1

O	 1.847685	 1.294399	 -0.000190
C	 1.704209	 0.119472	 -0.000093
C	 0.380337	 -0.600947	 -0.000234
O	 2.715427	 -0.733672	 0.000025
C	 -0.824290	 0.329213	 -0.000115
H	 0.371455	 -1.255476	 -0.865660
H	 0.371410	 -1.255787	 0.864952
C	 -2.146151	 -0.432825	 -0.000068
H	 -0.773936	 0.979158	 -0.866319
H	 -0.773838	 0.979034	 0.866186
C	 -3.366283	 0.483552	 0.000557
H	 -2.189286	 -1.084450	 -0.869996
H	 -2.188867	 -1.085083	 0.869399
C	 -3.034581	 1.922470	 0.381215
H	 -4.108793	 0.090357	 0.689203
H	 -3.826255	 0.467702	 -0.983483
H	 -2.604072	 1.975280	 1.375753
H	 -3.921648	 2.545176	 0.372065
H	 -2.319601	 2.355747	 -0.310384
C	 4.020999	 -0.192556	 0.000019
H	 4.182809	 0.412891	 -0.879449
H	 4.692590	 -1.035653	 0.000152
H	 4.182726	 0.413087	 0.879368

	symmetry c1
}
set optking {
	frozen_dihedral = ("
		15 11 8 12
	")
}

ee,wfn = optimize('scf', return_wfn=True)
oeprop( wfn, 'DIPOLE', 'QUADRUPOLE', 'MULLIKEN_CHARGES')
f=open( 'psi4out.xyz', 'w' )
f.write( "23  " )
f.write( str(ee) + "\n" )
f.write( MOL.save_string_xyz() )
f.close()
--------------------------------------------------------------------------

    Molecular point group: c1
  Charge       = 0
  Multiplicity = 1
  Basis Set: CC-PVTZ
  Basis Set:
  @DF-RHF Final Energy:  -423.11887044866523
    Total Energy =                       -423.1188704486653478
    Molecular point group: c1
  Basis Set: CC-PVTZ
  Basis Set:
  Basis Set: CC-PVTZ
  Basis Set:
  @DF-RHF Final Energy:  -422.93994192828910
    Total Energy =                       -422.9399419282893859
  Basis Set: CC-PVTZ
  Basis Set:
  Basis Set: CC-PVTZ
  Basis Set:
  @DF-RHF Final Energy:  -423.06356296322400
    Total Energy =                       -423.0635629632240580
  Basis Set: CC-PVTZ
  Basis Set:
  Basis Set: CC-PVTZ
  Basis Set:
  @DF-RHF Final Energy:  -423.11789051614443
    Total Energy =                       -423.1178905161445982
  Basis Set: CC-PVTZ
  Basis Set:
  @DF-RHF Final Energy:  -423.12187341124377
    Total Energy =                       -423.1218734112437687
  @DF-RHF Final Energy:  -423.12236232207766
    Total Energy =                       -423.1223623220778336
  Basis Set: CC-PVTZ
  Basis Set:
  @DF-RHF Final Energy:  -423.12241811499263
    Total Energy =                       -423.1224181149923425
  Basis Set: CC-PVTZ
  Basis Set:
  Basis Set: CC-PVTZ
  Basis Set:
  @DF-RHF Final Energy:  -423.12237000098361
    Total Energy =                       -423.1223700009838922
  Basis Set: CC-PVTZ
  Basis Set:
  Basis Set: CC-PVTZ
  Basis Set:
  @DF-RHF Final Energy:  -423.12242535101092
    Total Energy =                       -423.1224253510113158
  Basis Set: CC-PVTZ
  Basis Set:
  Charge       = 0
  Multiplicity = 1
  Basis Set: CC-PVTZ
  Basis Set:

    Orbital Energies (a.u.)
    -----------------------

    Doubly Occupied:

       1A    -20.596150     2A    -20.533897     3A    -11.364328
       4A    -11.278359     5A    -11.233303     6A    -11.216647
       7A    -11.216017     8A    -11.215148     9A    -11.205048
      10A     -1.472048    11A     -1.365546    12A     -1.092410
      13A     -1.040648    14A     -0.985622    15A     -0.931155
      16A     -0.860062    17A     -0.779532    18A     -0.766566
      19A     -0.698373    20A     -0.686762    21A     -0.675897
      22A     -0.651074    23A     -0.609137    24A     -0.598045
      25A     -0.592700    26A     -0.558351    27A     -0.535856
      28A     -0.527115    29A     -0.520913    30A     -0.514950
      31A     -0.495935    32A     -0.464122    33A     -0.462016
      34A     -0.459991    35A     -0.451928    36A     -0.438033

  @DF-RHF Final Energy:  -423.12242625473090

   => Energetics <=

    Nuclear Repulsion Energy =            459.0256919153030708
    One-Electron Energy =               -1486.1088591642951542
    Two-Electron Energy =                 603.9607409942613003
    DFT Exchange-Correlation Energy =       0.0000000000000000
    Empirical Dispersion Energy =           0.0000000000000000
    PCM Polarization Energy =               0.0000000000000000
    EFP Energy =                            0.0000000000000000
    Total Energy =                       -423.1224262547308399
    Molecular point group: c1
  Basis Set: CC-PVTZ
  Basis Set:

  -Total Gradient:
     Atom            X                  Y                   Z
    ------   -----------------  -----------------  -----------------
       1       -0.000004836037    -0.000003852426    -0.000069170520
       2        0.000061339859    -0.000119945923     0.000074806623
       3       -0.000022597581     0.000056040677     0.000012626930
       4       -0.000081620787     0.000085191565     0.000000200340
       5        0.000030270510    -0.000053495324     0.000053294005
       6       -0.000002502956     0.000009520144    -0.000018805439
       7       -0.000029846254     0.000036610705    -0.000036819033
       8       -0.000898430741    -0.005014413688     0.003810995388
       9        0.000021517808    -0.000038425430     0.000017728402
      10        0.000015002323     0.000005391809    -0.000002236698
      11       -0.002579395798    -0.002119112754    -0.005394002728
      12        0.001115208436     0.004572070131    -0.002381756381
      13       -0.000001692793     0.000039701309    -0.000022498914
      14       -0.000040495717     0.000006466169     0.000003637878
      15        0.002369853247     0.002579110585     0.003955514602
      16       -0.000004777000    -0.000015329694    -0.000010848352
      17       -0.000004839628     0.000008120120    -0.000004880422
      18        0.000069607756    -0.000007763704    -0.000013977974
      19       -0.000022561146    -0.000021653054     0.000018428961
      20        0.000029148048    -0.000002780243    -0.000010357307
      21        0.000003180602    -0.000029617927     0.000026012204
      22       -0.000021803981     0.000027357892     0.000003686845
      23        0.000000271831     0.000000809059    -0.000011578408

  **** Optimization is complete! (in 10 steps) ****
    Final optimized geometry and variables:
    Molecular point group: c1

    Geometry (in Angstrom), charge = 0, multiplicity = 1:

    O            1.437083949974     1.371230175844    -0.258403696484
    C            1.478401208476     0.203223302787    -0.446258502520
    C            0.328831222554    -0.754396323829    -0.264509713582
    O            2.568510569614    -0.426257747972    -0.853434619578
    C           -0.950558805808    -0.089881003146     0.224282002152
    H            0.175458053425    -1.253178601653    -1.216035547760
    H            0.658794779359    -1.526344760840     0.422844067122
    C           -2.081601385606    -1.108117645114     0.384342766036
    H           -1.236955171135     0.682071036283    -0.479945518143
    H           -0.748557997906     0.414401321324     1.159991127122
    C           -3.451547678406    -0.542326383482     0.829849492675
    H           -2.208643714576    -1.583475448250    -0.583555940319
    H           -1.761609957255    -1.878669374255     1.078013549405
    C           -3.433525510818     0.823726790405     1.518584722739
    H           -3.890922068925    -1.236373476466     1.538056381647
    H           -4.118563494994    -0.491535291111    -0.022919439002
    H           -2.823560894788     0.811859742731     2.414988689306
    H           -4.439497762724     1.099236665272     1.813866884372
    H           -3.056784086097     1.606680143977     0.872785849694
    C            3.726728923853     0.354357220893    -1.068384330913
    H            3.548631652081     1.099351290513    -1.829571522499
    H            4.492532220840    -0.331901232157    -1.391468783384
    H            4.028855713200     0.847710050691    -0.156499026340

  Mulliken Charges: (a.u.)
   Center  Symbol    Alpha    Beta     Spin     Total
       1     O     4.19727  4.19727  0.00000 -0.39454
       2     C     2.80608  2.80608  0.00000  0.38785
       3     C     3.10333  3.10333  0.00000 -0.20666
       4     O     4.14616  4.14616  0.00000 -0.29232
       5     C     3.08513  3.08513  0.00000 -0.17026
       6     H     0.43995  0.43995  0.00000  0.12010
       7     H     0.44015  0.44015  0.00000  0.11971
       8     C     3.10075  3.10075  0.00000 -0.20151
       9     H     0.44521  0.44521  0.00000  0.10958
      10     H     0.44361  0.44361  0.00000  0.11278
      11     C     3.08722  3.08722  0.00000 -0.17444
      12     H     0.45275  0.45275  0.00000  0.09450
      13     H     0.45209  0.45209  0.00000  0.09582
      14     C     3.15733  3.15733  0.00000 -0.31467
      15     H     0.45141  0.45141  0.00000  0.09718
      16     H     0.45110  0.45110  0.00000  0.09780
      17     H     0.45350  0.45350  0.00000  0.09300
      18     H     0.44516  0.44516  0.00000  0.10967
      19     H     0.44986  0.44986  0.00000  0.10028
      20     C     3.03779  3.03779  0.00000 -0.07558
      21     H     0.45441  0.45441  0.00000  0.09118
      22     H     0.44538  0.44538  0.00000  0.10924
      23     H     0.45436  0.45436  0.00000  0.09127

   Total alpha = 36.00000, Total beta = 36.00000, Total charge = -0.00000

*** Psi4 exiting successfully. Buy a developer a beer!
