  ==> Input File <==

--------------------------------------------------------------------------
set {
	reference rhf
	basis 6-31G*
}

set_num_threads( 1 )
memory 2 gb

molecule MOL {
0 1

O	 3.225979	 0.970355	 -0.599647
C	 2.701189	 0.057885	 -0.047330
C	 1.245376	 -0.013843	 0.345420
O	 3.347903	 -1.046386	 0.304773
C	 0.455112	 1.231400	 -0.050772
H	 0.838542	 -0.913825	 -0.103701
H	 1.208210	 -0.175333	 1.419774
C	 -0.998893	 1.219485	 0.433193
H	 0.482531	 1.345121	 -1.130325
H	 0.957290	 2.103070	 0.354729
C	 -1.883438	 0.145884	 -0.207175
H	 -1.431207	 2.195402	 0.224832
H	 -1.019646	 1.105716	 1.516076
C	 -1.496546	 -1.273073	 0.214577
H	 -2.922138	 0.330506	 0.062707
H	 -1.832395	 0.216067	 -1.291353
C	 -2.370426	 -2.354520	 -0.423338
H	 -1.558009	 -1.355605	 1.298388
H	 -0.454819	 -1.454578	 -0.045347
C	 -1.979983	 -3.768362	 0.005969
H	 -3.411854	 -2.174079	 -0.165438
H	 -2.306879	 -2.276410	 -1.506685
H	 -2.617037	 -4.512193	 -0.462524
H	 -2.066712	 -3.889297	 1.082096
H	 -0.953034	 -3.992089	 -0.268978
C	 4.728119	 -1.109107	 -0.004993
H	 4.882018	 -1.033965	 -1.071845
H	 5.068212	 -2.067527	 0.355250
H	 5.265056	 -0.311663	 0.488280

	symmetry c1
}
set optking {
	frozen_dihedral = ("
		21 17 14 11,
		17 14 11 15,
		6 3 5 9,
		11 8 5 9,
		2 4 26 27,
		1 2 4 26,
		6 3 2 1
	")
}

ee = energy('scf')
oeprop('DIPOLE', 'QUADRUPOLE', 'MULLIKEN_CHARGES')
f=open( 'psi4out.xyz', 'w' )
f.write( "29  " )
f.write( str(ee) + "\n" )
f.write( MOL.save_string_xyz() )
f.close()
--------------------------------------------------------------------------

    Molecular point group: c1

    Geometry (in Angstrom), charge = 0, multiplicity = 1:

       Center              X                  Y                   Z               Mass
    ------------   -----------------  -----------------  -----------------  -----------------
           O          2.542567767063     1.530522949911    -0.594790123201    15.994914619560
           C          2.017777767063     0.618052949911    -0.042473123201    12.000000000000
           C          0.561964767063     0.546324949911     0.350276876799    12.000000000000
           O          2.664491767063    -0.486218050089     0.309629876799    15.994914619560
           C         -0.228299232937     1.791567949911    -0.045915123201    12.000000000000
           H          0.155130767063    -0.353657050089    -0.098844123201     1.007825032070
           H          0.524798767063     0.384834949911     1.424630876799     1.007825032070
           C         -1.682304232937     1.779652949911     0.438049876799    12.000000000000
           H         -0.200880232937     1.905288949911    -1.125468123201     1.007825032070
           H          0.273878767063     2.663237949911     0.359585876799     1.007825032070
           C         -2.566849232937     0.706051949911    -0.202318123201    12.000000000000
           H         -2.114618232937     2.755569949911     0.229688876799     1.007825032070
           H         -1.703057232937     1.665883949911     1.520932876799     1.007825032070
           C         -2.179957232937    -0.712905050089     0.219433876799    12.000000000000
           H         -3.605549232937     0.890673949911     0.067563876799     1.007825032070
           H         -2.515806232937     0.776234949911    -1.286496123201     1.007825032070
           C         -3.053837232937    -1.794352050089    -0.418481123201    12.000000000000
           H         -2.241420232937    -0.795437050089     1.303244876799     1.007825032070
           H         -1.138230232937    -0.894410050089    -0.040490123201     1.007825032070
           C         -2.663394232937    -3.208194050089     0.010825876799    12.000000000000
           H         -4.095265232937    -1.613911050089    -0.160581123201     1.007825032070
           H         -2.990290232937    -1.716242050089    -1.501828123201     1.007825032070
           H         -3.300448232937    -3.952025050089    -0.457667123201     1.007825032070
           H         -2.750123232937    -3.329129050089     1.086952876799     1.007825032070
           H         -1.636445232937    -3.431921050089    -0.264121123201     1.007825032070
           C          4.044707767063    -0.548939050089    -0.000136123201    12.000000000000
           H          4.198606767063    -0.473797050089    -1.066988123201     1.007825032070
           H          4.384800767063    -1.507359050089     0.360106876799     1.007825032070
           H          4.581644767063     0.248504949911     0.493136876799     1.007825032070

  Charge       = 0
  Multiplicity = 1
  Basis Set: 6-31G*
  Basis Set:

    Orbital Energies (a.u.)
    -----------------------

    Doubly Occupied:

       1A    -20.602981     2A    -20.544002     3A    -11.370359
       4A    -11.280416     5A    -11.231503     6A    -11.219493
       7A    -11.217959     8A    -11.216181     9A    -11.215671
      10A    -11.212117    11A    -11.209636    12A     -1.468394
      13A     -1.361680    14A     -1.103428    15A     -1.062884
      16A     -1.019996    17A     -0.975636    18A     -0.935723
      19A     -0.861938    20A     -0.805852    21A     -0.786055
      22A     -0.764655    23A     -0.702753    24A     -0.684345
      25A     -0.671071    26A     -0.657518    27A     -0.623559
      28A     -0.608611    29A     -0.594328    30A     -0.574321
      31A     -0.569016    32A     -0.560670    33A     -0.536325
      34A     -0.530417    35A     -0.523644    36A     -0.502326
      37A     -0.496075    38A     -0.482483    39A     -0.471127
      40A     -0.463616    41A     -0.455802    42A     -0.455311
      43A     -0.437663    44A     -0.424860

  @DF-RHF Final Energy:  -501.02405451093102

   => Energetics <=

    Nuclear Repulsion Energy =            637.8198783788726587
    One-Electron Energy =               -1946.7032023374620167
    Two-Electron Energy =                 807.8592694476590168
    DFT Exchange-Correlation Energy =       0.0000000000000000
    Empirical Dispersion Energy =           0.0000000000000000
    PCM Polarization Energy =               0.0000000000000000
    EFP Energy =                            0.0000000000000000
    Total Energy =                       -501.0240545109302275

  Mulliken Charges: (a.u.)
   Center  Symbol    Alpha    Beta     Spin     Total
       1     O     4.28680  4.28680  0.00000 -0.57360
       2     C     2.60177  2.60177  0.00000  0.79647
       3     C     3.21420  3.21420  0.00000 -0.42840
       4     O     4.30757  4.30757  0.00000 -0.61514
       5     C     3.15257  3.15257  0.00000 -0.30513
       6     H     0.39706  0.39706  0.00000  0.20588
       7     H     0.40062  0.40062  0.00000  0.19875
       8     C     3.15960  3.15960  0.00000 -0.31919
       9     H     0.41321  0.41321  0.00000  0.17358
      10     H     0.40782  0.40782  0.00000  0.18436
      11     C     3.15351  3.15351  0.00000 -0.30702
      12     H     0.41669  0.41669  0.00000  0.16662
      13     H     0.42372  0.42372  0.00000  0.15256
      14     C     3.15023  3.15023  0.00000 -0.30047
      15     H     0.41973  0.41973  0.00000  0.16054
      16     H     0.42254  0.42254  0.00000  0.15492
      17     C     3.14930  3.14930  0.00000 -0.29861
      18     H     0.42392  0.42392  0.00000  0.15216
      19     H     0.43075  0.43075  0.00000  0.13850
      20     C     3.23927  3.23927  0.00000 -0.47854
      21     H     0.42309  0.42309  0.00000  0.15381
      22     H     0.42359  0.42359  0.00000  0.15281
      23     H     0.41900  0.41900  0.00000  0.16200
      24     H     0.42174  0.42174  0.00000  0.15651
      25     H     0.42239  0.42239  0.00000  0.15522
      26     C     3.09237  3.09237  0.00000 -0.18473
      27     H     0.40921  0.40921  0.00000  0.18158
      28     H     0.40861  0.40861  0.00000  0.18278
      29     H     0.40911  0.40911  0.00000  0.18178

   Total alpha = 44.00000, Total beta = 44.00000, Total charge = -0.00000
