                              Psi4 1.0.54 Driver

  ==> Input File <==

--------------------------------------------------------------------------
set {
	reference rhf
	basis cc-pvtz
}

set_num_threads( 4 )
memory 2 gb

molecule MOL {
0 1

O	 -2.071633	 -1.227563	 -0.223463
C	 -1.652164	 -0.152425	 0.058082
C	 -0.327811	 0.006324	 0.778296
C	 -2.402515	 1.108629	 -0.298924
C	 0.843231	 -0.001575	 -0.211665
H	 -0.319484	 0.928173	 1.350354
H	 -0.227804	 -0.823091	 1.466705
C	 2.197693	 0.138030	 0.476937
H	 0.722944	 0.805202	 -0.930230
H	 0.813976	 -0.926978	 -0.776588
C	 2.191930	 1.178060	 1.592045
H	 2.496918	 -0.824636	 0.882229
H	 2.947302	 0.404985	 -0.262226
H	 1.475822	 0.919998	 2.365109
H	 1.926937	 2.158274	 1.210824
H	 3.167137	 1.256710	 2.058078
H	 -3.240910	 0.874416	 -0.936711
H	 -1.747554	 1.818823	 -0.790984
H	 -2.760419	 1.579708	 0.610998

	symmetry c1
}
set optking {
	frozen_dihedral = ("
		11 8 5 9
	")
}

ee,wfn = optimize('scf', return_wfn=True)
oeprop( wfn, 'DIPOLE', 'QUADRUPOLE', 'MULLIKEN_CHARGES')
f=open( 'psi4out.xyz', 'w' )
f.write( "19  " )
f.write( str(ee) + "\n" )
f.write( MOL.save_string_xyz() )
f.close()
--------------------------------------------------------------------------

    Molecular point group: c1
  Charge       = 0
  Multiplicity = 1
  Basis Set: CC-PVTZ
  Basis Set:
  @DF-RHF Final Energy:  -309.17185313852121
    Total Energy =                       -309.1718531385214419
    Molecular point group: c1
  Basis Set: CC-PVTZ
  Basis Set:
  Basis Set: CC-PVTZ
  Basis Set:
  @DF-RHF Final Energy:  -308.86040512176430
    Total Energy =                       -308.8604051217646429
  Basis Set: CC-PVTZ
  Basis Set:
  Basis Set: CC-PVTZ
  Basis Set:
  @DF-RHF Final Energy:  -309.01467647900193
    Total Energy =                       -309.0146764790016505
  Basis Set: CC-PVTZ
  Basis Set:
  Basis Set: CC-PVTZ
  Basis Set:
  @DF-RHF Final Energy:  -309.14120910799841
    Total Energy =                       -309.1412091079987476
  Basis Set: CC-PVTZ
  Basis Set:
  @DF-RHF Final Energy:  -309.17137754787115
    Total Energy =                       -309.1713775478714297
  @DF-RHF Final Energy:  -309.17357308270016
    Total Energy =                       -309.1735730827005000
  @DF-RHF Final Energy:  -309.17315711642260
    Total Energy =                       -309.1731571164227717
  @DF-RHF Final Energy:  -309.17386429364615
    Total Energy =                       -309.1738642936462611
  @DF-RHF Final Energy:  -309.17391614499502
    Total Energy =                       -309.1739161449947915
  @DF-RHF Final Energy:  -309.17392351919824
    Total Energy =                       -309.1739235191980697
  Basis Set: CC-PVTZ
  Basis Set:
  @DF-RHF Final Energy:  -309.17392898825369
    Total Energy =                       -309.1739289882534649
  Basis Set: CC-PVTZ
  Basis Set:
  Basis Set: CC-PVTZ
  Basis Set:
  @DF-RHF Final Energy:  -309.17393140093691
    Total Energy =                       -309.1739314009371924
  Basis Set: CC-PVTZ
  Basis Set:
  Basis Set: CC-PVTZ
  Basis Set:
  @DF-RHF Final Energy:  -309.17392991137291
    Total Energy =                       -309.1739299113729089
  Basis Set: CC-PVTZ
  Basis Set:
  Charge       = 0
  Multiplicity = 1
  Basis Set: CC-PVTZ
  Basis Set:

    Orbital Energies (a.u.)
    -----------------------

    Doubly Occupied:

       1A    -20.536878     2A    -11.319494     3A    -11.229065
       4A    -11.227834     5A    -11.226897     6A    -11.223471
       7A    -11.214701     8A     -1.397064     9A     -1.092207
      10A     -1.028671    11A     -0.982418    12A     -0.903575
      13A     -0.797186    14A     -0.736103    15A     -0.660492
      16A     -0.654695    17A     -0.622421    18A     -0.605669
      19A     -0.596014    20A     -0.570748    21A     -0.553457
      22A     -0.544061    23A     -0.522997    24A     -0.500866
      25A     -0.481437    26A     -0.470967    27A     -0.465479
      28A     -0.399932

  @DF-RHF Final Energy:  -309.17393156640725

   => Energetics <=

    Nuclear Repulsion Energy =            305.4718905359670202
    One-Electron Energy =               -1024.1620402173900857
    Two-Electron Energy =                 409.5162181150159313
    DFT Exchange-Correlation Energy =       0.0000000000000000
    Empirical Dispersion Energy =           0.0000000000000000
    PCM Polarization Energy =               0.0000000000000000
    EFP Energy =                            0.0000000000000000
    Total Energy =                       -309.1739315664070773
    Molecular point group: c1
  Basis Set: CC-PVTZ
  Basis Set:

  -Total Gradient:
     Atom            X                  Y                   Z
    ------   -----------------  -----------------  -----------------
       1       -0.000028597676    -0.000030865967    -0.000010142555
       2        0.000009529925     0.000023487807     0.000002598657
       3        0.000007409681     0.000003304367     0.000015772663
       4        0.000008144894     0.000000679163    -0.000013233736
       5        0.000252049012     0.000555674641     0.006054941853
       6        0.000002495573     0.000001888734    -0.000000367351
       7        0.000001777025    -0.000008839214     0.000003473115
       8        0.001004156654     0.003767334009    -0.003419596546
       9       -0.000476238527    -0.001439392860    -0.004320080931
      10       -0.000002658334    -0.000004317965    -0.000002429513
      11       -0.000776856450    -0.002875707646     0.001674218907
      12        0.000001069999    -0.000008045089     0.000000827179
      13        0.000001283411    -0.000001159956     0.000001992274
      14        0.000004970416    -0.000000685709    -0.000003297613
      15       -0.000002441431     0.000008008164     0.000001764370
      16        0.000005069803    -0.000000013926     0.000000420443
      17       -0.000011390554     0.000006912605     0.000000031581
      18        0.000000375342     0.000003263407     0.000004170192
      19       -0.000000148766    -0.000001524562     0.000008937012

  **** Optimization is complete! (in 14 steps) ****
    Final optimized geometry and variables:
    Molecular point group: c1

    Geometry (in Angstrom), charge = 0, multiplicity = 1:

    O           -2.282227142862    -0.793888591195    -0.021232154471
    C           -1.521605081187     0.045270066461     0.336971893235
    C           -0.039323455658    -0.244595405211     0.468473026962
    C           -1.984749618950     1.444467904155     0.666987914757
    C            0.671526297304    -0.042744600464    -0.874794633010
    H            0.394596607666     0.392858854275     1.229048865129
    H            0.064671459503    -1.275327339399     0.784279010721
    C            2.148006174645    -0.456457599914    -0.898753516329
    H            0.578196687918     0.987209082895    -1.209451361574
    H            0.147522542334    -0.631502033718    -1.619980075213
    C            2.984774744772     0.010487471561     0.289468007840
    H            2.202265759675    -1.540238534504    -0.948102563208
    H            2.588161437005    -0.089994048161    -1.819785411772
    H            2.656765357753    -0.445323608774     1.215359009139
    H            2.937132240769     1.088202614436     0.413798852054
    H            4.025368449384    -0.256212462319     0.146916756985
    H           -3.018333353960     1.570197238380     0.383326317751
    H           -1.368524897922     2.182196094395     0.165791932989
    H           -1.880330649933     1.610865533680     1.734450849907

  Mulliken Charges: (a.u.)
   Center  Symbol    Alpha    Beta     Spin     Total
       1     O     4.17704  4.17704  0.00000 -0.35408
       2     C     2.85748  2.85748  0.00000  0.28505
       3     C     3.10145  3.10145  0.00000 -0.20291
       4     C     3.15635  3.15635  0.00000 -0.31270
       5     C     3.10621  3.10621  0.00000 -0.21242
       6     H     0.44635  0.44635  0.00000  0.10730
       7     H     0.43883  0.43883  0.00000  0.12233
       8     C     3.08935  3.08935  0.00000 -0.17870
       9     H     0.45021  0.45021  0.00000  0.09958
      10     H     0.43823  0.43823  0.00000  0.12355
      11     C     3.15779  3.15779  0.00000 -0.31558
      12     H     0.44999  0.44999  0.00000  0.10002
      13     H     0.44695  0.44695  0.00000  0.10610
      14     H     0.45155  0.45155  0.00000  0.09690
      15     H     0.45441  0.45441  0.00000  0.09119
      16     H     0.44302  0.44302  0.00000  0.11397
      17     H     0.43575  0.43575  0.00000  0.12851
      18     H     0.45061  0.45061  0.00000  0.09878
      19     H     0.44845  0.44845  0.00000  0.10310

   Total alpha = 28.00000, Total beta = 28.00000, Total charge = -0.00000

*** Psi4 exiting successfully. Buy a developer a beer!
