                              Psi4 1.0.54 Driver

  ==> Input File <==

--------------------------------------------------------------------------
set {
	reference rhf
	basis cc-pvtz
}

set_num_threads( 4 )
memory 2 gb

molecule MOL {
0 1

H	 2.190577	 -0.629258	 -0.208718
O	 1.355412	 -0.529566	 0.208662
C	 0.700181	 0.619439	 -0.266242
C	 -0.713107	 0.588199	 0.266177
H	 0.678684	 0.627018	 -1.351786
H	 1.199751	 1.521374	 0.077736
O	 -1.421669	 -0.521493	 -0.196983
H	 -1.244790	 1.469046	 -0.069059
H	 -0.685096	 0.604606	 1.352683
H	 -0.933404	 -1.297945	 0.014544

	symmetry c1
}
ee,wfn = energy('scf', return_wfn=True)
oeprop( wfn, 'DIPOLE', 'QUADRUPOLE', 'MULLIKEN_CHARGES')
oeprop( wfn, 'GRID_ESP')
f=open( 'psi4out.xyz', 'w' )
f.write( "10  " )
f.write( str(ee) + "\n" )
f.write( MOL.save_string_xyz() )
f.close()
--------------------------------------------------------------------------

    Molecular point group: c1

    Geometry (in Angstrom), charge = 0, multiplicity = 1:

       Center              X                  Y                   Z               Mass
    ------------   -----------------  -----------------  -----------------  -----------------
           H          2.190572651686    -0.629142830245    -0.208717679334     1.007825032070
           O          1.355407651686    -0.529450830245     0.208662320666    15.994914619560
           C          0.700176651686     0.619554169755    -0.266241679334    12.000000000000
           C         -0.713111348314     0.588314169755     0.266177320666    12.000000000000
           H          0.678679651686     0.627133169755    -1.351785679334     1.007825032070
           H          1.199746651686     1.521489169755     0.077736320666     1.007825032070
           O         -1.421673348314    -0.521377830245    -0.196982679334    15.994914619560
           H         -1.244794348314     1.469161169755    -0.069058679334     1.007825032070
           H         -0.685100348314     0.604721169755     1.352683320666     1.007825032070
           H         -0.933408348314    -1.297829830245     0.014544320666     1.007825032070

  Charge       = 0
  Multiplicity = 1
  Basis Set: CC-PVTZ
  Basis Set:

    Orbital Energies (a.u.)
    -----------------------

    Doubly Occupied:

       1A    -20.560786     2A    -20.542610     3A    -11.273881
       4A    -11.266769     5A     -1.385221     6A     -1.356009
       7A     -1.003851     8A     -0.844926     9A     -0.730098
      10A     -0.682320    11A     -0.651234    12A     -0.607026
      13A     -0.577687    14A     -0.534075    15A     -0.492893
      16A     -0.456276    17A     -0.436541

  @DF-RHF Final Energy:  -229.02889757001955

   => Energetics <=

    Nuclear Repulsion Energy =            134.5512000265119070
    One-Electron Energy =                -580.3557104324343072
    Two-Electron Energy =                 216.7756128359027912
    DFT Exchange-Correlation Energy =       0.0000000000000000
    Empirical Dispersion Energy =           0.0000000000000000
    PCM Polarization Energy =               0.0000000000000000
    EFP Energy =                            0.0000000000000000
    Total Energy =                       -229.0288975700196374

  Mulliken Charges: (a.u.)
   Center  Symbol    Alpha    Beta     Spin     Total
       1     H     0.39082  0.39082  0.00000  0.21835
       2     O     4.20706  4.20706  0.00000 -0.41411
       3     C     2.97357  2.97357  0.00000  0.05286
       4     C     2.96387  2.96387  0.00000  0.07226
       5     H     0.46922  0.46922  0.00000  0.06156
       6     H     0.47189  0.47189  0.00000  0.05623
       7     O     4.20955  4.20955  0.00000 -0.41910
       8     H     0.45845  0.45845  0.00000  0.08310
       9     H     0.47016  0.47016  0.00000  0.05967
      10     H     0.38541  0.38541  0.00000  0.22917

   Total alpha = 17.00000, Total beta = 17.00000, Total charge = -0.00000

*** Psi4 exiting successfully. Buy a developer a beer!
