  ==> Input File <==

--------------------------------------------------------------------------
set {
	reference rhf
	basis 6-31G*
}

set_num_threads( 4 )
memory 2 gb

molecule MOL {
0 1

H	 2.086900	 -0.473801	 -0.784060
O	 1.586534	 -0.678666	 -0.000226
C	 0.489431	 0.077273	 0.000046
C	 -0.764129	 -0.759190	 0.000191
O	 0.537743	 1.263962	 0.000257
C	 -2.038368	 0.075731	 -0.000248
H	 -0.717284	 -1.412404	 -0.866059
H	 -0.717458	 -1.411724	 0.866967
H	 -2.086483	 0.712501	 -0.875098
H	 -2.908485	 -0.571682	 -0.000042
H	 -2.086576	 0.713280	 0.874068

	symmetry c1
}
set optking {
	frozen_dihedral = ("
		1 2 3 5
	")
}

ee = optimize('scf')
oeprop('DIPOLE', 'QUADRUPOLE', 'MULLIKEN_CHARGES')
f=open( 'psi4out.xyz', 'w' )
f.write( "11  " )
f.write( str(ee) + "\n" )
f.write( MOL.save_string_xyz() )
f.close()
--------------------------------------------------------------------------

    Molecular point group: c1
  Charge       = 0
  Multiplicity = 1
  Basis Set: 6-31G*
  Basis Set:
  @DF-RHF Final Energy:  -266.82970695360882
    Total Energy =                       -266.8297069536089339
    Molecular point group: c1
  Basis Set: 6-31G*
  Basis Set:
  Basis Set: 6-31G*
  Basis Set:
  @DF-RHF Final Energy:  -266.82820725348415
    Total Energy =                       -266.8282072534842086
  Basis Set: 6-31G*
  Basis Set:
  Basis Set: 6-31G*
  Basis Set:
  @DF-RHF Final Energy:  -266.83092233626701
    Total Energy =                       -266.8309223362670650
  Basis Set: 6-31G*
  Basis Set:
  Basis Set: 6-31G*
  Basis Set:
  @DF-RHF Final Energy:  -266.83112346799635
    Total Energy =                       -266.8311234679962922
  Basis Set: 6-31G*
  Basis Set:
  Basis Set: 6-31G*
  Basis Set:
  @DF-RHF Final Energy:  -266.83112764542977
    Total Energy =                       -266.8311276454296603
  Basis Set: 6-31G*
  Basis Set:
  Charge       = 0
  Multiplicity = 1
  Basis Set: 6-31G*
  Basis Set:

    Orbital Energies (a.u.)
    -----------------------

    Doubly Occupied:

       1A    -20.600303     2A    -20.560216     3A    -11.382235
       4A    -11.243869     5A    -11.220310     6A     -1.464277
       7A     -1.368094     8A     -1.063599     9A     -0.912601
      10A     -0.802938    11A     -0.707346    12A     -0.680972
      13A     -0.658024    14A     -0.610322    15A     -0.570408
      16A     -0.526830    17A     -0.524179    18A     -0.503241
      19A     -0.485628    20A     -0.445769

  @DF-RHF Final Energy:  -266.83112816330470

   => Energetics <=

    Nuclear Repulsion Energy =            179.1911036133471953
    One-Electron Energy =                -719.3821411946258877
    Two-Electron Energy =                 273.3599094179739950
    DFT Exchange-Correlation Energy =       0.0000000000000000
    Empirical Dispersion Energy =           0.0000000000000000
    PCM Polarization Energy =               0.0000000000000000
    EFP Energy =                            0.0000000000000000
    Total Energy =                       -266.8311281633046974
    Molecular point group: c1
  Basis Set: 6-31G*
  Basis Set:

  -Total Gradient:
     Atom            X                  Y                   Z
    ------   -----------------  -----------------  -----------------
       1       -0.004887866703    -0.007834302196    -0.005900924694
       2        0.005624486603     0.009783689759     0.011943252710
       3        0.000118184031    -0.001972367055    -0.015818645240
       4        0.000055618655     0.000003738466    -0.000061352780
       5       -0.000892004956    -0.000029929100     0.009758423250
       6       -0.000011972392    -0.000009846437     0.000032498202
       7        0.000006601103     0.000020067136     0.000015810540
       8       -0.000005800928     0.000032953992     0.000045050675
       9       -0.000000552417     0.000000290311    -0.000006697730
      10       -0.000009781845     0.000008086255    -0.000003960394
      11        0.000003088847    -0.000002381133    -0.000003454541

  **** Optimization is complete! (in 6 steps) ****
    Final optimized geometry and variables:
    Molecular point group: c1

    Geometry (in Angstrom), charge = 0, multiplicity = 1:

    H            2.197695815810    -0.499232093504    -0.666085470260
    O            1.607569184325    -0.674926127630     0.057388512076
    C            0.490665936143     0.085655044443    -0.033103159905
    C           -0.764113536474    -0.748572730071    -0.001672394688
    O            0.528094344500     1.267253341637    -0.031004468413
    C           -2.041985541367     0.078887498638     0.042938750675
    H           -0.741771138068    -1.399698463243    -0.871640346912
    H           -0.685202209479    -1.407929831965     0.857894516700
    H           -2.120166764073     0.723646472216    -0.824114410894
    H           -2.909363147392    -0.571994908037     0.063931674753
    H           -2.066256825335     0.708493479562     0.924082340000

  Mulliken Charges: (a.u.)
   Center  Symbol    Alpha    Beta     Spin     Total
       1     H     0.26575  0.26575  0.00000  0.46851
       2     O     4.36397  4.36397  0.00000 -0.72794
       3     C     2.63196  2.63196  0.00000  0.73609
       4     C     3.20703  3.20703  0.00000 -0.41405
       5     O     4.25496  4.25496  0.00000 -0.50993
       6     C     3.23981  3.23981  0.00000 -0.47962
       7     H     0.40433  0.40433  0.00000  0.19134
       8     H     0.39654  0.39654  0.00000  0.20693
       9     H     0.41034  0.41034  0.00000  0.17931
      10     H     0.41687  0.41687  0.00000  0.16626
      11     H     0.40844  0.40844  0.00000  0.18311

   Total alpha = 20.00000, Total beta = 20.00000, Total charge = -0.00000
