                              Psi4 1.0.54 Driver

  ==> Input File <==

--------------------------------------------------------------------------
set {
	reference rhf
	basis cc-pvtz
}

set_num_threads( 4 )
memory 2 gb

molecule MOL {
0 1

H	 2.190573	 -0.629143	 -0.208718
O	 1.355408	 -0.529451	 0.208662
C	 0.700177	 0.619554	 -0.266242
C	 -0.713111	 0.588314	 0.266177
H	 0.678680	 0.627133	 -1.351786
H	 1.199747	 1.521489	 0.077736
O	 -1.421673	 -0.521378	 -0.196983
H	 -1.244794	 1.469161	 -0.069059
H	 -0.685100	 0.604721	 1.352683
H	 -1.945637	 -0.857836	 0.508908

	symmetry c1
}
set optking {
	frozen_dihedral = ("
		10 7 4 3
	")
}

ee,wfn = optimize('scf', return_wfn=True)
oeprop( wfn, 'DIPOLE', 'QUADRUPOLE', 'MULLIKEN_CHARGES')
f=open( 'psi4out.xyz', 'w' )
f.write( "10  " )
f.write( str(ee) + "\n" )
f.write( MOL.save_string_xyz() )
f.close()
--------------------------------------------------------------------------

    Molecular point group: c1
  Charge       = 0
  Multiplicity = 1
  Basis Set: CC-PVTZ
  Basis Set:
  @DF-RHF Final Energy:  -229.02241717849992
    Total Energy =                       -229.0224171784999498
    Molecular point group: c1
  Basis Set: CC-PVTZ
  Basis Set:
  Basis Set: CC-PVTZ
  Basis Set:
  @DF-RHF Final Energy:  -228.48625638543291
    Total Energy =                       -228.4862563854329096
  Basis Set: CC-PVTZ
  Basis Set:
  Basis Set: CC-PVTZ
  Basis Set:
  @DF-RHF Final Energy:  -228.65096857627117
    Total Energy =                       -228.6509685762710262
  Basis Set: CC-PVTZ
  Basis Set:
  Basis Set: CC-PVTZ
  Basis Set:
  @DF-RHF Final Energy:  -228.81246902473299
    Total Energy =                       -228.8124690247330477
  Basis Set: CC-PVTZ
  Basis Set:
  @DF-RHF Final Energy:  -228.99643576939772
    Total Energy =                       -228.9964357693977490
  @DF-RHF Final Energy:  -229.02272863742016
    Total Energy =                       -229.0227286374203004
  Basis Set: CC-PVTZ
  Basis Set:
  @DF-RHF Final Energy:  -229.02404610028100
    Total Energy =                       -229.0240461002809695
  Basis Set: CC-PVTZ
  Basis Set:
  Basis Set: CC-PVTZ
  Basis Set:
  @DF-RHF Final Energy:  -229.02407925282012
    Total Energy =                       -229.0240792528201439
  Basis Set: CC-PVTZ
  Basis Set:
  Basis Set: CC-PVTZ
  Basis Set:
  @DF-RHF Final Energy:  -229.02408212725658
    Total Energy =                       -229.0240821272566336
  Basis Set: CC-PVTZ
  Basis Set:
  Charge       = 0
  Multiplicity = 1
  Basis Set: CC-PVTZ
  Basis Set:

    Orbital Energies (a.u.)
    -----------------------

    Doubly Occupied:

       1A    -20.547070     2A    -20.544968     3A    -11.268182
       4A    -11.267342     5A     -1.375143     6A     -1.355002
       7A     -1.003629     8A     -0.833239     9A     -0.721587
      10A     -0.706657    11A     -0.619274    12A     -0.597554
      13A     -0.593691    14A     -0.528659    15A     -0.476878
      16A     -0.448004    17A     -0.440152

  @DF-RHF Final Energy:  -229.02408302891973

   => Energetics <=

    Nuclear Repulsion Energy =            133.5030654831024890
    One-Electron Energy =                -578.4002342243104522
    Two-Electron Energy =                 215.8730857122883435
    DFT Exchange-Correlation Energy =       0.0000000000000000
    Empirical Dispersion Energy =           0.0000000000000000
    PCM Polarization Energy =               0.0000000000000000
    EFP Energy =                            0.0000000000000000
    Total Energy =                       -229.0240830289196197
    Molecular point group: c1
  Basis Set: CC-PVTZ
  Basis Set:

  -Total Gradient:
     Atom            X                  Y                   Z
    ------   -----------------  -----------------  -----------------
       1        0.000012062439     0.000065321205     0.000038616914
       2       -0.000064289845     0.000090074800     0.000032896437
       3        0.000057926748    -0.000173869913    -0.000184639843
       4        0.000006386982     0.000015495388     0.000113091072
       5        0.000029504867     0.000030369614     0.000078507963
       6        0.000027237615     0.000029843544    -0.000058431952
       7        0.000047971172    -0.000119241034    -0.000105615484
       8        0.000083980709    -0.000010617575    -0.000000372970
       9       -0.000124571333     0.000040570569    -0.000094916177
      10       -0.000076209355     0.000032053403     0.000180864039

  **** Optimization is complete! (in 10 steps) ****
    Final optimized geometry and variables:
    Molecular point group: c1

    Geometry (in Angstrom), charge = 0, multiplicity = 1:

    H            0.590572550700    -1.895942951799    -1.186652168973
    O            0.560521345544    -1.360597939836    -0.416043328054
    C            0.549198424864    -0.005582513805    -0.766887808256
    C            0.162046226900     0.812584480898     0.439989583213
    H           -0.163713546250     0.188089032198    -1.562596670052
    H            1.533074490650     0.312426511307    -1.105746455724
    O           -1.204572351185     0.657295157094     0.705480217180
    H            0.384599165729     1.857740706363     0.241613079910
    H            0.765303954062     0.494330100344     1.283288108597
    H           -1.356947999821     0.596447968375     1.628841799238

  Mulliken Charges: (a.u.)
   Center  Symbol    Alpha    Beta     Spin     Total
       1     H     0.39375  0.39375  0.00000  0.21250
       2     O     4.19812  4.19812  0.00000 -0.39624
       3     C     2.95860  2.95860  0.00000  0.08279
       4     C     2.96421  2.96421  0.00000  0.07158
       5     H     0.47138  0.47138  0.00000  0.05723
       6     H     0.47828  0.47828  0.00000  0.04343
       7     O     4.20161  4.20161  0.00000 -0.40322
       8     H     0.47383  0.47383  0.00000  0.05234
       9     H     0.46992  0.46992  0.00000  0.06017
      10     H     0.39029  0.39029  0.00000  0.21941

   Total alpha = 17.00000, Total beta = 17.00000, Total charge = -0.00000

*** Psi4 exiting successfully. Buy a developer a beer!
