                              Psi4 1.0.54 Driver

  ==> Input File <==

--------------------------------------------------------------------------
set {
	reference rhf
	basis cc-pvtz
}

set_num_threads( 4 )
memory 2 gb

molecule MOL {
0 1

H	 -2.292223	 -0.047200	 -0.942308
N	 -1.851927	 0.161443	 -0.071573
C	 -0.561396	 -0.500007	 0.035200
H	 -2.469636	 -0.143373	 0.651516
C	 0.575129	 0.507849	 -0.048832
H	 -0.478089	 -1.200753	 -0.788956
H	 -0.456191	 -1.081816	 0.952176
C	 1.951750	 -0.141983	 0.035101
H	 0.478254	 1.061643	 -0.975981
H	 0.467676	 1.231891	 0.755499
H	 2.101550	 -0.848142	 -0.774949
H	 2.738260	 0.600794	 -0.026526
H	 2.078939	 -0.679792	 0.968824

	symmetry c1
}
set optking {
	frozen_dihedral = ("
		1 2 3 6
	")
}

ee,wfn = optimize('scf', return_wfn=True)
oeprop( wfn, 'DIPOLE', 'QUADRUPOLE', 'MULLIKEN_CHARGES')
f=open( 'psi4out.xyz', 'w' )
f.write( "13  " )
f.write( str(ee) + "\n" )
f.write( MOL.save_string_xyz() )
f.close()
--------------------------------------------------------------------------

    Molecular point group: c1
  Charge       = 0
  Multiplicity = 1
  Basis Set: CC-PVTZ
  Basis Set:
  @DF-RHF Final Energy:  -173.34892441262758
    Total Energy =                       -173.3489244126274968
    Molecular point group: c1
  Basis Set: CC-PVTZ
  Basis Set:
  Basis Set: CC-PVTZ
  Basis Set:
  @DF-RHF Final Energy:  -173.34966111541445
    Total Energy =                       -173.3496611154145626
  Basis Set: CC-PVTZ
  Basis Set:
  Basis Set: CC-PVTZ
  Basis Set:
  @DF-RHF Final Energy:  -173.34984201911618
    Total Energy =                       -173.3498420191162950
  Basis Set: CC-PVTZ
  Basis Set:
  Basis Set: CC-PVTZ
  Basis Set:
  @DF-RHF Final Energy:  -173.34984476084244
    Total Energy =                       -173.3498447608423021
  Basis Set: CC-PVTZ
  Basis Set:
  Charge       = 0
  Multiplicity = 1
  Basis Set: CC-PVTZ
  Basis Set:

    Orbital Energies (a.u.)
    -----------------------

    Doubly Occupied:

       1A    -15.525788     2A    -11.239264     3A    -11.204578
       4A    -11.203959     5A     -1.175502     6A     -1.034136
       7A     -0.899244     8A     -0.794747     9A     -0.676028
      10A     -0.613796    11A     -0.602793    12A     -0.574004
      13A     -0.517599    14A     -0.491595    15A     -0.485717
      16A     -0.463584    17A     -0.381352

  @DF-RHF Final Energy:  -173.34984548461406

   => Energetics <=

    Nuclear Repulsion Energy =            131.5918930360980141
    One-Electron Energy =                -494.1161087524610025
    Two-Electron Energy =                 189.1743702317488953
    DFT Exchange-Correlation Energy =       0.0000000000000000
    Empirical Dispersion Energy =           0.0000000000000000
    PCM Polarization Energy =               0.0000000000000000
    EFP Energy =                            0.0000000000000000
    Total Energy =                       -173.3498454846140646
    Molecular point group: c1
  Basis Set: CC-PVTZ
  Basis Set:

  -Total Gradient:
     Atom            X                  Y                   Z
    ------   -----------------  -----------------  -----------------
       1       -0.000509080726    -0.000943606563     0.000446947760
       2        0.000738983502     0.001426805790    -0.000742984585
       3       -0.000648729491    -0.001212438361     0.000836592646
       4       -0.000020969939    -0.000013463030     0.000013394750
       5       -0.000037743230    -0.000038004882     0.000021836743
       6        0.000438157358     0.000778544163    -0.000579263967
       7        0.000026872109     0.000013407497     0.000004068341
       8        0.000020860894     0.000002563083    -0.000007095796
       9       -0.000006625171    -0.000022109137     0.000008492512
      10       -0.000000593228    -0.000003851440     0.000000143848
      11       -0.000007706800     0.000004510634     0.000009211115
      12        0.000012584613    -0.000000829713    -0.000001498015
      13       -0.000006009887     0.000008471959    -0.000009845353

  **** Optimization is complete! (in 5 steps) ****
    Final optimized geometry and variables:
    Molecular point group: c1

    Geometry (in Angstrom), charge = 0, multiplicity = 1:

    H           -2.274553014561    -0.039452825022    -1.027758638169
    N           -1.856151459388     0.156571369005    -0.145399515420
    C           -0.554817510728    -0.492535829596    -0.005425600473
    H           -2.495705754161    -0.146156820999     0.555310996708
    C            0.581944623200     0.521824179650     0.012215508687
    H           -0.383056780677    -1.197175424247    -0.815302602765
    H           -0.529653535318    -1.070007783012     0.913302277048
    C            1.954458649878    -0.126991547878     0.152865507330
    H            0.540302198090     1.106620468297    -0.901522799298
    H            0.412086582012     1.217816645946     0.826973197544
    H            2.156008074863    -0.807141047448    -0.668692804605
    H            2.740888373151     0.618460086286     0.162149512017
    H            2.029300190067    -0.695085504410     1.074782976314

  Mulliken Charges: (a.u.)
   Center  Symbol    Alpha    Beta     Spin     Total
       1     H     0.42741  0.42741  0.00000  0.14517
       2     N     3.69574  3.69574  0.00000 -0.39149
       3     C     3.03970  3.03970  0.00000 -0.07941
       4     H     0.42608  0.42608  0.00000  0.14783
       5     C     3.06121  3.06121  0.00000 -0.12242
       6     H     0.46037  0.46037  0.00000  0.07925
       7     H     0.45788  0.45788  0.00000  0.08424
       8     C     3.15581  3.15581  0.00000 -0.31162
       9     H     0.45791  0.45791  0.00000  0.08418
      10     H     0.45579  0.45579  0.00000  0.08843
      11     H     0.45735  0.45735  0.00000  0.08530
      12     H     0.44760  0.44760  0.00000  0.10480
      13     H     0.45713  0.45713  0.00000  0.08573

   Total alpha = 17.00000, Total beta = 17.00000, Total charge = -0.00000

*** Psi4 exiting successfully. Buy a developer a beer!
