                              Psi4 1.0.54 Driver

  ==> Input File <==

--------------------------------------------------------------------------
set {
	reference rhf
	basis cc-pvtz
}

set_num_threads( 4 )
memory 2 gb

molecule MOL {
0 1

H	 -0.423425	 3.352789	 2.053646
O	 -0.361665	 3.492450	 1.126510
C	 -0.248200	 2.267074	 0.458889
C	 1.128903	 1.660322	 0.641190
H	 -1.003401	 1.561060	 0.789563
H	 -0.419289	 2.462312	 -0.590059
O	 1.172093	 0.457955	 -0.054438
H	 1.325689	 1.495878	 1.701911
H	 1.882866	 2.352837	 0.273034
C	 2.395478	 -0.199028	 -0.000366
H	 2.505946	 -0.901710	 -0.823354
H	 3.174616	 0.545641	 -0.071768
H	 2.513730	 -0.742241	 0.934223

	symmetry c1
}
set optking {
	frozen_dihedral = ("
		4 7 10 13
	")
}

ee,wfn = optimize('scf', return_wfn=True)
oeprop( wfn, 'DIPOLE', 'QUADRUPOLE', 'MULLIKEN_CHARGES')
f=open( 'psi4out.xyz', 'w' )
f.write( "13  " )
f.write( str(ee) + "\n" )
f.write( MOL.save_string_xyz() )
f.close()
--------------------------------------------------------------------------

    Molecular point group: c1
  Charge       = 0
  Multiplicity = 1
  Basis Set: CC-PVTZ
  Basis Set:
  @DF-RHF Final Energy:  -268.06037277049137
    Total Energy =                       -268.0603727704911989
    Molecular point group: c1
  Basis Set: CC-PVTZ
  Basis Set:
  Basis Set: CC-PVTZ
  Basis Set:
  @DF-RHF Final Energy:  -268.06125507096954
    Total Energy =                       -268.0612550709692528
  Basis Set: CC-PVTZ
  Basis Set:
  Basis Set: CC-PVTZ
  Basis Set:
  @DF-RHF Final Energy:  -268.06148912683432
    Total Energy =                       -268.0614891268341466
  Basis Set: CC-PVTZ
  Basis Set:
  Charge       = 0
  Multiplicity = 1
  Basis Set: CC-PVTZ
  Basis Set:

    Orbital Energies (a.u.)
    -----------------------

    Doubly Occupied:

       1A    -20.555327     2A    -20.552808     3A    -11.269401
       4A    -11.267601     5A    -11.267363     6A     -1.391110
       7A     -1.369109     8A     -1.019771     9A     -0.914051
      10A     -0.842664    11A     -0.712103    12A     -0.675697
      13A     -0.661917    14A     -0.640181    15A     -0.597145
      16A     -0.571502    17A     -0.547488    18A     -0.491559
      19A     -0.483090    20A     -0.441590    21A     -0.423578

  @DF-RHF Final Energy:  -268.06149003290216

   => Energetics <=

    Nuclear Repulsion Energy =            190.4225205424461649
    One-Electron Energy =                -743.5779139508565549
    Two-Electron Energy =                 285.0939033755082619
    DFT Exchange-Correlation Energy =       0.0000000000000000
    Empirical Dispersion Energy =           0.0000000000000000
    PCM Polarization Energy =               0.0000000000000000
    EFP Energy =                            0.0000000000000000
    Total Energy =                       -268.0614900329021566
    Molecular point group: c1
  Basis Set: CC-PVTZ
  Basis Set:

  -Total Gradient:
     Atom            X                  Y                   Z
    ------   -----------------  -----------------  -----------------
       1        0.000001700278    -0.000010814478    -0.000002472060
       2        0.000057839636    -0.000044924563    -0.000032032812
       3       -0.000047452374    -0.000046940730    -0.000041442968
       4        0.000638340475     0.000941272195    -0.001409554722
       5        0.000002871367    -0.000002005408     0.000002032048
       6       -0.000019988574     0.000018369735    -0.000005979500
       7       -0.001071024551    -0.001891438378     0.001912194419
       8        0.000004654226     0.000004393916    -0.000000869829
       9        0.000014506165    -0.000033764024    -0.000030598147
      10        0.001477967942     0.002933540521     0.000606132676
      11       -0.000015557253    -0.000015663330    -0.000003409993
      12        0.000017918264     0.000004385618     0.000004979954
      13       -0.001061775602    -0.001856411073    -0.000998979066

  **** Optimization is complete! (in 4 steps) ****
    Final optimized geometry and variables:
    Molecular point group: c1

    Geometry (in Angstrom), charge = 0, multiplicity = 1:

    H           -1.220593260345     1.807610731795     1.605634835659
    O           -1.156384618555     1.949962861903     0.679059993156
    C           -1.054148399696     0.725781170678     0.007470213863
    C            0.316316505812     0.104720523819     0.191033732656
    H           -1.817651412547     0.026670277705     0.333651260116
    H           -1.220138366309     0.926325794377    -1.041336460550
    O            0.350902352556    -1.090410061285    -0.517800087505
    H            0.505441362519    -0.069296643256     1.251873544659
    H            1.078474800721     0.792224470935    -0.168219168355
    C            1.561692142519    -1.772666074000    -0.463699807403
    H            1.580771631405    -2.478109584417    -1.282529639281
    H            2.407869912490    -1.099163396726    -0.565699104130
    H            1.659850577734    -2.329798499696     0.464954688932

  Mulliken Charges: (a.u.)
   Center  Symbol    Alpha    Beta     Spin     Total
       1     H     0.39416  0.39416  0.00000  0.21168
       2     O     4.20208  4.20208  0.00000 -0.40416
       3     C     2.97378  2.97378  0.00000  0.05244
       4     C     2.96538  2.96538  0.00000  0.06925
       5     H     0.46660  0.46660  0.00000  0.06679
       6     H     0.45283  0.45283  0.00000  0.09433
       7     O     4.17654  4.17654  0.00000 -0.35309
       8     H     0.48305  0.48305  0.00000  0.03389
       9     H     0.46819  0.46819  0.00000  0.06363
      10     C     3.03116  3.03116  0.00000 -0.06232
      11     H     0.44753  0.44753  0.00000  0.10495
      12     H     0.47175  0.47175  0.00000  0.05650
      13     H     0.46694  0.46694  0.00000  0.06612

   Total alpha = 21.00000, Total beta = 21.00000, Total charge =  0.00000

*** Psi4 exiting successfully. Buy a developer a beer!
