  ==> Input File <==

--------------------------------------------------------------------------
set {
	reference rhf
	basis 6-31G*
}

set_num_threads( 1 )
memory 2 gb

molecule MOL {
0 1

H	 3.695305	 -0.973101	 -0.218990
O	 2.826016	 -1.159218	 0.122261
C	 2.077727	 -0.067559	 -0.035091
C	 0.624473	 -0.343591	 0.253101
O	 2.542965	 0.974826	 -0.363729
C	 -0.265902	 0.883932	 0.072916
H	 0.324016	 -1.163849	 -0.390541
H	 0.565024	 -0.726111	 1.268924
C	 -1.728698	 0.646073	 0.462102
H	 -0.209144	 1.219470	 -0.958188
H	 0.135059	 1.692851	 0.673903
C	 -2.482460	 -0.343073	 -0.431425
H	 -2.245265	 1.602650	 0.432430
H	 -1.779332	 0.308348	 1.496285
C	 -3.960546	 -0.461025	 -0.060175
H	 -2.395034	 -0.026811	 -1.468912
H	 -2.024850	 -1.327147	 -0.371646
H	 -4.472726	 -1.168004	 -0.705284
H	 -4.465146	 0.496508	 -0.151489
H	 -4.081218	 -0.800940	 0.964585

	symmetry c1
}
set optking {
	frozen_dihedral = ("
		16 12 9 6,
		7 4 6 10,
		12 9 6 10,
		5 3 4 7
	")
}

ee = energy('scf')
oeprop('DIPOLE', 'QUADRUPOLE', 'MULLIKEN_CHARGES')
f=open( 'psi4out.xyz', 'w' )
f.write( "20  " )
f.write( str(ee) + "\n" )
f.write( MOL.save_string_xyz() )
f.close()
--------------------------------------------------------------------------

    Molecular point group: c1

    Geometry (in Angstrom), charge = 0, multiplicity = 1:

       Center              X                  Y                   Z               Mass
    ------------   -----------------  -----------------  -----------------  -----------------
           H          3.695601772970    -0.972711937393    -0.217701461563     1.007825032070
           O          2.826312772970    -1.158828937393     0.123549538437    15.994914619560
           C          2.078023772970    -0.067169937393    -0.033802461563    12.000000000000
           C          0.624769772970    -0.343201937393     0.254389538437    12.000000000000
           O          2.543261772970     0.975215062607    -0.362440461563    15.994914619560
           C         -0.265605227030     0.884321062607     0.074204538437    12.000000000000
           H          0.324312772970    -1.163459937393    -0.389252461563     1.007825032070
           H          0.565320772970    -0.725721937393     1.270212538437     1.007825032070
           C         -1.728401227030     0.646462062607     0.463390538437    12.000000000000
           H         -0.208847227030     1.219859062607    -0.956899461563     1.007825032070
           H          0.135355772970     1.693240062607     0.675191538437     1.007825032070
           C         -2.482163227030    -0.342683937393    -0.430136461563    12.000000000000
           H         -2.244968227030     1.603039062607     0.433718538437     1.007825032070
           H         -1.779035227030     0.308737062607     1.497573538437     1.007825032070
           C         -3.960249227030    -0.460635937393    -0.058886461563    12.000000000000
           H         -2.394737227030    -0.026421937393    -1.467623461563     1.007825032070
           H         -2.024553227030    -1.326757937393    -0.370357461563     1.007825032070
           H         -4.472429227030    -1.167614937393    -0.703995461563     1.007825032070
           H         -4.464849227030     0.496897062607    -0.150200461563     1.007825032070
           H         -4.080921227030    -0.800550937393     0.965873538437     1.007825032070

  Charge       = 0
  Multiplicity = 1
  Basis Set: 6-31G*
  Basis Set:

    Orbital Energies (a.u.)
    -----------------------

    Doubly Occupied:

       1A    -20.612099     2A    -20.551776     3A    -11.381145
       4A    -11.240173     5A    -11.222908     6A    -11.220740
       7A    -11.220142     8A    -11.212466     9A     -1.474435
      10A     -1.365669    11A     -1.096209    12A     -1.040962
      13A     -0.961196    14A     -0.868804    15A     -0.816295
      16A     -0.776891    17A     -0.699658    18A     -0.689940
      19A     -0.664527    20A     -0.634824    21A     -0.605997
      22A     -0.592611    23A     -0.572831    24A     -0.555232
      25A     -0.541947    26A     -0.512499    27A     -0.496122
      28A     -0.479078    29A     -0.470240    30A     -0.467736
      31A     -0.457286    32A     -0.443694

  @DF-RHF Final Energy:  -383.94809625834472

   => Energetics <=

    Nuclear Repulsion Energy =            375.9205218248446840
    One-Electron Energy =               -1267.8449779734655749
    Two-Electron Energy =                 507.9763598902763988
    DFT Exchange-Correlation Energy =       0.0000000000000000
    Empirical Dispersion Energy =           0.0000000000000000
    PCM Polarization Energy =               0.0000000000000000
    EFP Energy =                            0.0000000000000000
    Total Energy =                       -383.9480962583445489

  Mulliken Charges: (a.u.)
   Center  Symbol    Alpha    Beta     Spin     Total
       1     H     0.26774  0.26774  0.00000  0.46452
       2     O     4.35176  4.35176  0.00000 -0.70352
       3     C     2.62258  2.62258  0.00000  0.75484
       4     C     3.21284  3.21284  0.00000 -0.42569
       5     O     4.27861  4.27861  0.00000 -0.55722
       6     C     3.15444  3.15444  0.00000 -0.30888
       7     H     0.39723  0.39723  0.00000  0.20554
       8     H     0.39884  0.39884  0.00000  0.20231
       9     C     3.15551  3.15551  0.00000 -0.31102
      10     H     0.41246  0.41246  0.00000  0.17507
      11     H     0.40780  0.40780  0.00000  0.18440
      12     C     3.15487  3.15487  0.00000 -0.30973
      13     H     0.41788  0.41788  0.00000  0.16424
      14     H     0.42358  0.42358  0.00000  0.15283
      15     C     3.23923  3.23923  0.00000 -0.47846
      16     H     0.42156  0.42156  0.00000  0.15688
      17     H     0.42280  0.42280  0.00000  0.15439
      18     H     0.41837  0.41837  0.00000  0.16326
      19     H     0.42062  0.42062  0.00000  0.15876
      20     H     0.42126  0.42126  0.00000  0.15747

   Total alpha = 32.00000, Total beta = 32.00000, Total charge = -0.00000
