  ==> Input File <==

--------------------------------------------------------------------------
set {
	reference rhf
	basis cc-pvtz
}

set_num_threads( 4 )
memory 2 gb

molecule MOL {
0 1

H	 1.215247	 -2.299880	 -0.179769
C	 0.247203	 -1.829387	 -0.216630
O	 0.462329	 -0.453336	 -0.000137
H	 -0.383103	 -2.251714	 0.555751
H	 -0.197507	 -2.006431	 -1.187777
C	 -0.590565	 0.341382	 0.000062
O	 -1.693898	 -0.053880	 0.000252
H	 -0.340426	 1.403822	 0.000200

	symmetry c1
}
set optking {
	frozen_dihedral = ("
		2 3 6 7
	")
}

ee = optimize('scf')
oeprop('DIPOLE', 'QUADRUPOLE', 'MULLIKEN_CHARGES')
f=open( 'psi4out.xyz', 'w' )
f.write( "8  " )
f.write( str(ee) + "\n" )
f.write( MOL.save_string_xyz() )
f.close()
--------------------------------------------------------------------------

    Molecular point group: c1
  Charge       = 0
  Multiplicity = 1
  Basis Set: CC-PVTZ
  Basis Set:
  @DF-RHF Final Energy:  -227.87699537811415
    Total Energy =                       -227.8769953781142021
    Molecular point group: c1
  Basis Set: CC-PVTZ
  Basis Set:
  Basis Set: CC-PVTZ
  Basis Set:
  @DF-RHF Final Energy:  -227.87675015153678
    Total Energy =                       -227.8767501515367258
  Basis Set: CC-PVTZ
  Basis Set:
  Basis Set: CC-PVTZ
  Basis Set:
  @DF-RHF Final Energy:  -227.87537906621787
    Total Energy =                       -227.8753790662179597
  Basis Set: CC-PVTZ
  Basis Set:
  Basis Set: CC-PVTZ
  Basis Set:
  @DF-RHF Final Energy:  -227.87816463493223
    Total Energy =                       -227.8781646349322045
  Basis Set: CC-PVTZ
  Basis Set:
  Basis Set: CC-PVTZ
  Basis Set:
  @DF-RHF Final Energy:  -227.87818521206054
    Total Energy =                       -227.8781852120605436
  Basis Set: CC-PVTZ
  Basis Set:
  Charge       = 0
  Multiplicity = 1
  Basis Set: CC-PVTZ
  Basis Set:

    Orbital Energies (a.u.)
    -----------------------

    Doubly Occupied:

       1A    -20.609460     2A    -20.548797     3A    -11.372535
       4A    -11.287311     5A     -1.482458     6A     -1.380145
       7A     -0.998963     8A     -0.819770     9A     -0.748193
      10A     -0.685430    11A     -0.683920    12A     -0.602781
      13A     -0.560381    14A     -0.535241    15A     -0.469789
      16A     -0.462319

  @DF-RHF Final Energy:  -227.87818716962406

   => Energetics <=

    Nuclear Repulsion Energy =            123.9887149219648848
    One-Electron Energy =                -557.2388196315075675
    Two-Electron Energy =                 205.3719175399186838
    DFT Exchange-Correlation Energy =       0.0000000000000000
    Empirical Dispersion Energy =           0.0000000000000000
    PCM Polarization Energy =               0.0000000000000000
    EFP Energy =                            0.0000000000000000
    Total Energy =                       -227.8781871696240273
    Molecular point group: c1
  Basis Set: CC-PVTZ
  Basis Set:

  -Total Gradient:
     Atom            X                  Y                   Z
    ------   -----------------  -----------------  -----------------
       1       -0.000001280095    -0.000041693790    -0.000012066945
       2        0.000461857168     0.000566699249    -0.002720473853
       3       -0.000568785768    -0.000808357023     0.006039836796
       4       -0.000009647282    -0.000029521381    -0.000009588014
       5       -0.000006188467    -0.000022442606    -0.000006761572
       6        0.000097592975     0.000312311775    -0.006941206200
       7        0.000011862209     0.000032891063     0.003689654013
       8        0.000014589261    -0.000009887286    -0.000039394225

  **** Optimization is complete! (in 6 steps) ****
    Final optimized geometry and variables:
    Molecular point group: c1

    Geometry (in Angstrom), charge = 0, multiplicity = 1:

    H            1.634407371360    -1.764519951558    -0.137501231339
    C            0.654827914812    -1.316206516000    -0.141709144720
    O            0.857645128044     0.067972761657     0.082436066831
    H            0.044517805281    -1.743590931338     0.639581185284
    H            0.174175000787    -1.475588051592    -1.095581536545
    C           -0.201085467120     0.844313155807     0.050666870195
    O           -1.321034194039     0.481204574419     0.017603185744
    H            0.098586981886     1.886609479587     0.089830813299

  Mulliken Charges: (a.u.)
   Center  Symbol    Alpha    Beta     Spin     Total
       1     H     0.44433  0.44433  0.00000  0.11134
       2     C     3.02771  3.02771  0.00000 -0.05542
       3     O     4.14046  4.14046  0.00000 -0.28092
       4     H     0.45195  0.45195  0.00000  0.09609
       5     H     0.45501  0.45501  0.00000  0.08999
       6     C     2.83788  2.83788  0.00000  0.32424
       7     O     4.19398  4.19398  0.00000 -0.38795
       8     H     0.44868  0.44868  0.00000  0.10264

   Total alpha = 16.00000, Total beta = 16.00000, Total charge =  0.00000
