  ==> Input File <==

--------------------------------------------------------------------------
set {
	reference rhf
	basis 6-31G*
}

set_num_threads( 1 )
memory 2 gb

molecule MOL {
0 1

H	 3.703483	 0.163962	 0.844512
O	 2.799040	 -0.012736	 1.084337
C	 2.077727	 -0.067559	 -0.035091
C	 0.624473	 -0.343591	 0.253101
O	 2.563813	 0.088351	 -1.107671
C	 -0.265902	 0.883932	 0.072916
H	 0.324016	 -1.163849	 -0.390541
H	 0.565024	 -0.726111	 1.268924
C	 -1.728698	 0.646073	 0.462102
H	 -0.209144	 1.219470	 -0.958188
H	 0.135059	 1.692851	 0.673903
C	 -2.482460	 -0.343073	 -0.431425
H	 -2.245265	 1.602650	 0.432430
H	 -1.779332	 0.308348	 1.496285
C	 -3.960546	 -0.461025	 -0.060175
H	 -2.395034	 -0.026811	 -1.468912
H	 -2.024850	 -1.327147	 -0.371646
H	 -4.472726	 -1.168004	 -0.705284
H	 -4.465146	 0.496508	 -0.151489
H	 -4.081218	 -0.800940	 0.964585

	symmetry c1
}
set optking {
	frozen_dihedral = ("
		16 12 9 6,
		7 4 6 10,
		12 9 6 10,
		1 2 3 5
	")
}

ee = energy('scf')
oeprop('DIPOLE', 'QUADRUPOLE', 'MULLIKEN_CHARGES')
f=open( 'psi4out.xyz', 'w' )
f.write( "20  " )
f.write( str(ee) + "\n" )
f.write( MOL.save_string_xyz() )
f.close()
--------------------------------------------------------------------------

    Molecular point group: c1

    Geometry (in Angstrom), charge = 0, multiplicity = 1:

       Center              X                  Y                   Z               Mass
    ------------   -----------------  -----------------  -----------------  -----------------
           H          3.704553135818     0.118653441269     0.806511150875     1.007825032070
           O          2.800110135818    -0.058044558731     1.046336150875    15.994914619560
           C          2.078797135818    -0.112867558731    -0.073091849125    12.000000000000
           C          0.625543135818    -0.388899558731     0.215100150875    12.000000000000
           O          2.564883135818     0.043042441269    -1.145671849125    15.994914619560
           C         -0.264831864182     0.838623441269     0.034915150875    12.000000000000
           H          0.325086135818    -1.209157558731    -0.428541849125     1.007825032070
           H          0.566094135818    -0.771419558731     1.230923150875     1.007825032070
           C         -1.727627864182     0.600764441269     0.424101150875    12.000000000000
           H         -0.208073864182     1.174161441269    -0.996188849125     1.007825032070
           H          0.136129135818     1.647542441269     0.635902150875     1.007825032070
           C         -2.481389864182    -0.388381558731    -0.469425849125    12.000000000000
           H         -2.244194864182     1.557341441269     0.394429150875     1.007825032070
           H         -1.778261864182     0.263039441269     1.458284150875     1.007825032070
           C         -3.959475864182    -0.506333558731    -0.098175849125    12.000000000000
           H         -2.393963864182    -0.072119558731    -1.506912849125     1.007825032070
           H         -2.023779864182    -1.372455558731    -0.409646849125     1.007825032070
           H         -4.471655864182    -1.213312558731    -0.743284849125     1.007825032070
           H         -4.464075864182     0.451199441269    -0.189489849125     1.007825032070
           H         -4.080147864182    -0.846248558731     0.926584150875     1.007825032070

  Charge       = 0
  Multiplicity = 1
  Basis Set: 6-31G*
  Basis Set:

    Orbital Energies (a.u.)
    -----------------------

    Doubly Occupied:

       1A    -20.613054     2A    -20.548996     3A    -11.379934
       4A    -11.237889     5A    -11.232484     6A    -11.224453
       7A    -11.221930     8A    -11.213676     9A     -1.473752
      10A     -1.364089    11A     -1.099654    12A     -1.042275
      13A     -0.961851    14A     -0.868194    15A     -0.820452
      16A     -0.785785    17A     -0.701388    18A     -0.686517
      19A     -0.649917    20A     -0.629517    21A     -0.618251
      22A     -0.594551    23A     -0.578170    24A     -0.556717
      25A     -0.538818    26A     -0.519725    27A     -0.497296
      28A     -0.484051    29A     -0.472994    30A     -0.469814
      31A     -0.459436    32A     -0.436600

  @DF-RHF Final Energy:  -383.94617560065615

   => Energetics <=

    Nuclear Repulsion Energy =            375.7564348367242246
    One-Electron Energy =               -1267.4407481848843418
    Two-Electron Energy =                 507.7381377475053341
    DFT Exchange-Correlation Energy =       0.0000000000000000
    Empirical Dispersion Energy =           0.0000000000000000
    PCM Polarization Energy =               0.0000000000000000
    EFP Energy =                            0.0000000000000000
    Total Energy =                       -383.9461756006547830

  Mulliken Charges: (a.u.)
   Center  Symbol    Alpha    Beta     Spin     Total
       1     H     0.26866  0.26866  0.00000  0.46268
       2     O     4.34727  4.34727  0.00000 -0.69453
       3     C     2.63038  2.63038  0.00000  0.73923
       4     C     3.20468  3.20468  0.00000 -0.40936
       5     O     4.27876  4.27876  0.00000 -0.55751
       6     C     3.16369  3.16369  0.00000 -0.32738
       7     H     0.39795  0.39795  0.00000  0.20409
       8     H     0.40103  0.40103  0.00000  0.19794
       9     C     3.15448  3.15448  0.00000 -0.30897
      10     H     0.40692  0.40692  0.00000  0.18615
      11     H     0.41176  0.41176  0.00000  0.17649
      12     C     3.15490  3.15490  0.00000 -0.30979
      13     H     0.41767  0.41767  0.00000  0.16466
      14     H     0.42131  0.42131  0.00000  0.15737
      15     C     3.23964  3.23964  0.00000 -0.47929
      16     H     0.41995  0.41995  0.00000  0.16010
      17     H     0.42156  0.42156  0.00000  0.15688
      18     H     0.41754  0.41754  0.00000  0.16491
      19     H     0.42071  0.42071  0.00000  0.15859
      20     H     0.42113  0.42113  0.00000  0.15773

   Total alpha = 32.00000, Total beta = 32.00000, Total charge = -0.00000
