  ==> Input File <==

--------------------------------------------------------------------------
set {
	reference rhf
	basis cc-pvtz
}

set_num_threads( 4 )
memory 2 gb

molecule MOL {
0 1

H	 -3.436473	 1.252944	 -1.023892
O	 -3.458596	 0.315260	 -0.960865
C	 -3.176635	 -0.080824	 0.355601
C	 -1.763371	 0.265266	 0.799691
H	 -3.321825	 -1.153438	 0.379502
H	 -3.895468	 0.357385	 1.043382
C	 -0.673390	 -0.426948	 -0.013392
H	 -1.631049	 1.344913	 0.747560
H	 -1.664587	 -0.001624	 1.849167
C	 0.737842	 -0.043159	 0.423759
H	 -0.806103	 -0.190518	 -1.063345
H	 -0.797221	 -1.503753	 0.074146
C	 1.824000	 -0.743224	 -0.390623
H	 0.850588	 1.033777	 0.343840
H	 0.868587	 -0.286314	 1.476203
C	 3.255957	 -0.453067	 0.062319
H	 1.718250	 -0.470599	 -1.438164
H	 1.658105	 -1.815850	 -0.339904
C	 3.919085	 0.731169	 -0.636959
H	 3.857126	 -1.340139	 -0.112249
H	 3.265639	 -0.288286	 1.136644
H	 3.918642	 0.597011	 -1.714028
H	 4.950027	 0.837255	 -0.318922
H	 3.414726	 1.665068	 -0.420028

	symmetry c1
}
set optking {
	frozen_dihedral = ("
		20 16 13 17
	")
}

ee = optimize('scf')
oeprop('DIPOLE', 'QUADRUPOLE', 'MULLIKEN_CHARGES')
f=open( 'psi4out.xyz', 'w' )
f.write( "24  " )
f.write( str(ee) + "\n" )
f.write( MOL.save_string_xyz() )
f.close()
--------------------------------------------------------------------------

    Molecular point group: c1
  Charge       = 0
  Multiplicity = 1
  Basis Set: CC-PVTZ
  Basis Set:
  @DF-RHF Final Energy:  -349.37836803899927
    Total Energy =                       -349.3783680389988149
    Molecular point group: c1
  Basis Set: CC-PVTZ
  Basis Set:
  Basis Set: CC-PVTZ
  Basis Set:
  @DF-RHF Final Energy:  -349.37890482447006
    Total Energy =                       -349.3789048244699416
  Basis Set: CC-PVTZ
  Basis Set:
  Basis Set: CC-PVTZ
  Basis Set:
  @DF-RHF Final Energy:  -349.37895635218104
    Total Energy =                       -349.3789563521811488
  Basis Set: CC-PVTZ
  Basis Set:
  Basis Set: CC-PVTZ
  Basis Set:
  @DF-RHF Final Energy:  -349.37895979764329
    Total Energy =                       -349.3789597976438017
  Basis Set: CC-PVTZ
  Basis Set:
  Charge       = 0
  Multiplicity = 1
  Basis Set: CC-PVTZ
  Basis Set:

    Orbital Energies (a.u.)
    -----------------------

    Doubly Occupied:

       1A    -20.546306     2A    -11.265533     3A    -11.215223
       4A    -11.211668     5A    -11.210487     6A    -11.209243
       7A    -11.208881     8A    -11.205910     9A     -1.364156
      10A     -1.089577    11A     -1.049277    12A     -0.987427
      13A     -0.915263    14A     -0.847748    15A     -0.800424
      16A     -0.782438    17A     -0.681820    18A     -0.654831
      19A     -0.624825    20A     -0.621082    21A     -0.599149
      22A     -0.584257    23A     -0.559620    24A     -0.538300
      25A     -0.519409    26A     -0.511975    27A     -0.495532
      28A     -0.473897    29A     -0.468209    30A     -0.460499
      31A     -0.457172    32A     -0.451443    33A     -0.420704

  @DF-RHF Final Energy:  -349.37896021932806

   => Energetics <=

    Nuclear Repulsion Energy =            384.0803249968225828
    One-Electron Energy =               -1234.8539885252796466
    Two-Electron Energy =                 501.3947033091287722
    DFT Exchange-Correlation Energy =       0.0000000000000000
    Empirical Dispersion Energy =           0.0000000000000000
    PCM Polarization Energy =               0.0000000000000000
    EFP Energy =                            0.0000000000000000
    Total Energy =                       -349.3789602193282917
    Molecular point group: c1
  Basis Set: CC-PVTZ
  Basis Set:

  -Total Gradient:
     Atom            X                  Y                   Z
    ------   -----------------  -----------------  -----------------
       1       -0.000000279743     0.000000085242     0.000000975912
       2       -0.000001077072     0.000001053966     0.000002751951
       3       -0.000000854838    -0.000005079312     0.000003677349
       4       -0.000002032109    -0.000009409294    -0.000001218385
       5       -0.000001131399    -0.000001031654    -0.000002135479
       6       -0.000000087832    -0.000000998599    -0.000000274260
       7       -0.000024330719     0.000022621414     0.000002590796
       8        0.000001721801    -0.000001082891    -0.000003921774
       9       -0.000003556742     0.000003896281     0.000002679786
      10       -0.000016905798     0.000017635901    -0.000017308049
      11       -0.000000929095     0.000003665007     0.000003329974
      12        0.000003952299    -0.000002724732     0.000000826763
      13        0.001073487833    -0.003690754297    -0.000243751217
      14       -0.000011248732    -0.000004823578    -0.000004132014
      15        0.000023506631     0.000003846326    -0.000002846498
      16        0.000462424715     0.001833393224    -0.003374559360
      17       -0.000951994096     0.002787072276     0.000784376092
      18       -0.000007520619     0.000001916485    -0.000016783683
      19        0.000017365036     0.000004755583     0.000027711602
      20       -0.000547215315    -0.000980337062     0.002837622738
      21       -0.000009794007     0.000010580152    -0.000000831696
      22       -0.000006589725    -0.000010175949     0.000018827991
      23        0.000002677084     0.000015109699    -0.000011435958
      24        0.000000412435     0.000000785815    -0.000006172582

  **** Optimization is complete! (in 5 steps) ****
    Final optimized geometry and variables:
    Molecular point group: c1

    Geometry (in Angstrom), charge = 0, multiplicity = 1:

    H           -3.393830995667     1.376592656882    -0.944043067451
    O           -3.442735105091     0.438453386779    -0.909674166985
    C           -3.189707277614    -0.004309657840     0.397679603689
    C           -1.773206946136     0.287767480142     0.869472825942
    H           -3.365498444062    -1.072559002405     0.387244284083
    H           -3.905059467691     0.433581763957     1.089289461010
    C           -0.692403665407    -0.409644880589     0.048551423326
    H           -1.609970334520     1.364333184540     0.852432053365
    H           -1.695652210956    -0.013778541038     1.911280972196
    C            0.722919146711    -0.080755458243     0.514540649943
    H           -0.805066378631    -0.137873139903    -0.995116368045
    H           -0.847344214093    -1.484875532250     0.101398033686
    C            1.805579010290    -0.802801141287    -0.287941556746
    H            0.878455455649     0.993480916772     0.451859560723
    H            0.827350827805    -0.341111011023     1.565245365102
    C            3.233179817829    -0.420990778369     0.126932570411
    H            1.662397054761    -0.567793311242    -1.339445333654
    H            1.664170595211    -1.873502561040    -0.182170249046
    C            3.782750063620     0.802461692102    -0.599874983046
    H            3.896096068967    -1.266086747269    -0.027779975071
    H            3.251946117645    -0.237479647394     1.198147515340
    H            3.850380016305     0.621773176538    -1.667340562065
    H            4.774503371185     1.057258984428    -0.243773423639
    H            3.148858707546     1.670201314907    -0.452731775914

  Mulliken Charges: (a.u.)
   Center  Symbol    Alpha    Beta     Spin     Total
       1     H     0.39531  0.39531  0.00000  0.20939
       2     O     4.20366  4.20366  0.00000 -0.40732
       3     C     2.97772  2.97772  0.00000  0.04457
       4     C     3.10173  3.10173  0.00000 -0.20345
       5     H     0.45889  0.45889  0.00000  0.08222
       6     H     0.46023  0.46023  0.00000  0.07953
       7     C     3.08847  3.08847  0.00000 -0.17694
       8     H     0.45927  0.45927  0.00000  0.08146
       9     H     0.45331  0.45331  0.00000  0.09337
      10     C     3.08954  3.08954  0.00000 -0.17908
      11     H     0.44601  0.44601  0.00000  0.10799
      12     H     0.45531  0.45531  0.00000  0.08937
      13     C     3.09393  3.09393  0.00000 -0.18786
      14     H     0.45476  0.45476  0.00000  0.09047
      15     H     0.45586  0.45586  0.00000  0.08828
      16     C     3.09056  3.09056  0.00000 -0.18113
      17     H     0.45574  0.45574  0.00000  0.08852
      18     H     0.44805  0.44805  0.00000  0.10390
      19     C     3.14792  3.14792  0.00000 -0.29583
      20     H     0.44798  0.44798  0.00000  0.10403
      21     H     0.45680  0.45680  0.00000  0.08641
      22     H     0.45474  0.45474  0.00000  0.09052
      23     H     0.44847  0.44847  0.00000  0.10306
      24     H     0.45574  0.45574  0.00000  0.08852

   Total alpha = 33.00000, Total beta = 33.00000, Total charge = -0.00000
