                              Psi4 1.0.54 Driver

  ==> Input File <==

--------------------------------------------------------------------------
set {
	reference rhf
	basis cc-pvtz
}

set_num_threads( 4 )
memory 2 gb

molecule MOL {
0 1

H	 0.018491	 2.207287	 2.472060
C	 -0.533491	 1.272122	 2.638398
C	 -1.656880	 1.018631	 1.670084
O	 -0.233318	 0.559152	 3.532197
C	 -1.216901	 1.136108	 0.207794
H	 -2.081514	 0.045980	 1.882150
H	 -2.418380	 1.767818	 1.875367
C	 -0.247837	 0.040196	 -0.230469
H	 -2.101118	 1.107355	 -0.419640
H	 -0.763537	 2.110971	 0.045634
C	 1.181757	 0.280428	 0.247371
H	 -0.259600	 -0.030819	 -1.314870
H	 -0.591284	 -0.923375	 0.136958
C	 2.151032	 -0.811012	 -0.202643
H	 1.515939	 1.247397	 -0.115449
H	 1.191514	 0.341223	 1.333422
C	 3.580021	 -0.656538	 0.320835
H	 2.170545	 -0.847575	 -1.289412
H	 1.766632	 -1.772905	 0.124928
C	 4.327657	 0.562694	 -0.213579
H	 4.138806	 -1.549270	 0.057813
H	 3.561991	 -0.620783	 1.406976
H	 4.355973	 0.557257	 -1.298551
H	 3.867136	 1.491650	 0.100501
H	 5.351524	 0.571613	 0.142204

	symmetry c1
}
set optking {
	frozen_dihedral = ("
		3 5 8 12
	")
}

ee,wfn = optimize('scf', return_wfn=True)
oeprop( wfn, 'DIPOLE', 'QUADRUPOLE', 'MULLIKEN_CHARGES')
f=open( 'psi4out.xyz', 'w' )
f.write( "25  " )
f.write( str(ee) + "\n" )
f.write( MOL.save_string_xyz() )
f.close()
--------------------------------------------------------------------------

    Molecular point group: c1
  Charge       = 0
  Multiplicity = 1
  Basis Set: CC-PVTZ
  Basis Set:
  @DF-RHF Final Energy:  -387.25532778400560
    Total Energy =                       -387.2553277840055443
    Molecular point group: c1
  Basis Set: CC-PVTZ
  Basis Set:
  Basis Set: CC-PVTZ
  Basis Set:
  @DF-RHF Final Energy:  -387.25576726219248
    Total Energy =                       -387.2557672621923075
  Basis Set: CC-PVTZ
  Basis Set:
  Basis Set: CC-PVTZ
  Basis Set:
  @DF-RHF Final Energy:  -387.25516619233144
    Total Energy =                       -387.2551661923316715
  Basis Set: CC-PVTZ
  Basis Set:
  Basis Set: CC-PVTZ
  Basis Set:
  @DF-RHF Final Energy:  -387.25726855237076
    Total Energy =                       -387.2572685523704195
  Basis Set: CC-PVTZ
  Basis Set:
  Basis Set: CC-PVTZ
  Basis Set:
  @DF-RHF Final Energy:  -387.25730781901200
    Total Energy =                       -387.2573078190123397
  Basis Set: CC-PVTZ
  Basis Set:
  Basis Set: CC-PVTZ
  Basis Set:
  @DF-RHF Final Energy:  -387.25731749891605
    Total Energy =                       -387.2573174989158815
  Basis Set: CC-PVTZ
  Basis Set:
  Charge       = 0
  Multiplicity = 1
  Basis Set: CC-PVTZ
  Basis Set:

    Orbital Energies (a.u.)
    -----------------------

    Doubly Occupied:

       1A    -20.550421     2A    -11.321271     3A    -11.234216
       4A    -11.233148     5A    -11.221648     6A    -11.216014
       7A    -11.214214     8A    -11.213606     9A    -11.207043
      10A     -1.406000    11A     -1.103591    12A     -1.068608
      13A     -1.011893    14A     -0.945383    15A     -0.880687
      16A     -0.814535    17A     -0.788990    18A     -0.780321
      19A     -0.666478    20A     -0.655660    21A     -0.644737
      22A     -0.622473    23A     -0.613492    24A     -0.580645
      25A     -0.568768    26A     -0.562312    27A     -0.537985
      28A     -0.523530    29A     -0.510413    30A     -0.506577
      31A     -0.485307    32A     -0.473457    33A     -0.460829
      34A     -0.456826    35A     -0.444444    36A     -0.410709

  @DF-RHF Final Energy:  -387.25731776956690

   => Energetics <=

    Nuclear Repulsion Energy =            452.3828787518529566
    One-Electron Energy =               -1421.4079233514385123
    Two-Electron Energy =                 581.7677268300190008
    DFT Exchange-Correlation Energy =       0.0000000000000000
    Empirical Dispersion Energy =           0.0000000000000000
    PCM Polarization Energy =               0.0000000000000000
    EFP Energy =                            0.0000000000000000
    Total Energy =                       -387.2573177695664981
    Molecular point group: c1
  Basis Set: CC-PVTZ
  Basis Set:

  -Total Gradient:
     Atom            X                  Y                   Z
    ------   -----------------  -----------------  -----------------
       1       -0.000107291631    -0.000042142411     0.000021073954
       2        0.000240149736    -0.000093700443     0.000057376734
       3       -0.000860283632    -0.000553617417     0.000005382396
       4       -0.000076482670     0.000077162742    -0.000086715584
       5        0.000837159398     0.000680935056     0.000237601088
       6       -0.000002443750     0.000018099621    -0.000000442899
       7        0.000031390611    -0.000021910504    -0.000043129644
       8        0.000848282048     0.000896947492    -0.000217638888
       9        0.000048406871     0.000013422999    -0.000041779406
      10       -0.000009247007     0.000021046255    -0.000003897740
      11        0.000057012220    -0.000064907197    -0.000034973619
      12       -0.000929242565    -0.000955451142     0.000108713973
      13        0.000017951811    -0.000013920563     0.000000711499
      14        0.000009183000    -0.000024347103     0.000051187522
      15        0.000048593233     0.000054460973     0.000012491455
      16       -0.000066623409     0.000009778707    -0.000030103486
      17       -0.000012936509    -0.000039632414    -0.000059626787
      18       -0.000012416199    -0.000024438842    -0.000001141427
      19       -0.000005194393     0.000023837873     0.000017920575
      20       -0.000027166314     0.000017083600     0.000011512612
      21        0.000010886881    -0.000025591460    -0.000028624863
      22        0.000001980131    -0.000023691479     0.000017327037
      23        0.000017810854    -0.000011462776    -0.000001894122
      24       -0.000063153959     0.000058474460     0.000002107081
      25        0.000003675240     0.000023563970     0.000006562534

  **** Optimization is complete! (in 7 steps) ****
    Final optimized geometry and variables:
    Molecular point group: c1

    Geometry (in Angstrom), charge = 0, multiplicity = 1:

    H           -1.095071131429     2.057890561901     1.474546300333
    C           -1.540456934493     1.090468845936     1.741310704443
    C           -2.526353205637     0.547366112117     0.743091904923
    O           -1.256360118316     0.569004720264     2.763798371196
    C           -2.048338180800     0.571116417227    -0.714706121508
    H           -2.815743391185    -0.449049611674     1.050835989971
    H           -3.404673688193     1.184704447909     0.826925091590
    C           -1.008381777772    -0.491379810573    -1.086485604079
    H           -2.922039791141     0.424695855940    -1.339189935112
    H           -1.670050104359     1.560583340336    -0.959665882875
    C            0.422425968363    -0.198431720854    -0.637419887558
    H           -1.018883456656    -0.609394697532    -2.165991186999
    H           -1.323920586382    -1.450016741920    -0.682748972892
    C            1.411756573845    -1.261754554696    -1.112231967344
    H            0.715990374726     0.775844270446    -1.016375236895
    H            0.471483802508    -0.138422119470     0.445305280858
    C            2.848647723790    -1.062976759505    -0.627200646828
    H            1.402800599809    -1.300318328144    -2.199253986416
    H            1.065197563857    -2.233396476586    -0.771580901576
    C            3.539229675387     0.184676057841    -1.172820319480
    H            3.429353274661    -1.934655501424    -0.912845726683
    H            2.859109038235    -1.035167554782     0.458923446566
    H            3.538275312737     0.187561935473    -2.258310649475
    H            3.056096114248     1.095147669668    -0.838991791843
    H            4.571416223560     0.226608566519    -0.844596411159

  Mulliken Charges: (a.u.)
   Center  Symbol    Alpha    Beta     Spin     Total
       1     H     0.46206  0.46206  0.00000  0.07587
       2     C     2.90634  2.90634  0.00000  0.18732
       3     C     3.08402  3.08402  0.00000 -0.16804
       4     O     4.16835  4.16835  0.00000 -0.33670
       5     C     3.12124  3.12124  0.00000 -0.24247
       6     H     0.44245  0.44245  0.00000  0.11510
       7     H     0.44165  0.44165  0.00000  0.11671
       8     C     3.09181  3.09181  0.00000 -0.18361
       9     H     0.43881  0.43881  0.00000  0.12237
      10     H     0.44914  0.44914  0.00000  0.10171
      11     C     3.10560  3.10560  0.00000 -0.21120
      12     H     0.44608  0.44608  0.00000  0.10783
      13     H     0.45055  0.45055  0.00000  0.09890
      14     C     3.09614  3.09614  0.00000 -0.19229
      15     H     0.45091  0.45091  0.00000  0.09817
      16     H     0.44468  0.44468  0.00000  0.11064
      17     C     3.09027  3.09027  0.00000 -0.18054
      18     H     0.45337  0.45337  0.00000  0.09327
      19     H     0.44820  0.44820  0.00000  0.10360
      20     C     3.15282  3.15282  0.00000 -0.30564
      21     H     0.44829  0.44829  0.00000  0.10343
      22     H     0.45196  0.45196  0.00000  0.09609
      23     H     0.45536  0.45536  0.00000  0.08927
      24     H     0.45430  0.45430  0.00000  0.09139
      25     H     0.44560  0.44560  0.00000  0.10880

   Total alpha = 36.00000, Total beta = 36.00000, Total charge = -0.00000

*** Psi4 exiting successfully. Buy a developer a beer!
