  ==> Input File <==

--------------------------------------------------------------------------
set {
	reference rhf
	basis 6-31G*
}

set_num_threads( 4 )
memory 2 gb

molecule MOL {
0 1

H	 1.856558	 -1.112502	 0.952158
C	 1.951159	 -0.223429	 0.317018
C	 0.692068	 0.589600	 0.160137
O	 2.993160	 0.039505	 -0.190159
C	 -0.558097	 -0.297372	 0.091132
H	 0.791645	 1.202255	 -0.728243
H	 0.616171	 1.253469	 1.020572
C	 -1.850991	 0.512573	 -0.019058
H	 -0.476753	 -0.965681	 -0.762987
H	 -0.604799	 -0.930658	 0.975228
C	 -3.096943	 -0.368295	 -0.099594
H	 -1.800724	 1.150330	 -0.898172
H	 -1.931651	 1.177355	 0.838044
H	 -3.060452	 -1.020287	 -0.967456
H	 -3.996858	 0.233488	 -0.175704
H	 -3.191959	 -0.995686	 0.782074

	symmetry c1
}
set optking {
	frozen_dihedral = ("
		4 2 3 6
	")
}

ee = optimize('scf')
oeprop('DIPOLE', 'QUADRUPOLE', 'MULLIKEN_CHARGES')
f=open( 'psi4out.xyz', 'w' )
f.write( "16  " )
f.write( str(ee) + "\n" )
f.write( MOL.save_string_xyz() )
f.close()
--------------------------------------------------------------------------

    Molecular point group: c1
  Charge       = 0
  Multiplicity = 1
  Basis Set: 6-31G*
  Basis Set:
  @DF-RHF Final Energy:  -270.01953344269947
    Total Energy =                       -270.0195334426996396
    Molecular point group: c1
  Basis Set: 6-31G*
  Basis Set:
  Basis Set: 6-31G*
  Basis Set:
  @DF-RHF Final Energy:  -270.01879737574825
    Total Energy =                       -270.0187973757484770
  Basis Set: 6-31G*
  Basis Set:
  Basis Set: 6-31G*
  Basis Set:
  @DF-RHF Final Energy:  -270.01960086076809
    Total Energy =                       -270.0196008607679801
  Basis Set: 6-31G*
  Basis Set:
  Basis Set: 6-31G*
  Basis Set:
  @DF-RHF Final Energy:  -270.01954095453982
    Total Energy =                       -270.0195409545398206
  Basis Set: 6-31G*
  Basis Set:
  Basis Set: 6-31G*
  Basis Set:
  @DF-RHF Final Energy:  -270.01961680235104
    Total Energy =                       -270.0196168023509244
  Basis Set: 6-31G*
  Basis Set:
  Basis Set: 6-31G*
  Basis Set:
  @DF-RHF Final Energy:  -270.01961810740175
    Total Energy =                       -270.0196181074018682
  Basis Set: 6-31G*
  Basis Set:
  Charge       = 0
  Multiplicity = 1
  Basis Set: 6-31G*
  Basis Set:

    Orbital Energies (a.u.)
    -----------------------

    Doubly Occupied:

       1A    -20.562107     2A    -11.327067     3A    -11.235965
       4A    -11.235375     5A    -11.229444     6A    -11.218664
       7A     -1.402336     8A     -1.096769     9A     -1.018874
      10A     -0.905456    11A     -0.811986    12A     -0.795502
      13A     -0.673568    14A     -0.650487    15A     -0.630879
      16A     -0.602768    17A     -0.586037    18A     -0.547137
      19A     -0.531454    20A     -0.503126    21A     -0.488187
      22A     -0.484194    23A     -0.478440    24A     -0.409293

  @DF-RHF Final Energy:  -270.01961906197039

   => Energetics <=

    Nuclear Repulsion Energy =            228.3359696186700489
    One-Electron Energy =                -817.8609510292042160
    Two-Electron Energy =                 319.5053623485635512
    DFT Exchange-Correlation Energy =       0.0000000000000000
    Empirical Dispersion Energy =           0.0000000000000000
    PCM Polarization Energy =               0.0000000000000000
    EFP Energy =                            0.0000000000000000
    Total Energy =                       -270.0196190619705590
    Molecular point group: c1
  Basis Set: 6-31G*
  Basis Set:

  -Total Gradient:
     Atom            X                  Y                   Z
    ------   -----------------  -----------------  -----------------
       1        0.000045027826    -0.000000356678     0.000006760764
       2       -0.000350093802    -0.000798606169    -0.001167061174
       3        0.000487960923     0.000946256811     0.001019172840
       4        0.000240653255     0.000433994241     0.000734361000
       5       -0.000012225465     0.000062114955    -0.000128854528
       6       -0.000385699984    -0.000637852718    -0.000464196399
       7        0.000030747324     0.000018086619     0.000002215698
       8       -0.000019486857    -0.000041316856     0.000016637815
       9       -0.000035153556    -0.000053498263    -0.000008717610
      10        0.000037389789     0.000065375609    -0.000011481966
      11       -0.000029988846     0.000019205955    -0.000017353899
      12        0.000002197004    -0.000003665706     0.000011834800
      13        0.000002305758    -0.000003963485     0.000004897182
      14        0.000003537882    -0.000003470253     0.000006051449
      15       -0.000015894585    -0.000009658893    -0.000005669990
      16       -0.000001276680     0.000007354830     0.000001404019

  **** Optimization is complete! (in 7 steps) ****
    Final optimized geometry and variables:
    Molecular point group: c1

    Geometry (in Angstrom), charge = 0, multiplicity = 1:

    H            1.871084582433    -1.149473175627     0.915488156677
    C            1.942168511652    -0.262526863096     0.274607924215
    C            0.670102313136     0.535557473477     0.123974739596
    O            2.978915340696     0.027762015278    -0.228126359038
    C           -0.582250798420    -0.342965336427     0.051188202537
    H            0.768028766920     1.160029807190    -0.756805630181
    H            0.604047986787     1.197609739721     0.987021035703
    C           -1.871722963124     0.471639811554    -0.061863933153
    H           -0.504980749892    -1.014528554497    -0.801661228843
    H           -0.633692418905    -0.975326649484     0.935587267064
    C           -3.121822143386    -0.403501548258    -0.138702113103
    H           -1.819156226101     1.106151130116    -0.943308820792
    H           -1.949302783823     1.140517323429     0.792445484736
    H           -3.087722126330    -1.061056067050    -1.002502910362
    H           -4.018754104807     0.202085018245    -0.219465979536
    H           -3.220915699648    -1.025221726706     0.746494390712

  Mulliken Charges: (a.u.)
   Center  Symbol    Alpha    Beta     Spin     Total
       1     H     0.43123  0.43123  0.00000  0.13754
       2     C     2.82980  2.82980  0.00000  0.34040
       3     C     3.20918  3.20918  0.00000 -0.41836
       4     O     4.23894  4.23894  0.00000 -0.47788
       5     C     3.16405  3.16405  0.00000 -0.32809
       6     H     0.39870  0.39870  0.00000  0.20261
       7     H     0.40501  0.40501  0.00000  0.18998
       8     C     3.15170  3.15170  0.00000 -0.30340
       9     H     0.41542  0.41542  0.00000  0.16915
      10     H     0.41972  0.41972  0.00000  0.16057
      11     C     3.24031  3.24031  0.00000 -0.48063
      12     H     0.41871  0.41871  0.00000  0.16257
      13     H     0.42070  0.42070  0.00000  0.15860
      14     H     0.41965  0.41965  0.00000  0.16070
      15     H     0.41636  0.41636  0.00000  0.16729
      16     H     0.42052  0.42052  0.00000  0.15896

   Total alpha = 24.00000, Total beta = 24.00000, Total charge = -0.00000
