  ==> Input File <==

--------------------------------------------------------------------------
set {
	reference rhf
	basis 6-31G*
}

set_num_threads( 4 )
memory 2 gb

molecule MOL {
0 1

H	 -2.510566	 -0.777634	 1.933428
C	 -2.494094	 -1.443243	 1.072711
O	 -1.265780	 -1.401977	 0.420882
H	 -2.649274	 -2.458098	 1.412019
H	 -3.310550	 -1.166527	 0.406936
C	 -0.928928	 -0.147809	 -0.081953
C	 0.463145	 -0.201470	 -0.666296
H	 -1.633140	 0.149148	 -0.860154
H	 -0.959465	 0.604971	 0.703156
O	 1.392611	 -0.295398	 0.366430
H	 0.538897	 -1.057102	 -1.334249
H	 0.640366	 0.700385	 -1.253616
C	 2.706965	 -0.449871	 -0.062409
H	 2.756559	 -0.644779	 -1.131878
H	 3.305899	 0.433456	 0.155466
H	 3.125548	 -1.294566	 0.467107

	symmetry c1
}
set optking {
	frozen_dihedral = ("
		7 10 13 14
	")
}

ee = optimize('scf')
oeprop('DIPOLE', 'QUADRUPOLE', 'MULLIKEN_CHARGES')
f=open( 'psi4out.xyz', 'w' )
f.write( "16  " )
f.write( str(ee) + "\n" )
f.write( MOL.save_string_xyz() )
f.close()
--------------------------------------------------------------------------

    Molecular point group: c1
  Charge       = 0
  Multiplicity = 1
  Basis Set: 6-31G*
  Basis Set:
  @DF-RHF Final Energy:  -306.97355734552968
    Total Energy =                       -306.9735573455299686
    Molecular point group: c1
  Basis Set: 6-31G*
  Basis Set:
  Basis Set: 6-31G*
  Basis Set:
  @DF-RHF Final Energy:  -306.97388354530386
    Total Energy =                       -306.9738835453035790
  Basis Set: 6-31G*
  Basis Set:
  Basis Set: 6-31G*
  Basis Set:
  @DF-RHF Final Energy:  -306.97401014051997
    Total Energy =                       -306.9740101405201358
  Basis Set: 6-31G*
  Basis Set:
  Basis Set: 6-31G*
  Basis Set:
  @DF-RHF Final Energy:  -306.97401148167586
    Total Energy =                       -306.9740114816756886
  Basis Set: 6-31G*
  Basis Set:
  Charge       = 0
  Multiplicity = 1
  Basis Set: 6-31G*
  Basis Set:

    Orbital Energies (a.u.)
    -----------------------

    Doubly Occupied:

       1A    -20.553126     2A    -20.549696     3A    -11.269299
       4A    -11.268023     5A    -11.263233     6A    -11.262965
       7A     -1.385901     8A     -1.367401     9A     -1.030464
      10A     -0.936175    11A     -0.891874    12A     -0.823541
      13A     -0.682441    14A     -0.678695    15A     -0.656087
      16A     -0.634087    17A     -0.627566    18A     -0.596362
      19A     -0.553929    20A     -0.537012    21A     -0.508319
      22A     -0.476726    23A     -0.461468    24A     -0.417406
      25A     -0.406852

  @DF-RHF Final Energy:  -306.97401168702316

   => Energetics <=

    Nuclear Repulsion Energy =            258.5669508602641713
    One-Electron Energy =                -931.4046250211532652
    Two-Electron Energy =                 365.8636624738660430
    DFT Exchange-Correlation Energy =       0.0000000000000000
    Empirical Dispersion Energy =           0.0000000000000000
    PCM Polarization Energy =               0.0000000000000000
    EFP Energy =                            0.0000000000000000
    Total Energy =                       -306.9740116870229940
    Molecular point group: c1
  Basis Set: 6-31G*
  Basis Set:

  -Total Gradient:
     Atom            X                  Y                   Z
    ------   -----------------  -----------------  -----------------
       1        0.000000858937     0.000000766516    -0.000000104013
       2        0.000000143333     0.000001323137    -0.000004423214
       3        0.000005413542     0.000002573888    -0.000012158201
       4        0.000000428481     0.000000276964     0.000000287155
       5       -0.000000339161     0.000000151766     0.000000865359
       6       -0.000006659705     0.000006336237     0.000013942757
       7       -0.000160577212    -0.001218395973     0.000009112170
       8       -0.000005733835    -0.000002722033    -0.000002013214
       9        0.000003830510     0.000005255979    -0.000004136908
      10        0.000266410003     0.002176993633    -0.000081769457
      11        0.000007225647    -0.000002698320    -0.000005032111
      12       -0.000004033246    -0.000004471492     0.000008124399
      13       -0.000219144251    -0.002440720027     0.000363283857
      14        0.000114250208     0.001479128323    -0.000282003737
      15       -0.000007427226    -0.000004312425     0.000000889144
      16        0.000005353972     0.000000513828    -0.000004863988

  **** Optimization is complete! (in 5 steps) ****
    Final optimized geometry and variables:
    Molecular point group: c1

    Geometry (in Angstrom), charge = 0, multiplicity = 1:

    H           -2.475408254967    -0.122691269166     1.767035135629
    C           -2.466470314527    -0.784430101154     0.903220370551
    O           -1.244977454948    -0.738112755898     0.239071561528
    H           -2.616728896692    -1.801030432826     1.239538829055
    H           -3.289857948428    -0.505913328368     0.246858675075
    C           -0.915524433497     0.518896525541    -0.261724361008
    C            0.471374830922     0.471578542739    -0.858887490610
    H           -1.627232411441     0.817002498022    -1.032758805174
    H           -0.941529180707     1.268476769027     0.526458637472
    O            1.406720722109     0.368929930671     0.168813843268
    H            0.540286252006    -0.378962272577    -1.532618233231
    H            0.638000536581     1.378392791369    -1.441134478836
    C            2.735275936742     0.193756805771    -0.225503429812
    H            2.820484586469    -0.010203550956    -1.288759088879
    H            3.310420166102     1.089542082910    -0.009501227670
    H            3.162372861894    -0.635785159025     0.324917016011

  Mulliken Charges: (a.u.)
   Center  Symbol    Alpha    Beta     Spin     Total
       1     H     0.42808  0.42808  0.00000  0.14383
       2     C     3.07941  3.07941  0.00000 -0.15883
       3     O     4.30086  4.30086  0.00000 -0.60172
       4     H     0.41142  0.41142  0.00000  0.17715
       5     H     0.43198  0.43198  0.00000  0.13603
       6     C     2.99357  2.99357  0.00000  0.01286
       7     C     2.99295  2.99295  0.00000  0.01410
       8     H     0.43249  0.43249  0.00000  0.13501
       9     H     0.42276  0.42276  0.00000  0.15447
      10     O     4.30576  4.30576  0.00000 -0.61153
      11     H     0.42218  0.42218  0.00000  0.15564
      12     H     0.43256  0.43256  0.00000  0.13489
      13     C     3.07574  3.07574  0.00000 -0.15147
      14     H     0.43025  0.43025  0.00000  0.13949
      15     H     0.42388  0.42388  0.00000  0.15223
      16     H     0.41608  0.41608  0.00000  0.16783

   Total alpha = 25.00000, Total beta = 25.00000, Total charge = -0.00000
