  ==> Input File <==

--------------------------------------------------------------------------
set {
	reference rhf
	basis cc-pvtz
}

set_num_threads( 4 )
memory 2 gb

molecule MOL {
0 1

H	 -2.816458	 -0.841657	 -0.064679
N	 -1.878861	 -0.711874	 0.250184
C	 -1.341419	 0.551458	 -0.220231
H	 -1.333674	 -1.468530	 -0.105118
C	 0.082190	 0.731516	 0.254705
H	 -1.357065	 0.652078	 -1.304747
H	 -1.939897	 1.357530	 0.189797
O	 0.336825	 -0.188457	 1.272800
H	 0.771056	 0.572720	 -0.573799
H	 0.219250	 1.745886	 0.622396
C	 1.597648	 -0.079882	 1.845301
H	 1.681289	 -0.837289	 2.611280
H	 2.383418	 -0.238936	 1.109800
H	 1.745220	 0.896704	 2.300345

	symmetry c1
}
set optking {
	frozen_dihedral = ("
		8 5 3 6
	")
}

ee = optimize('scf')
oeprop('DIPOLE', 'QUADRUPOLE', 'MULLIKEN_CHARGES')
f=open( 'psi4out.xyz', 'w' )
f.write( "14  " )
f.write( str(ee) + "\n" )
f.write( MOL.save_string_xyz() )
f.close()
--------------------------------------------------------------------------

    Molecular point group: c1
  Charge       = 0
  Multiplicity = 1
  Basis Set: CC-PVTZ
  Basis Set:
  @DF-RHF Final Energy:  -248.21047947592362
    Total Energy =                       -248.2104794759235347
    Molecular point group: c1
  Basis Set: CC-PVTZ
  Basis Set:
  Basis Set: CC-PVTZ
  Basis Set:
  @DF-RHF Final Energy:  -248.21168656573460
    Total Energy =                       -248.2116865657346239
  Basis Set: CC-PVTZ
  Basis Set:
  Basis Set: CC-PVTZ
  Basis Set:
  @DF-RHF Final Energy:  -248.21324304338663
    Total Energy =                       -248.2132430433864556
  Basis Set: CC-PVTZ
  Basis Set:
  Basis Set: CC-PVTZ
  Basis Set:
  @DF-RHF Final Energy:  -248.21345953686048
    Total Energy =                       -248.2134595368605119
  Basis Set: CC-PVTZ
  Basis Set:
  @DF-RHF Final Energy:  -248.21357817034033
    Total Energy =                       -248.2135781703402699
  Basis Set: CC-PVTZ
  Basis Set:
  @DF-RHF Final Energy:  -248.21362614350389
    Total Energy =                       -248.2136261435039160
  Basis Set: CC-PVTZ
  Basis Set:
  Basis Set: CC-PVTZ
  Basis Set:
  @DF-RHF Final Energy:  -248.21364369055885
    Total Energy =                       -248.2136436905589107
  Basis Set: CC-PVTZ
  Basis Set:
  Basis Set: CC-PVTZ
  Basis Set:
  @DF-RHF Final Energy:  -248.21365273952910
    Total Energy =                       -248.2136527395291523
  Basis Set: CC-PVTZ
  Basis Set:
  Charge       = 0
  Multiplicity = 1
  Basis Set: CC-PVTZ
  Basis Set:

    Orbital Energies (a.u.)
    -----------------------

    Doubly Occupied:

       1A    -20.552642     2A    -15.516680     3A    -11.270408
       4A    -11.265564     5A    -11.241278     6A     -1.387955
       7A     -1.168488     8A     -0.997196     9A     -0.911742
      10A     -0.816794    11A     -0.684973    12A     -0.677667
      13A     -0.651732    14A     -0.603482    15A     -0.599565
      16A     -0.566681    17A     -0.519404    18A     -0.496886
      19A     -0.475139    20A     -0.423126    21A     -0.370508

  @DF-RHF Final Energy:  -248.21366518931191

   => Energetics <=

    Nuclear Repulsion Energy =            194.9304287282833172
    One-Electron Energy =                -723.8923749535340448
    Two-Electron Energy =                 280.7482810359390442
    DFT Exchange-Correlation Energy =       0.0000000000000000
    Empirical Dispersion Energy =           0.0000000000000000
    PCM Polarization Energy =               0.0000000000000000
    EFP Energy =                            0.0000000000000000
    Total Energy =                       -248.2136651893116550
    Molecular point group: c1
  Basis Set: CC-PVTZ
  Basis Set:

  -Total Gradient:
     Atom            X                  Y                   Z
    ------   -----------------  -----------------  -----------------
       1       -0.000060593563     0.000037347177     0.000018935150
       2        0.000152294214    -0.000082090162     0.000154288575
       3       -0.000333486925     0.004343165660    -0.000333335055
       4       -0.000000545176     0.000009345819    -0.000048050170
       5       -0.001304227431     0.002280344219     0.002916392420
       6        0.000619642267    -0.004154172022    -0.000452881593
       7       -0.000015730771     0.000007531258    -0.000026183803
       8        0.000984342276    -0.002409257376    -0.002235198479
       9       -0.000031414298    -0.000009660081     0.000010178913
      10       -0.000014164242    -0.000030055638     0.000006191004
      11        0.000015187082     0.000012401336    -0.000007307204
      12       -0.000002807929    -0.000001358331     0.000001678214
      13       -0.000000603786    -0.000001390998    -0.000003324454
      14       -0.000007891718    -0.000002150863    -0.000001383516

  **** Optimization is complete! (in 9 steps) ****
    Final optimized geometry and variables:
    Molecular point group: c1

    Geometry (in Angstrom), charge = 0, multiplicity = 1:

    H           -2.393276794731    -1.038073673607    -1.185273297091
    N           -1.742377928571    -0.730986403716    -0.496887516005
    C           -1.133062467678     0.534818345317    -0.879072235198
    H           -1.059828665716    -1.442260208686    -0.360352493456
    C            0.317455942403     0.673872399522    -0.386317193082
    H           -1.110673287682     0.644273676203    -1.960627859105
    H           -1.732942470425     1.343645849129    -0.479852503806
    O            0.597103595700    -0.234418190956     0.630983233236
    H            1.002056703373     0.493116257785    -1.214174071973
    H            0.491785089219     1.691107486049    -0.044039026783
    C            1.891927757550    -0.150791268000     1.125442094375
    H            2.001254685941    -0.901678306106     1.894256742263
    H            2.628780530630    -0.335759390660     0.346278071967
    H            2.090013556295     0.826368412782     1.559880754140

  Mulliken Charges: (a.u.)
   Center  Symbol    Alpha    Beta     Spin     Total
       1     H     0.43178  0.43178  0.00000  0.13643
       2     N     3.68646  3.68646  0.00000 -0.37292
       3     C     3.02632  3.02632  0.00000 -0.05264
       4     H     0.42389  0.42389  0.00000  0.15222
       5     C     2.96647  2.96647  0.00000  0.06706
       6     H     0.46828  0.46828  0.00000  0.06343
       7     H     0.46238  0.46238  0.00000  0.07523
       8     O     4.17196  4.17196  0.00000 -0.34392
       9     H     0.47514  0.47514  0.00000  0.04973
      10     H     0.46828  0.46828  0.00000  0.06344
      11     C     3.03095  3.03095  0.00000 -0.06190
      12     H     0.44580  0.44580  0.00000  0.10839
      13     H     0.47257  0.47257  0.00000  0.05487
      14     H     0.46971  0.46971  0.00000  0.06058

   Total alpha = 21.00000, Total beta = 21.00000, Total charge = -0.00000
