  ==> Input File <==

--------------------------------------------------------------------------
set {
	reference rhf
	basis 6-31G*
}

set_num_threads( 4 )
memory 2 gb

molecule MOL {
0 1

H	 2.645699	 -0.788361	 0.803141
N	 2.434251	 -0.367735	 -0.081097
C	 1.267428	 0.496480	 0.024474
H	 2.259239	 -1.117059	 -0.723591
C	 -0.016086	 -0.325158	 -0.029487
H	 1.288818	 1.183521	 -0.816092
H	 1.267576	 1.109062	 0.929528
C	 -1.282277	 0.529072	 0.046735
H	 -0.012495	 -0.908639	 -0.945788
H	 -0.015903	 -1.041248	 0.791956
C	 -2.563920	 -0.301775	 -0.006060
H	 -1.284084	 1.244622	 -0.773004
H	 -1.271387	 1.115393	 0.963286
H	 -2.621848	 -0.873522	 -0.927727
H	 -3.445135	 0.329952	 0.047812
H	 -2.609542	 -1.004582	 0.821105

	symmetry c1
}
set optking {
	frozen_dihedral = ("
		1 2 3 6
	")
}

ee = optimize('scf')
oeprop('DIPOLE', 'QUADRUPOLE', 'MULLIKEN_CHARGES')
f=open( 'psi4out.xyz', 'w' )
f.write( "16  " )
f.write( str(ee) + "\n" )
f.write( MOL.save_string_xyz() )
f.close()
--------------------------------------------------------------------------

    Molecular point group: c1
  Charge       = 0
  Multiplicity = 1
  Basis Set: 6-31G*
  Basis Set:
  @DF-RHF Final Energy:  -212.31374932446488
    Total Energy =                       -212.3137493244648226
    Molecular point group: c1
  Basis Set: 6-31G*
  Basis Set:
  Basis Set: 6-31G*
  Basis Set:
  @DF-RHF Final Energy:  -212.31597571425323
    Total Energy =                       -212.3159757142532840
  Basis Set: 6-31G*
  Basis Set:
  Basis Set: 6-31G*
  Basis Set:
  @DF-RHF Final Energy:  -212.31624071485902
    Total Energy =                       -212.3162407148590205
  Basis Set: 6-31G*
  Basis Set:
  Basis Set: 6-31G*
  Basis Set:
  @DF-RHF Final Energy:  -212.31624680844047
    Total Energy =                       -212.3162468084404964
  Basis Set: 6-31G*
  Basis Set:
  Basis Set: 6-31G*
  Basis Set:
  @DF-RHF Final Energy:  -212.31625098730652
    Total Energy =                       -212.3162509873063186
  Basis Set: 6-31G*
  Basis Set:
  Charge       = 0
  Multiplicity = 1
  Basis Set: 6-31G*
  Basis Set:

    Orbital Energies (a.u.)
    -----------------------

    Doubly Occupied:

       1A    -15.531416     2A    -11.239631     3A    -11.218138
       4A    -11.214023     5A    -11.210908     6A     -1.175931
       7A     -1.062070     8A     -0.959576     9A     -0.848067
      10A     -0.797272    11A     -0.677478    12A     -0.627164
      13A     -0.597154    14A     -0.587810    15A     -0.555149
      16A     -0.526612    17A     -0.501005    18A     -0.487348
      19A     -0.472079    20A     -0.465937    21A     -0.373906

  @DF-RHF Final Energy:  -212.31625190111794

   => Energetics <=

    Nuclear Repulsion Energy =            186.0093350391873059
    One-Electron Energy =                -654.3938244343960378
    Two-Electron Energy =                 256.0682374940907948
    DFT Exchange-Correlation Energy =       0.0000000000000000
    Empirical Dispersion Energy =           0.0000000000000000
    PCM Polarization Energy =               0.0000000000000000
    EFP Energy =                            0.0000000000000000
    Total Energy =                       -212.3162519011179370
    Molecular point group: c1
  Basis Set: 6-31G*
  Basis Set:

  -Total Gradient:
     Atom            X                  Y                   Z
    ------   -----------------  -----------------  -----------------
       1        0.001376514364     0.002102209444     0.000740129729
       2       -0.001445046710    -0.002269134728    -0.000624503663
       3       -0.001023780932    -0.001431815044    -0.001551115446
       4       -0.000009769183     0.000011644173     0.000013893213
       5        0.000047181164     0.000008515234     0.000016947493
       6        0.001089148667     0.001569194806     0.001414105684
       7       -0.000003794545     0.000012219675     0.000006990679
       8       -0.000012979857     0.000000177929    -0.000027924515
       9       -0.000010021385     0.000011312710     0.000016362986
      10       -0.000001920832    -0.000007718265    -0.000001820125
      11       -0.000014489065     0.000003577318     0.000005705199
      12        0.000002745803     0.000001099843    -0.000004200119
      13        0.000006294019    -0.000008729573    -0.000004115409
      14       -0.000002853448     0.000004513549    -0.000005640111
      15       -0.000000460975    -0.000003454302     0.000005711114
      16        0.000003232907    -0.000003612768    -0.000000526710

  **** Optimization is complete! (in 6 steps) ****
    Final optimized geometry and variables:
    Molecular point group: c1

    Geometry (in Angstrom), charge = 0, multiplicity = 1:

    H            2.692380821102    -0.751439703490     0.825897242317
    N            2.498440471471    -0.310634347060    -0.051345241514
    C            1.273002658949     0.470249646867     0.012361074119
    H            2.443677441177    -1.026294885247    -0.749772832639
    C           -0.027505619413    -0.334633564860    -0.022079463224
    H            1.286217202955     1.192258555122    -0.799522057724
    H            1.311019276110     1.057658583887     0.925363383452
    C           -1.280597132240     0.539986254480     0.046784037653
    H           -0.053119476740    -0.930359718352    -0.934211352338
    H           -0.030219321765    -1.042526938443     0.805823547625
    C           -2.577522534639    -0.267369130869     0.003450687157
    H           -1.270105003488     1.249427724130    -0.777924460943
    H           -1.256020965886     1.132988100751     0.958697320552
    H           -2.649836248288    -0.843606437475    -0.914604272351
    H           -3.446521261312     0.381100762162     0.056038879602
    H           -2.633629460157    -0.963906461915     0.835202304518

  Mulliken Charges: (a.u.)
   Center  Symbol    Alpha    Beta     Spin     Total
       1     H     0.33369  0.33369  0.00000  0.33263
       2     N     3.92186  3.92186  0.00000 -0.84371
       3     C     3.05871  3.05871  0.00000 -0.11743
       4     H     0.33428  0.33428  0.00000  0.33145
       5     C     3.15770  3.15770  0.00000 -0.31540
       6     H     0.41890  0.41890  0.00000  0.16219
       7     H     0.42126  0.42126  0.00000  0.15748
       8     C     3.15567  3.15567  0.00000 -0.31134
       9     H     0.42697  0.42697  0.00000  0.14606
      10     H     0.42655  0.42655  0.00000  0.14690
      11     C     3.23866  3.23866  0.00000 -0.47731
      12     H     0.42151  0.42151  0.00000  0.15698
      13     H     0.42235  0.42235  0.00000  0.15530
      14     H     0.42149  0.42149  0.00000  0.15702
      15     H     0.41872  0.41872  0.00000  0.16255
      16     H     0.42168  0.42168  0.00000  0.15664

   Total alpha = 21.00000, Total beta = 21.00000, Total charge =  0.00000
