  ==> Input File <==

--------------------------------------------------------------------------
set {
	reference rhf
	basis 6-31G*
}

set_num_threads( 4 )
memory 2 gb

molecule MOL {
0 1

O	 -0.359939	 -2.040609	 1.064873
C	 -1.363949	 -1.645580	 0.564342
C	 -2.641161	 -2.443107	 0.501514
O	 -1.481751	 -0.454642	 0.000584
H	 -2.943969	 -2.695144	 1.510795
H	 -3.431782	 -1.899379	 0.005816
H	 -2.446651	 -3.370669	 -0.023532
C	 -0.334255	 0.388708	 0.000906
C	 0.891947	 -0.504646	 0.000751
H	 -0.365390	 1.025305	 -0.873475
H	 -0.365484	 1.024911	 0.875569
C	 2.191998	 0.301789	 0.000897
H	 0.855148	 -1.151283	 -0.871571
H	 0.855132	 -1.151660	 0.872805
C	 3.441114	 -0.581407	 0.000108
H	 2.215074	 0.954890	 -0.869742
H	 2.215465	 0.953923	 0.872248
C	 4.739576	 0.224112	 -0.001102
H	 3.419457	 -1.233487	 -0.870178
H	 3.420834	 -1.233096	 0.870717
H	 4.804918	 0.861552	 -0.878265
H	 5.606527	 -0.429058	 -0.001824
H	 4.806469	 0.861674	 0.875853

	symmetry c1
}
set optking {
	frozen_dihedral = ("
		2 4 8 10
	")
}

ee = optimize('scf')
oeprop('DIPOLE', 'QUADRUPOLE', 'MULLIKEN_CHARGES')
f=open( 'psi4out.xyz', 'w' )
f.write( "23  " )
f.write( str(ee) + "\n" )
f.write( MOL.save_string_xyz() )
f.close()
--------------------------------------------------------------------------

    Molecular point group: c1
  Charge       = 0
  Multiplicity = 1
  Basis Set: 6-31G*
  Basis Set:
  @DF-RHF Final Energy:  -422.91658624493874
    Total Energy =                       -422.9165862449390261
    Molecular point group: c1
  Basis Set: 6-31G*
  Basis Set:
  Basis Set: 6-31G*
  Basis Set:
  @DF-RHF Final Energy:  -422.95738116346308
    Total Energy =                       -422.9573811634631966
  Basis Set: 6-31G*
  Basis Set:
  Basis Set: 6-31G*
  Basis Set:
  @DF-RHF Final Energy:  -422.96567793627872
    Total Energy =                       -422.9656779362784391
  Basis Set: 6-31G*
  Basis Set:
  Basis Set: 6-31G*
  Basis Set:
  @DF-RHF Final Energy:  -422.96710884504381
    Total Energy =                       -422.9671088450434127
  Basis Set: 6-31G*
  Basis Set:
  @DF-RHF Final Energy:  -422.96739451037524
    Total Energy =                       -422.9673945103755841
  @DF-RHF Final Energy:  -422.96971277181854
    Total Energy =                       -422.9697127718180809
  @DF-RHF Final Energy:  -422.96983571313280
    Total Energy =                       -422.9698357131330795
  @DF-RHF Final Energy:  -422.96985719502948
    Total Energy =                       -422.9698571950293626
  @DF-RHF Final Energy:  -422.96986161925940
    Total Energy =                       -422.9698616192602003
  @DF-RHF Final Energy:  -422.96986431969270
    Total Energy =                       -422.9698643196935564
  @DF-RHF Final Energy:  -422.96987842444651
    Total Energy =                       -422.9698784244460512
  @DF-RHF Final Energy:  -422.96827747724649
    Total Energy =                       -422.9682774772466018
  @DF-RHF Final Energy:  -422.96989118219545
    Total Energy =                       -422.9698911821952834
  @DF-RHF Final Energy:  -422.96994821436635
    Total Energy =                       -422.9699482143663545
  @DF-RHF Final Energy:  -422.96991005887281
    Total Energy =                       -422.9699100588733245
  @DF-RHF Final Energy:  -422.96998568291411
    Total Energy =                       -422.9699856829142846
  @DF-RHF Final Energy:  -422.97001966481469
    Total Energy =                       -422.9700196648145720
  @DF-RHF Final Energy:  -422.97005684480649
    Total Energy =                       -422.9700568448068907
  @DF-RHF Final Energy:  -422.97008996730301
    Total Energy =                       -422.9700899673026697
  @DF-RHF Final Energy:  -422.97018838653042
    Total Energy =                       -422.9701883865300260
  @DF-RHF Final Energy:  -422.96680624130926
    Total Energy =                       -422.9668062413087455
  @DF-RHF Final Energy:  -422.97073753181911
    Total Energy =                       -422.9707375318196227
  @DF-RHF Final Energy:  -422.97079725826268
    Total Energy =                       -422.9707972582627917
  @DF-RHF Final Energy:  -422.97079911146113
    Total Energy =                       -422.9707991114607921
  @DF-RHF Final Energy:  -422.96426196427115
    Total Energy =                       -422.9642619642718273
  @DF-RHF Final Energy:  -422.97029808938271
    Total Energy =                       -422.9702980893827089
  @DF-RHF Final Energy:  -422.97079399791198
    Total Energy =                       -422.9707939979113007
  @DF-RHF Final Energy:  -422.97079889882571
    Total Energy =                       -422.9707988988261604
  @DF-RHF Final Energy:  -422.97079911007756
    Total Energy =                       -422.9707991100776781
  @DF-RHF Final Energy:  -422.97079902321781
    Total Energy =                       -422.9707990232182055
  @DF-RHF Final Energy:  -422.97079897226359
    Total Energy =                       -422.9707989722628554
  @DF-RHF Final Energy:  -422.97079894659510
    Total Energy =                       -422.9707989465950959
  @DF-RHF Final Energy:  -422.96958459926594
    Total Energy =                       -422.9695845992662271
  @DF-RHF Final Energy:  -422.96681653234464
    Total Energy =                       -422.9668165323448648
  @DF-RHF Final Energy:  -422.96474263739901
    Total Energy =                       -422.9647426373985581
  @DF-RHF Final Energy:  -422.96506731004973
    Total Energy =                       -422.9650673100500171
  Basis Set: 6-31G*
  Basis Set:
  @DF-RHF Final Energy:  -422.96497151647304
    Total Energy =                       -422.9649715164732697
  Basis Set: 6-31G*
  Basis Set:
  Basis Set: 6-31G*
  Basis Set:
  @DF-RHF Final Energy:  -422.96670669226836
    Total Energy =                       -422.9667066922686445
  Basis Set: 6-31G*
  Basis Set:
  Basis Set: 6-31G*
  Basis Set:
  @DF-RHF Final Energy:  -422.97001558446283
    Total Energy =                       -422.9700155844634537
  Basis Set: 6-31G*
  Basis Set:
  Charge       = 0
  Multiplicity = 1
  Basis Set: 6-31G*
  Basis Set:

    Orbital Energies (a.u.)
    -----------------------

    Doubly Occupied:

       1A    -20.597721     2A    -20.540642     3A    -11.374200
       4A    -11.287136     5A    -11.230229     6A    -11.221064
       7A    -11.218469     8A    -11.217087     9A    -11.210768
      10A     -1.461806    11A     -1.362283    12A     -1.091570
      13A     -1.040388    14A     -1.000791    15A     -0.932143
      16A     -0.856557    17A     -0.798880    18A     -0.749404
      19A     -0.695224    20A     -0.675680    21A     -0.667597
      22A     -0.645060    23A     -0.608019    24A     -0.588847
      25A     -0.580040    26A     -0.565685    27A     -0.555029
      28A     -0.536768    29A     -0.522975    30A     -0.512101
      31A     -0.493620    32A     -0.476315    33A     -0.469477
      34A     -0.460025    35A     -0.440733    36A     -0.427639

  @DF-RHF Final Energy:  -422.97071847546198

   => Energetics <=

    Nuclear Repulsion Energy =            458.5177189710936432
    One-Electron Energy =               -1484.7529376180120835
    Two-Electron Energy =                 603.2645001714563477
    DFT Exchange-Correlation Energy =       0.0000000000000000
    Empirical Dispersion Energy =           0.0000000000000000
    PCM Polarization Energy =               0.0000000000000000
    EFP Energy =                            0.0000000000000000
    Total Energy =                       -422.9707184754620357
    Molecular point group: c1
  Basis Set: 6-31G*
  Basis Set:

  -Total Gradient:
     Atom            X                  Y                   Z
    ------   -----------------  -----------------  -----------------
       1       -0.003802602644     0.002699820425    -0.004022469506
       2        0.005118203757    -0.004544772796    -0.002226775400
       3        0.001053563407    -0.000003851051     0.000943634748
       4       -0.001329538654     0.003227720995     0.006658064091
       5       -0.000458715381     0.000040540425     0.000023541904
       6       -0.000027254809    -0.000408118646     0.000009311469
       7       -0.000251054509    -0.000155543203    -0.000327436881
       8       -0.000614926009     0.003860440479     0.000953609061
       9        0.002095692261    -0.000077869565     0.002683791897
      10        0.001231288318    -0.004491341636    -0.002818254166
      11        0.000084370221     0.000454945934     0.000321133217
      12       -0.000441218809     0.001999120547    -0.000342961506
      13       -0.000236591178    -0.000924782432    -0.000623004053
      14       -0.001271690189     0.000641395901    -0.001613965617
      15       -0.000260164652    -0.000559312266     0.000522494395
      16       -0.000548498139    -0.000528794003     0.000161884065
      17        0.000010663757    -0.000897632797    -0.000049583600
      18       -0.000023122513    -0.000607630651    -0.001124245819
      19        0.000176507065    -0.000539118084    -0.000380775391
      20        0.000252120809     0.000076553618     0.000002347706
      21       -0.000243496893    -0.000317869620     0.000300494228
      22       -0.000626280821     0.000207981845     0.000043329445
      23        0.000112745605     0.000848116582     0.000905835712

    Molecular point group: c1

    Geometry (in Angstrom), charge = 0, multiplicity = 1:

    O           -1.409255335035    -1.425126395173     1.203153311863
    C           -2.142784831180    -0.942035318278     0.401970566462
    C           -3.449232058018    -1.550625175104    -0.039809400105
    O           -1.947818612517     0.221479095427    -0.202231475895
    H           -3.639661565884    -2.449772716430     0.525119503452
    H           -4.253268600965    -0.835930127800     0.094372802264
    H           -3.396822718235    -1.788079742822    -1.097939985426
    C           -0.725305592187     0.970147997309    -0.153139974012
    C            0.574084918317     0.169283980563    -0.061658866699
    H           -0.726610625551     1.486603105240    -1.103333103960
    H           -0.808392145068     1.687053110689     0.652684971361
    C            1.778728156745     1.073052320020    -0.341432157881
    H            0.548483860309    -0.637310382033    -0.786064066553
    H            0.681354830896    -0.285156666664     0.913412698859
    C            3.107181059216     0.318630186698    -0.271682634107
    H            1.679614957578     1.535337291480    -1.322489648908
    H            1.793982927172     1.894180518988     0.377151719546
    C            4.318723971676     1.207157989577    -0.543503771049
    H            3.090694217343    -0.496929950431    -0.992174611515
    H            3.202579671928    -0.144798746992     0.707348085142
    H            4.264911184154     1.661284931083    -1.529313947395
    H            5.239053698132     0.635414056489    -0.491156159818
    H            4.389035316158     2.009572969914     0.184066971623

  Mulliken Charges: (a.u.)
   Center  Symbol    Alpha    Beta     Spin     Total
       1     O     4.28177  4.28177  0.00000 -0.56354
       2     C     2.61829  2.61829  0.00000  0.76341
       3     C     3.28134  3.28134  0.00000 -0.56269
       4     O     4.32049  4.32049  0.00000 -0.64097
       5     H     0.39809  0.39809  0.00000  0.20383
       6     H     0.40075  0.40075  0.00000  0.19850
       7     H     0.40244  0.40244  0.00000  0.19513
       8     C     2.98260  2.98260  0.00000  0.03481
       9     C     3.17835  3.17835  0.00000 -0.35669
      10     H     0.41226  0.41226  0.00000  0.17548
      11     H     0.41370  0.41370  0.00000  0.17259
      12     C     3.16068  3.16068  0.00000 -0.32136
      13     H     0.41821  0.41821  0.00000  0.16358
      14     H     0.39248  0.39248  0.00000  0.21505
      15     C     3.15095  3.15095  0.00000 -0.30190
      16     H     0.42379  0.42379  0.00000  0.15242
      17     H     0.42214  0.42214  0.00000  0.15571
      18     C     3.23975  3.23975  0.00000 -0.47951
      19     H     0.42134  0.42134  0.00000  0.15732
      20     H     0.41912  0.41912  0.00000  0.16176
      21     H     0.42185  0.42185  0.00000  0.15630
      22     H     0.41794  0.41794  0.00000  0.16412
      23     H     0.42168  0.42168  0.00000  0.15664

   Total alpha = 36.00000, Total beta = 36.00000, Total charge =  0.00000
