  ==> Input File <==

--------------------------------------------------------------------------
set {
	reference rhf
	basis 6-31G*
}

set_num_threads( 4 )
memory 2 gb

molecule MOL {
0 1

O	 -1.276010	 1.052711	 -0.768302
C	 -1.204840	 0.067374	 -0.106123
C	 -2.388195	 -0.672128	 0.458071
O	 -0.067104	 -0.527208	 0.221609
H	 -2.388023	 -1.694060	 0.097175
H	 -3.300579	 -0.174919	 0.164318
H	 -2.315377	 -0.706351	 1.539059
C	 1.170111	 0.034140	 -0.238951
C	 1.758857	 0.775830	 0.948004
C	 0.911140	 0.935811	 -1.435851
H	 1.816736	 -0.780979	 -0.528718
H	 1.912670	 0.101579	 1.782853
H	 2.715185	 1.212238	 0.679087
H	 1.096392	 1.572388	 1.269389
H	 1.840650	 1.381938	 -1.774964
H	 0.488110	 0.371563	 -2.257220
H	 0.226492	 1.734243	 -1.167949

	symmetry c1
}
set optking {
	frozen_dihedral = ("
		11 8 4 2
	")
}

ee = optimize('scf')
oeprop('DIPOLE', 'QUADRUPOLE', 'MULLIKEN_CHARGES')
f=open( 'psi4out.xyz', 'w' )
f.write( "17  " )
f.write( str(ee) + "\n" )
f.write( MOL.save_string_xyz() )
f.close()
--------------------------------------------------------------------------

    Molecular point group: c1
  Charge       = 0
  Multiplicity = 1
  Basis Set: 6-31G*
  Basis Set:
  @DF-RHF Final Energy:  -344.87110161383345
    Total Energy =                       -344.8711016138336163
    Molecular point group: c1
  Basis Set: 6-31G*
  Basis Set:
  Basis Set: 6-31G*
  Basis Set:
  @DF-RHF Final Energy:  -344.89653859986248
    Total Energy =                       -344.8965385998625379
  Basis Set: 6-31G*
  Basis Set:
  Basis Set: 6-31G*
  Basis Set:
  @DF-RHF Final Energy:  -344.90248530173250
    Total Energy =                       -344.9024853017328951
  Basis Set: 6-31G*
  Basis Set:
  Basis Set: 6-31G*
  Basis Set:
  @DF-RHF Final Energy:  -344.90023597991558
    Total Energy =                       -344.9002359799155784
  Basis Set: 6-31G*
  Basis Set:
  @DF-RHF Final Energy:  -344.90465706914398
    Total Energy =                       -344.9046570691440365
  @DF-RHF Final Energy:  -344.90490893839905
    Total Energy =                       -344.9049089383985915
  Basis Set: 6-31G*
  Basis Set:
  @DF-RHF Final Energy:  -344.90494760817955
    Total Energy =                       -344.9049476081797252
  Basis Set: 6-31G*
  Basis Set:
  Basis Set: 6-31G*
  Basis Set:
  @DF-RHF Final Energy:  -344.90495610742050
    Total Energy =                       -344.9049561074200483
  Basis Set: 6-31G*
  Basis Set:
  Basis Set: 6-31G*
  Basis Set:
  @DF-RHF Final Energy:  -344.90495736794185
    Total Energy =                       -344.9049573679418472
  Basis Set: 6-31G*
  Basis Set:
  Charge       = 0
  Multiplicity = 1
  Basis Set: 6-31G*
  Basis Set:

    Orbital Energies (a.u.)
    -----------------------

    Doubly Occupied:

       1A    -20.595742     2A    -20.539518     3A    -11.374557
       4A    -11.296375     5A    -11.229780     6A    -11.219006
       7A    -11.213164     8A     -1.459170     9A     -1.360376
      10A     -1.078520    11A     -1.002314    12A     -0.946481
      13A     -0.866620    14A     -0.735086    15A     -0.690265
      16A     -0.671971    17A     -0.658114    18A     -0.616490
      19A     -0.583186    20A     -0.579824    21A     -0.566857
      22A     -0.550613    23A     -0.530574    24A     -0.517062
      25A     -0.504703    26A     -0.480931    27A     -0.440712
      28A     -0.427677

  @DF-RHF Final Energy:  -344.90495763737118

   => Energetics <=

    Nuclear Repulsion Energy =            324.8128098173206695
    One-Electron Energy =               -1113.9641592216735262
    Two-Electron Energy =                 444.2463917669816738
    DFT Exchange-Correlation Energy =       0.0000000000000000
    Empirical Dispersion Energy =           0.0000000000000000
    PCM Polarization Energy =               0.0000000000000000
    EFP Energy =                            0.0000000000000000
    Total Energy =                       -344.9049576373712398
    Molecular point group: c1
  Basis Set: 6-31G*
  Basis Set:

  -Total Gradient:
     Atom            X                  Y                   Z
    ------   -----------------  -----------------  -----------------
       1       -0.000017156981    -0.000033198710     0.000038068576
       2       -0.000357886636    -0.002690551310    -0.003886307141
       3        0.000007102875    -0.000021097368    -0.000045415933
       4        0.000233191670     0.004241524478     0.005360069314
       5        0.000008679885     0.000003440591     0.000016994238
       6        0.000001174000     0.000011102700    -0.000000192163
       7        0.000003153016     0.000022742078     0.000011597677
       8        0.001826898609    -0.001767986712     0.002971125245
       9       -0.000071326699     0.000004625918     0.000023933601
      10        0.000083968932     0.000065324912     0.000046536869
      11       -0.001680927222     0.000190458632    -0.004505414219
      12       -0.000010113720     0.000000577001    -0.000013600165
      13       -0.000015829253    -0.000005769277    -0.000015804900
      14        0.000003884459     0.000010976140     0.000009263542
      15       -0.000013061661     0.000004174854    -0.000002925213
      16       -0.000026238551    -0.000003641293     0.000010064178
      17        0.000024487282    -0.000032702636    -0.000017993506

  **** Optimization is complete! (in 10 steps) ****
    Final optimized geometry and variables:
    Molecular point group: c1

    Geometry (in Angstrom), charge = 0, multiplicity = 1:

    O           -1.325276801033     0.885933002620    -0.426644106424
    C           -1.124674867497    -0.170589669648     0.078747786383
    C           -2.212516335951    -1.101912765305     0.548729764423
    O            0.066860728622    -0.686985382079     0.334531700557
    H           -2.138202007735    -2.046766456584     0.022689425921
    H           -3.177310925929    -0.652010799130     0.367492464904
    H           -2.089485421820    -1.305214345810     1.606131072243
    C            1.327890012321    -0.173881737862    -0.135040897799
    C            2.001220301256     0.550901060570     1.017584964983
    C            1.279276901715     0.657505826014    -1.413351575146
    H            1.865008868422    -1.080595876395    -0.380627687688
    H            2.052562191757    -0.086945914550     1.892376474997
    H            3.010539517068     0.840506249034     0.743420503452
    H            1.446445883278     1.447003565590     1.274864790262
    H            2.299883483833     0.760522080422    -1.770982765399
    H            0.705301265539     0.159857096664    -2.185789263413
    H            0.861320288363     1.639756067833    -1.258717928844

  Mulliken Charges: (a.u.)
   Center  Symbol    Alpha    Beta     Spin     Total
       1     O     4.28396  4.28396  0.00000 -0.56792
       2     C     2.61737  2.61737  0.00000  0.76525
       3     C     3.28036  3.28036  0.00000 -0.56073
       4     O     4.32266  4.32266  0.00000 -0.64533
       5     H     0.40254  0.40254  0.00000  0.19493
       6     H     0.39835  0.39835  0.00000  0.20331
       7     H     0.40119  0.40119  0.00000  0.19762
       8     C     2.91394  2.91394  0.00000  0.17211
       9     C     3.24534  3.24534  0.00000 -0.49068
      10     C     3.25187  3.25187  0.00000 -0.50374
      11     H     0.41121  0.41121  0.00000  0.17758
      12     H     0.41148  0.41148  0.00000  0.17705
      13     H     0.41855  0.41855  0.00000  0.16290
      14     H     0.40998  0.40998  0.00000  0.18004
      15     H     0.42155  0.42155  0.00000  0.15690
      16     H     0.41275  0.41275  0.00000  0.17451
      17     H     0.39689  0.39689  0.00000  0.20622

   Total alpha = 28.00000, Total beta = 28.00000, Total charge =  0.00000
