  ==> Input File <==

--------------------------------------------------------------------------
set {
	reference rhf
	basis cc-pvtz
}

set_num_threads( 4 )
memory 2 gb

molecule MOL {
0 1

H	 -1.835082	 1.385983	 0.000069
C	 -1.300516	 0.441153	 -0.000028
O	 -0.006604	 0.654344	 -0.000106
O	 -1.828920	 -0.612308	 0.000113
C	 0.576948	 1.187840	 1.185083
C	 2.059139	 1.342138	 0.940123
H	 0.376100	 0.515043	 2.006644
H	 0.108584	 2.135745	 1.408857
H	 2.513998	 0.386236	 0.713570
H	 2.534424	 1.747170	 1.825508
H	 2.245140	 2.015068	 0.112755

	symmetry c1
}
set optking {
	frozen_dihedral = ("
		5 3 2 4
	")
}

ee = optimize('scf')
oeprop('DIPOLE', 'QUADRUPOLE', 'MULLIKEN_CHARGES')
f=open( 'psi4out.xyz', 'w' )
f.write( "11  " )
f.write( str(ee) + "\n" )
f.write( MOL.save_string_xyz() )
f.close()
--------------------------------------------------------------------------

    Molecular point group: c1
  Charge       = 0
  Multiplicity = 1
  Basis Set: CC-PVTZ
  Basis Set:
  @DF-RHF Final Energy:  -266.91305328656205
    Total Energy =                       -266.9130532865617624
    Molecular point group: c1
  Basis Set: CC-PVTZ
  Basis Set:
  Basis Set: CC-PVTZ
  Basis Set:
  @DF-RHF Final Energy:  -266.91427622540743
    Total Energy =                       -266.9142762254074341
  Basis Set: CC-PVTZ
  Basis Set:
  Basis Set: CC-PVTZ
  Basis Set:
  @DF-RHF Final Energy:  -266.91425085432695
    Total Energy =                       -266.9142508543267809
  Basis Set: CC-PVTZ
  Basis Set:
  Basis Set: CC-PVTZ
  Basis Set:
  @DF-RHF Final Energy:  -266.91438386129630
    Total Energy =                       -266.9143838612961304
  Basis Set: CC-PVTZ
  Basis Set:
  Basis Set: CC-PVTZ
  Basis Set:
  @DF-RHF Final Energy:  -266.91442617257042
    Total Energy =                       -266.9144261725704723
  Basis Set: CC-PVTZ
  Basis Set:
  Basis Set: CC-PVTZ
  Basis Set:
  @DF-RHF Final Energy:  -266.91442635289621
    Total Energy =                       -266.9144263528963279
  Basis Set: CC-PVTZ
  Basis Set:
  Charge       = 0
  Multiplicity = 1
  Basis Set: CC-PVTZ
  Basis Set:

    Orbital Energies (a.u.)
    -----------------------

    Doubly Occupied:

       1A    -20.589313     2A    -20.558787     3A    -11.373746
       4A    -11.302001     5A    -11.228779     6A     -1.471488
       7A     -1.384273     8A     -1.051210     9A     -0.887255
      10A     -0.836279    11A     -0.743772    12A     -0.693909
      13A     -0.654210    14A     -0.637647    15A     -0.566568
      16A     -0.544877    17A     -0.538526    18A     -0.508793
      19A     -0.468066    20A     -0.457253

  @DF-RHF Final Energy:  -266.91442781855187

   => Energetics <=

    Nuclear Repulsion Energy =            177.0800057967521468
    One-Electron Energy =                -714.9953689888116060
    Two-Electron Energy =                 271.0009353735075592
    DFT Exchange-Correlation Energy =       0.0000000000000000
    Empirical Dispersion Energy =           0.0000000000000000
    PCM Polarization Energy =               0.0000000000000000
    EFP Energy =                            0.0000000000000000
    Total Energy =                       -266.9144278185518715
    Molecular point group: c1
  Basis Set: CC-PVTZ
  Basis Set:

  -Total Gradient:
     Atom            X                  Y                   Z
    ------   -----------------  -----------------  -----------------
       1       -0.000007997623    -0.000007141656    -0.000005284380
       2        0.000234241031    -0.001795450214    -0.005711604178
       3       -0.000395687913     0.004463217249     0.000168241865
       4       -0.000072277662     0.000284862959     0.004244905560
       5        0.000239149628    -0.002934384217     0.001305008992
       6        0.000004456261    -0.000007554349    -0.000000208408
       7        0.000002130588    -0.000003415104    -0.000010407103
       8       -0.000001275255     0.000001686921     0.000006259239
       9        0.000002218545     0.000000163374    -0.000001116138
      10       -0.000000640320    -0.000000166657     0.000002277280
      11       -0.000004317285    -0.000001818307     0.000001927270

  **** Optimization is complete! (in 7 steps) ****
    Final optimized geometry and variables:
    Molecular point group: c1

    Geometry (in Angstrom), charge = 0, multiplicity = 1:

    H           -1.720365020178     0.824962230603    -0.511237546863
    C           -1.205505426759    -0.134072391949    -0.442760310324
    O            0.123308396294    -0.018093457597    -0.429831313867
    O           -1.775363476223    -1.155044534624    -0.383648760047
    C            0.688931488099     0.548940828857     0.741503527933
    C            2.164841857454     0.760150324912     0.502980738793
    H            0.520812095151    -0.127294569354     1.571027196227
    H            0.195850861510     1.491133488175     0.964920681480
    H            2.648365638054    -0.180155408805     0.273611930304
    H            2.624746674991     1.179086822287     1.390089766786
    H            2.324259001873     1.440071601792    -0.323882727454

  Mulliken Charges: (a.u.)
   Center  Symbol    Alpha    Beta     Spin     Total
       1     H     0.47019  0.47019  0.00000  0.05963
       2     C     2.83944  2.83944  0.00000  0.32111
       3     O     4.15116  4.15116  0.00000 -0.30231
       4     O     4.16299  4.16299  0.00000 -0.32599
       5     C     2.97000  2.97000  0.00000  0.06000
       6     C     3.13336  3.13336  0.00000 -0.26673
       7     H     0.45607  0.45607  0.00000  0.08787
       8     H     0.46625  0.46625  0.00000  0.06750
       9     H     0.44534  0.44534  0.00000  0.10931
      10     H     0.45571  0.45571  0.00000  0.08857
      11     H     0.44948  0.44948  0.00000  0.10103

   Total alpha = 20.00000, Total beta = 20.00000, Total charge =  0.00000
