  ==> Input File <==

--------------------------------------------------------------------------
set {
	reference rhf
	basis 6-31G*
}

set_num_threads( 4 )
memory 2 gb

molecule MOL {
0 1

H	 -2.646374	 -0.642757	 1.268656
C	 -2.083525	 -0.384536	 0.393091
O	 -0.807605	 -0.127164	 0.768327
F	 -2.118945	 -1.383102	 -0.486752
F	 -2.621877	 0.670592	 -0.209486
C	 -0.025451	 0.631654	 -0.083212
C	 1.315096	 -0.080603	 -0.208836
Cl	 0.195601	 2.269424	 0.554018
H	 -0.455538	 0.718935	 -1.065648
F	 2.112835	 0.581129	 -1.019924
F	 1.112909	 -1.278285	 -0.720810
F	 1.911909	 -0.219725	 0.949798

	symmetry c1
}
set optking {
	frozen_dihedral = ("
		6 3 2 4
	")
}

ee = optimize('scf')
oeprop('DIPOLE', 'QUADRUPOLE', 'MULLIKEN_CHARGES')
f=open( 'psi4out.xyz', 'w' )
f.write( "12  " )
f.write( str(ee) + "\n" )
f.write( MOL.save_string_xyz() )
f.close()
--------------------------------------------------------------------------

    Molecular point group: c1
  Charge       = 0
  Multiplicity = 1
  Basis Set: 6-31G*
  Basis Set:
  @DF-RHF Final Energy: -1146.31297282530795
    Total Energy =                      -1146.3129728253074973
    Molecular point group: c1
  Basis Set: 6-31G*
  Basis Set:
  Basis Set: 6-31G*
  Basis Set:
  @DF-RHF Final Energy: -1146.31303674782112
    Total Energy =                      -1146.3130367478208882
  Basis Set: 6-31G*
  Basis Set:
  Basis Set: 6-31G*
  Basis Set:
  @DF-RHF Final Energy: -1146.31315808789736
    Total Energy =                      -1146.3131580878985005
  Basis Set: 6-31G*
  Basis Set:
  Basis Set: 6-31G*
  Basis Set:
  @DF-RHF Final Energy: -1146.31317297576243
    Total Energy =                      -1146.3131729757619723
  Basis Set: 6-31G*
  Basis Set:
  Basis Set: 6-31G*
  Basis Set:
  @DF-RHF Final Energy: -1146.31318382054997
    Total Energy =                      -1146.3131838205499662
  Basis Set: 6-31G*
  Basis Set:
  Charge       = 0
  Multiplicity = 1
  Basis Set: 6-31G*
  Basis Set:

    Orbital Energies (a.u.)
    -----------------------

    Doubly Occupied:

       1A   -104.843545     2A    -26.359550     3A    -26.358068
       4A    -26.357268     5A    -26.351991     6A    -26.342549
       7A    -20.648984     8A    -11.527334     9A    -11.490033
      10A    -11.401399    11A    -10.578307    12A     -8.047658
      13A     -8.044136    14A     -8.044036    15A     -1.760684
      16A     -1.718881    17A     -1.657129    18A     -1.655751
      19A     -1.639938    20A     -1.485421    21A     -1.179245
      22A     -1.052759    23A     -0.986451    24A     -0.919280
      25A     -0.859253    26A     -0.851402    27A     -0.844692
      28A     -0.826620    29A     -0.811333    30A     -0.790983
      31A     -0.726933    32A     -0.725776    33A     -0.704523
      34A     -0.701626    35A     -0.678833    36A     -0.674375
      37A     -0.659590    38A     -0.657424    39A     -0.648945
      40A     -0.633205    41A     -0.596787    42A     -0.580094
      43A     -0.520651    44A     -0.477295    45A     -0.469146

  @DF-RHF Final Energy: -1146.31318411291659

   => Energetics <=

    Nuclear Repulsion Energy =            736.8573885277670570
    One-Electron Energy =               -3056.5613728647358585
    Two-Electron Energy =                1173.3908002240527821
    DFT Exchange-Correlation Energy =       0.0000000000000000
    Empirical Dispersion Energy =           0.0000000000000000
    PCM Polarization Energy =               0.0000000000000000
    EFP Energy =                            0.0000000000000000
    Total Energy =                      -1146.3131841129161330
    Molecular point group: c1
  Basis Set: 6-31G*
  Basis Set:

  -Total Gradient:
     Atom            X                  Y                   Z
    ------   -----------------  -----------------  -----------------
       1        0.000037680619    -0.000029805754     0.000040792459
       2       -0.000521325373     0.003440906094    -0.001878437955
       3        0.001228269981    -0.003785326843    -0.001618349706
       4       -0.000037420429    -0.001608796569     0.002066745933
       5        0.000206168076    -0.000043418382    -0.000078920111
       6       -0.001085015658     0.001823871896     0.001621056220
       7        0.000016871467    -0.000225858425     0.000017922892
       8        0.000062652332     0.000084568360    -0.000091237987
       9        0.000038366597     0.000090210783    -0.000064316692
      10       -0.000011114738     0.000163318708     0.000030760748
      11        0.000033923922     0.000083701082    -0.000094443482
      12        0.000030943215     0.000006628966     0.000048427679

  **** Optimization is complete! (in 6 steps) ****
    Final optimized geometry and variables:
    Molecular point group: c1

    Geometry (in Angstrom), charge = 0, multiplicity = 1:

    H           -2.560612820816    -0.937496055014     1.263104196002
    C           -2.032752990159    -0.643852965162     0.376728266589
    O           -0.731018694718    -0.436376663564     0.701785571887
    F           -2.128424066729    -1.602028262302    -0.539388227126
    F           -2.576718452401     0.450121153527    -0.144488170517
    C            0.047693617101     0.332582282094    -0.139141693944
    C            1.408069600201    -0.347971108228    -0.226077922086
    CL           0.218504843710     1.984469680939     0.482605781730
    H           -0.360035953841     0.400840304799    -1.132827177959
    F            2.212704245756     0.334447677464    -1.012908815234
    F            1.250358669590    -1.548542344892    -0.745677969277
    F            1.974725288398    -0.474398188916     0.949149733626

  Mulliken Charges: (a.u.)
   Center  Symbol    Alpha    Beta     Spin     Total
       1     H     0.40331  0.40331  0.00000  0.19339
       2     C     2.56520  2.56520  0.00000  0.86959
       3     O     4.30069  4.30069  0.00000 -0.60138
       4     F     4.68311  4.68311  0.00000 -0.36622
       5     F     4.68335  4.68335  0.00000 -0.36669
       6     C     3.04325  3.04325  0.00000 -0.08650
       7     C     2.43315  2.43315  0.00000  1.13369
       8    CL     8.50224  8.50224  0.00000 -0.00447
       9     H     0.36765  0.36765  0.00000  0.26470
      10     F     4.67414  4.67414  0.00000 -0.34828
      11     F     4.67558  4.67558  0.00000 -0.35116
      12     F     4.66833  4.66833  0.00000 -0.33666

   Total alpha = 45.00000, Total beta = 45.00000, Total charge =  0.00000
