  ==> Input File <==

--------------------------------------------------------------------------
set {
	reference rhf
	basis 6-31G*
}

set_num_threads( 4 )
memory 2 gb

molecule MOL {
0 1

H	 -1.836216	 1.387520	 -0.000064
C	 -1.301823	 0.443321	 -0.000031
O	 -0.003969	 0.658512	 0.000451
O	 -1.829879	 -0.616434	 -0.000857
C	 0.850537	 -0.484732	 0.000380
C	 1.096920	 -0.867444	 1.443691
H	 1.769448	 -0.233047	 -0.511064
H	 0.368309	 -1.280907	 -0.549944
H	 1.572997	 -0.055411	 1.981266
H	 1.745502	 -1.736101	 1.488513
H	 0.165156	 -1.108374	 1.942346

	symmetry c1
}
set optking {
	frozen_dihedral = ("
		7 5 3 2
	")
}

ee = optimize('scf')
oeprop('DIPOLE', 'QUADRUPOLE', 'MULLIKEN_CHARGES')
f=open( 'psi4out.xyz', 'w' )
f.write( "11  " )
f.write( str(ee) + "\n" )
f.write( MOL.save_string_xyz() )
f.close()
--------------------------------------------------------------------------

    Molecular point group: c1
  Charge       = 0
  Multiplicity = 1
  Basis Set: 6-31G*
  Basis Set:
  @DF-RHF Final Energy:  -266.82673643526437
    Total Energy =                       -266.8267364352642517
    Molecular point group: c1
  Basis Set: 6-31G*
  Basis Set:
  Basis Set: 6-31G*
  Basis Set:
  @DF-RHF Final Energy:  -266.82748893495079
    Total Energy =                       -266.8274889349507930
  Basis Set: 6-31G*
  Basis Set:
  Basis Set: 6-31G*
  Basis Set:
  @DF-RHF Final Energy:  -266.81894369001662
    Total Energy =                       -266.8189436900168516
  Basis Set: 6-31G*
  Basis Set:
  Basis Set: 6-31G*
  Basis Set:
  @DF-RHF Final Energy:  -266.82792785965785
    Total Energy =                       -266.8279278596577342
  Basis Set: 6-31G*
  Basis Set:
  Basis Set: 6-31G*
  Basis Set:
  @DF-RHF Final Energy:  -266.82811076325908
    Total Energy =                       -266.8281107632591329
  Basis Set: 6-31G*
  Basis Set:
  Basis Set: 6-31G*
  Basis Set:
  @DF-RHF Final Energy:  -266.82811602908816
    Total Energy =                       -266.8281160290884486
  Basis Set: 6-31G*
  Basis Set:
  Charge       = 0
  Multiplicity = 1
  Basis Set: 6-31G*
  Basis Set:

    Orbital Energies (a.u.)
    -----------------------

    Doubly Occupied:

       1A    -20.612615     2A    -20.557006     3A    -11.379539
       4A    -11.291375     5A    -11.223932     6A     -1.475319
       7A     -1.374207     8A     -1.048914     9A     -0.911163
      10A     -0.797485    11A     -0.745503    12A     -0.683718
      13A     -0.653448    14A     -0.623355    15A     -0.574681
      16A     -0.540422    17A     -0.538547    18A     -0.501056
      19A     -0.458031    20A     -0.453718

  @DF-RHF Final Energy:  -266.82811650862033

   => Energetics <=

    Nuclear Repulsion Energy =            181.7245663481920133
    One-Electron Energy =                -724.2173013711997100
    Two-Electron Energy =                 275.6646185143872572
    DFT Exchange-Correlation Energy =       0.0000000000000000
    Empirical Dispersion Energy =           0.0000000000000000
    PCM Polarization Energy =               0.0000000000000000
    EFP Energy =                            0.0000000000000000
    Total Energy =                       -266.8281165086204965
    Molecular point group: c1
  Basis Set: 6-31G*
  Basis Set:

  -Total Gradient:
     Atom            X                  Y                   Z
    ------   -----------------  -----------------  -----------------
       1       -0.000033608291     0.000002882830     0.000006053570
       2       -0.000001373750    -0.000005589913    -0.000824527074
       3       -0.000107734362    -0.000022399820     0.001009962982
       4        0.000020090168     0.000015725861     0.000009637065
       5        0.000433996365     0.000335639124     0.000559937423
       6        0.000010628483    -0.000008969545    -0.000013495674
       7       -0.000340490162    -0.000311503684    -0.000756620745
       8        0.000009477800     0.000003480656     0.000005394578
       9       -0.000001728297    -0.000001250588    -0.000002030022
      10        0.000007710643    -0.000011688043     0.000015718249
      11        0.000003031403     0.000003673120    -0.000010030349

  **** Optimization is complete! (in 7 steps) ****
    Final optimized geometry and variables:
    Molecular point group: c1

    Geometry (in Angstrom), charge = 0, multiplicity = 1:

    H           -1.573359882690     1.600081761395    -0.381808039353
    C           -1.066545517373     0.642637294314    -0.324406120374
    O            0.236673438383     0.826704855691    -0.313995277165
    O           -1.628218297294    -0.399039353218    -0.279464965292
    C            1.085862864075    -0.321703412260    -0.267148296632
    C            1.381426311561    -0.720923671325     1.165778117548
    H            1.983030762321    -0.021069697374    -0.788121431891
    H            0.619238751820    -1.128075121172    -0.811715433138
    H            1.822269808774     0.106363185514     1.710619885971
    H            2.079958079023    -1.551672638796     1.179849206680
    H            0.475274442182    -1.030379466948     1.672637294552

  Mulliken Charges: (a.u.)
   Center  Symbol    Alpha    Beta     Spin     Total
       1     H     0.41083  0.41083  0.00000  0.17834
       2     C     2.72694  2.72694  0.00000  0.54612
       3     O     4.29175  4.29175  0.00000 -0.58350
       4     O     4.26452  4.26452  0.00000 -0.52904
       5     C     3.01215  3.01215  0.00000 -0.02430
       6     C     3.25294  3.25294  0.00000 -0.50588
       7     H     0.40805  0.40805  0.00000  0.18390
       8     H     0.40020  0.40020  0.00000  0.19960
       9     H     0.41210  0.41210  0.00000  0.17580
      10     H     0.41615  0.41615  0.00000  0.16770
      11     H     0.40436  0.40436  0.00000  0.19128

   Total alpha = 20.00000, Total beta = 20.00000, Total charge = -0.00000
