  ==> Input File <==

--------------------------------------------------------------------------
set {
	reference rhf
	basis cc-pvtz
}

set_num_threads( 4 )
memory 2 gb

molecule MOL {
0 1

H	 2.243170	 0.902103	 1.148117
O	 1.379462	 0.521417	 1.201244
C	 1.050374	 0.054877	 0.000135
C	 -0.318151	 -0.570512	 0.000144
O	 1.776060	 0.141751	 -0.929274
C	 -1.454884	 0.441630	 -0.000560
H	 -0.371613	 -1.223646	 -0.864985
H	 -0.371920	 -1.222758	 0.865929
C	 -2.822577	 -0.232186	 0.000063
H	 -1.359760	 1.084704	 -0.867077
H	 -1.359641	 1.085996	 0.864983
H	 -2.954352	 -0.858985	 -0.875745
H	 -3.615886	 0.505352	 0.000019
H	 -2.953878	 -0.858359	 0.876394

	symmetry c1
}
set optking {
	frozen_dihedral = ("
		2 3 4 7
	")
}

ee = optimize('scf')
oeprop('DIPOLE', 'QUADRUPOLE', 'MULLIKEN_CHARGES')
f=open( 'psi4out.xyz', 'w' )
f.write( "14  " )
f.write( str(ee) + "\n" )
f.write( MOL.save_string_xyz() )
f.close()
--------------------------------------------------------------------------

    Molecular point group: c1
  Charge       = 0
  Multiplicity = 1
  Basis Set: CC-PVTZ
  Basis Set:
  @DF-RHF Final Energy:  -305.99920643475156
    Total Energy =                       -305.9992064347516703
    Molecular point group: c1
  Basis Set: CC-PVTZ
  Basis Set:
  Basis Set: CC-PVTZ
  Basis Set:
  @DF-RHF Final Energy:  -305.99967522107681
    Total Energy =                       -305.9996752210769273
  Basis Set: CC-PVTZ
  Basis Set:
  Basis Set: CC-PVTZ
  Basis Set:
  @DF-RHF Final Energy:  -305.99973363093699
    Total Energy =                       -305.9997336309368166
  Basis Set: CC-PVTZ
  Basis Set:
  Basis Set: CC-PVTZ
  Basis Set:
  @DF-RHF Final Energy:  -305.99966112799405
    Total Energy =                       -305.9996611279941590
  Basis Set: CC-PVTZ
  Basis Set:
  Charge       = 0
  Multiplicity = 1
  Basis Set: CC-PVTZ
  Basis Set:

    Orbital Energies (a.u.)
    -----------------------

    Doubly Occupied:

       1A    -20.604992     2A    -20.539190     3A    -11.372643
       4A    -11.238106     5A    -11.234238     6A    -11.219512
       7A     -1.477331     8A     -1.368197     9A     -1.087894
      10A     -0.980936    11A     -0.852510    12A     -0.812148
      13A     -0.706112    14A     -0.688509    15A     -0.643542
      16A     -0.639226    17A     -0.596550    18A     -0.568254
      19A     -0.554362    20A     -0.519727    21A     -0.501236
      22A     -0.489786    23A     -0.476352    24A     -0.441265

  @DF-RHF Final Energy:  -305.99974176519549

   => Energetics <=

    Nuclear Repulsion Energy =            240.9054569323702992
    One-Electron Energy =                -894.5851598820188428
    Two-Electron Energy =                 347.6799611844531910
    DFT Exchange-Correlation Energy =       0.0000000000000000
    Empirical Dispersion Energy =           0.0000000000000000
    PCM Polarization Energy =               0.0000000000000000
    EFP Energy =                            0.0000000000000000
    Total Energy =                       -305.9997417651953810
    Molecular point group: c1
  Basis Set: CC-PVTZ
  Basis Set:

  -Total Gradient:
     Atom            X                  Y                   Z
    ------   -----------------  -----------------  -----------------
       1        0.000001385881    -0.000014927563    -0.000006065176
       2        0.000104947785    -0.000049354594     0.000144875656
       3        0.000038368902     0.000051385255    -0.000232349136
       4       -0.000225801565     0.000111419505    -0.000174076220
       5       -0.000073252232     0.000008849677     0.000095139147
       6        0.000161322070    -0.000061334637     0.000032565823
       7        0.000115042494    -0.000053690828     0.000124781091
       8       -0.000011677055     0.000022080571     0.000056855178
       9       -0.000095363820    -0.000053501803    -0.000016724870
      10       -0.000032438508     0.000051585414    -0.000028540170
      11        0.000010249712    -0.000008339471    -0.000002058685
      12       -0.000005792660    -0.000001720196     0.000006088880
      13        0.000018979225    -0.000001419848    -0.000002136860
      14       -0.000005970229    -0.000001031480     0.000001645341

  **** Optimization is complete! (in 5 steps) ****
    Final optimized geometry and variables:
    Molecular point group: c1

    Geometry (in Angstrom), charge = 0, multiplicity = 1:

    H            2.275033057035     0.853974880340     1.065466345822
    O            1.434528527150     0.428035987552     1.143290934742
    C            1.076844857304    -0.018904241079    -0.057460183489
    C           -0.274995884743    -0.677566427356    -0.047883188916
    O            1.762286783488     0.122497927686    -1.010940792348
    C           -1.405821251962     0.357873260638    -0.055486795405
    H           -0.333440664006    -1.305618625790    -0.925137326491
    H           -0.353789549487    -1.300617409088     0.834641452768
    C           -2.781689801462    -0.298151369829    -0.069708888935
    H           -1.296406106754     0.994931692309    -0.926649467788
    H           -1.313235172414     0.995755587139     0.815923846066
    H           -2.908158790460    -0.923963054155    -0.946245145922
    H           -3.565215372971     0.449815321188    -0.080284227851
    H           -2.928067874747    -0.919992529645     0.806780773036

  Mulliken Charges: (a.u.)
   Center  Symbol    Alpha    Beta     Spin     Total
       1     H     0.38036  0.38036  0.00000  0.23929
       2     O     4.16426  4.16426  0.00000 -0.32853
       3     C     2.80491  2.80491  0.00000  0.39018
       4     C     3.08701  3.08701  0.00000 -0.17401
       5     O     4.19630  4.19630  0.00000 -0.39261
       6     C     3.09446  3.09446  0.00000 -0.18892
       7     H     0.43738  0.43738  0.00000  0.12525
       8     H     0.44381  0.44381  0.00000  0.11238
       9     C     3.14975  3.14975  0.00000 -0.29951
      10     H     0.44494  0.44494  0.00000  0.11011
      11     H     0.44475  0.44475  0.00000  0.11050
      12     H     0.45264  0.45264  0.00000  0.09472
      13     H     0.44567  0.44567  0.00000  0.10865
      14     H     0.45375  0.45375  0.00000  0.09251

   Total alpha = 24.00000, Total beta = 24.00000, Total charge =  0.00000
