  ==> Input File <==

--------------------------------------------------------------------------
set {
	reference rhf
	basis 6-31G*
}

set_num_threads( 4 )
memory 2 gb

molecule MOL {
0 1

H	 -2.172150	 0.880146	 0.502514
C	 -2.018062	 -0.000025	 -0.114509
O	 -0.774054	 0.001095	 -0.743181
H	 -2.760490	 0.003458	 -0.901350
H	 -2.173624	 -0.884374	 0.496163
C	 0.406719	 -0.036072	 0.038437
C	 1.527058	 -0.027424	 -0.999242
C	 0.515263	 1.201695	 0.934728
C	 0.477232	 -1.319004	 0.872841
H	 1.463992	 0.866685	 -1.609180
H	 1.437118	 -0.887706	 -1.652847
H	 2.501618	 -0.054248	 -0.522614
H	 0.392423	 2.104085	 0.345124
H	 1.489142	 1.235925	 1.412210
H	 -0.231404	 1.203966	 1.721519
H	 0.328112	 -2.187369	 0.239788
H	 1.449174	 -1.405706	 1.347545
H	 -0.269957	 -1.337470	 1.658970

	symmetry c1
}
set optking {
	frozen_dihedral = ("
		6 3 2 5
	")
}

ee = optimize('scf')
oeprop('DIPOLE', 'QUADRUPOLE', 'MULLIKEN_CHARGES')
f=open( 'psi4out.xyz', 'w' )
f.write( "18  " )
f.write( str(ee) + "\n" )
f.write( MOL.save_string_xyz() )
f.close()
--------------------------------------------------------------------------

    Molecular point group: c1
  Charge       = 0
  Multiplicity = 1
  Basis Set: 6-31G*
  Basis Set:
  @DF-RHF Final Energy:  -271.17548926611164
    Total Energy =                       -271.1754892661116401
    Molecular point group: c1
  Basis Set: 6-31G*
  Basis Set:
  Basis Set: 6-31G*
  Basis Set:
  @DF-RHF Final Energy:  -271.17546127742986
    Total Energy =                       -271.1754612774300313
  Basis Set: 6-31G*
  Basis Set:
  Basis Set: 6-31G*
  Basis Set:
  @DF-RHF Final Energy:  -271.17549335350213
    Total Energy =                       -271.1754933535019632
  Basis Set: 6-31G*
  Basis Set:
  Charge       = 0
  Multiplicity = 1
  Basis Set: 6-31G*
  Basis Set:

    Orbital Energies (a.u.)
    -----------------------

    Doubly Occupied:

       1A    -20.546935     2A    -11.281273     3A    -11.260507
       4A    -11.208884     5A    -11.208441     6A    -11.203213
       7A     -1.370138     8A     -1.073047     9A     -0.945772
      10A     -0.939764    11A     -0.912433    12A     -0.752339
      13A     -0.655220    14A     -0.644268    15A     -0.637313
      16A     -0.593068    17A     -0.574914    18A     -0.552675
      19A     -0.534051    20A     -0.523737    21A     -0.514583
      22A     -0.487043    23A     -0.486568    24A     -0.438849
      25A     -0.404671

  @DF-RHF Final Energy:  -271.17549405237509

   => Energetics <=

    Nuclear Repulsion Energy =            272.2881617927200182
    One-Electron Energy =                -907.4279017938355310
    Two-Electron Energy =                 363.9642459487403130
    DFT Exchange-Correlation Energy =       0.0000000000000000
    Empirical Dispersion Energy =           0.0000000000000000
    PCM Polarization Energy =               0.0000000000000000
    EFP Energy =                            0.0000000000000000
    Total Energy =                       -271.1754940523752566
    Molecular point group: c1
  Basis Set: 6-31G*
  Basis Set:

  -Total Gradient:
     Atom            X                  Y                   Z
    ------   -----------------  -----------------  -----------------
       1        0.000034679629     0.000027173846     0.000024740666
       2       -0.000028622138    -0.000163253410    -0.000058353043
       3       -0.000011372463    -0.000003584619     0.000007219628
       4        0.000018662640     0.000015228999    -0.000005228042
       5       -0.000017559071     0.000065090469     0.000033788945
       6       -0.000007168135     0.000064232263    -0.000007892153
       7        0.000006475665    -0.000046195567     0.000001570613
       8        0.000054572173     0.000030837104     0.000045934710
       9       -0.000051436698     0.000033476619    -0.000046400822
      10       -0.000016703268    -0.000000528980     0.000052940595
      11        0.000014227883     0.000003033122    -0.000048492229
      12        0.000001493535    -0.000042003549    -0.000002188908
      13        0.000009523949    -0.000011952000    -0.000010077021
      14       -0.000018545208     0.000026861151     0.000029000312
      15       -0.000036130482    -0.000008968770    -0.000001588921
      16       -0.000009733055    -0.000009901358     0.000014888720
      17        0.000020168959     0.000026276976    -0.000027736644
      18        0.000037466087    -0.000005822293    -0.000002126406

  **** Optimization is complete! (in 4 steps) ****
    Final optimized geometry and variables:
    Molecular point group: c1

    Geometry (in Angstrom), charge = 0, multiplicity = 1:

    H           -2.162734522468     0.939826273304     0.481078857646
    C           -2.017587853571     0.043016131287    -0.113871051384
    O           -0.774088961346     0.018417175078    -0.743009380380
    H           -2.760401592227     0.033836013655    -0.900265050141
    H           -2.181127647402    -0.823975057704     0.519093535326
    C            0.406848860577    -0.008746138934     0.038792049086
    C            1.527353334713     0.006641915731    -0.998609507643
    C            0.507316532660     1.229330786044     0.935577654057
    C            0.485449382544    -1.291488582792     0.872750258523
    H            1.462765154648     0.903381160906    -1.604452444866
    H            1.439047572052    -0.850847768335    -1.656138609188
    H            2.501891002532    -0.020723567046    -0.521963506130
    H            0.378616482293     2.131442257102     0.346734633244
    H            1.480903857840     1.269777236714     1.413062967037
    H           -0.239514959463     1.225844755779     1.722296714285
    H            0.341194109052    -2.160226532989     0.239182290069
    H            1.458098818762    -1.372544717609     1.347117128387
    H           -0.261219644046    -1.315112830724     1.659126028057

  Mulliken Charges: (a.u.)
   Center  Symbol    Alpha    Beta     Spin     Total
       1     H     0.42920  0.42920  0.00000  0.14160
       2     C     3.07972  3.07972  0.00000 -0.15944
       3     O     4.31842  4.31842  0.00000 -0.63684
       4     H     0.41282  0.41282  0.00000  0.17436
       5     H     0.42967  0.42967  0.00000  0.14066
       6     C     2.84226  2.84226  0.00000  0.31549
       7     C     3.23302  3.23302  0.00000 -0.46603
       8     C     3.24811  3.24811  0.00000 -0.49621
       9     C     3.24704  3.24704  0.00000 -0.49408
      10     H     0.41428  0.41428  0.00000  0.17143
      11     H     0.41396  0.41396  0.00000  0.17209
      12     H     0.42513  0.42513  0.00000  0.14975
      13     H     0.41335  0.41335  0.00000  0.17331
      14     H     0.41941  0.41941  0.00000  0.16118
      15     H     0.42013  0.42013  0.00000  0.15973
      16     H     0.41326  0.41326  0.00000  0.17347
      17     H     0.41988  0.41988  0.00000  0.16024
      18     H     0.42034  0.42034  0.00000  0.15932

   Total alpha = 25.00000, Total beta = 25.00000, Total charge =  0.00000
