  ==> Input File <==

--------------------------------------------------------------------------
set {
	reference rhf
	basis cc-pvtz
}

set_num_threads( 4 )
memory 2 gb

molecule MOL {
0 1

O	 -0.988175	 -1.402891	 0.050086
C	 -0.675048	 -0.248293	 -0.009686
C	 -1.742492	 0.826599	 -0.011538
N	 0.622280	 0.144970	 -0.099307
H	 -1.692153	 1.431066	 -0.908439
H	 -2.698310	 0.331559	 0.031353
H	 -1.642148	 1.483784	 0.843455
C	 1.660276	 -0.864243	 -0.099454
C	 1.074186	 1.494932	 0.139726
H	 2.444093	 -0.576102	 -0.789258
H	 1.246382	 -1.808227	 -0.404030
H	 2.100010	 -0.978682	 0.888053
H	 1.931635	 1.699543	 -0.488407
H	 0.314206	 2.218171	 -0.101627
H	 1.375854	 1.644969	 1.173907

	symmetry c1
}
set optking {
	frozen_dihedral = ("
		8 4 2 3
	")
}

ee = optimize('scf')
oeprop('DIPOLE', 'QUADRUPOLE', 'MULLIKEN_CHARGES')
f=open( 'psi4out.xyz', 'w' )
f.write( "15  " )
f.write( str(ee) + "\n" )
f.write( MOL.save_string_xyz() )
f.close()
--------------------------------------------------------------------------

    Molecular point group: c1
  Charge       = 0
  Multiplicity = 1
  Basis Set: CC-PVTZ
  Basis Set:
  @DF-RHF Final Energy:  -286.13542010220584
    Total Energy =                       -286.1354201022056714
    Molecular point group: c1
  Basis Set: CC-PVTZ
  Basis Set:
  Basis Set: CC-PVTZ
  Basis Set:
  @DF-RHF Final Energy:  -286.13510511828486
    Total Energy =                       -286.1351051182844571
  Basis Set: CC-PVTZ
  Basis Set:
  Basis Set: CC-PVTZ
  Basis Set:
  @DF-RHF Final Energy:  -286.13550629073882
    Total Energy =                       -286.1355062907385332
  Basis Set: CC-PVTZ
  Basis Set:
  Basis Set: CC-PVTZ
  Basis Set:
  @DF-RHF Final Energy:  -286.13552396905015
    Total Energy =                       -286.1355239690503822
  Basis Set: CC-PVTZ
  Basis Set:
  @DF-RHF Final Energy:  -286.13553425627333
    Total Energy =                       -286.1355342562734450
  @DF-RHF Final Energy:  -286.13554336186559
    Total Energy =                       -286.1355433618655866
  @DF-RHF Final Energy:  -286.13555780885372
    Total Energy =                       -286.1355578088535481
  @DF-RHF Final Energy:  -286.13556198420144
    Total Energy =                       -286.1355619842014448
  Basis Set: CC-PVTZ
  Basis Set:
  @DF-RHF Final Energy:  -286.13556529177845
    Total Energy =                       -286.1355652917785619
  Basis Set: CC-PVTZ
  Basis Set:
  Basis Set: CC-PVTZ
  Basis Set:
  @DF-RHF Final Energy:  -286.13556755455301
    Total Energy =                       -286.1355675545531767
  Basis Set: CC-PVTZ
  Basis Set:
  Basis Set: CC-PVTZ
  Basis Set:
  @DF-RHF Final Energy:  -286.13556934540657
    Total Energy =                       -286.1355693454061679
  Basis Set: CC-PVTZ
  Basis Set:
  Charge       = 0
  Multiplicity = 1
  Basis Set: CC-PVTZ
  Basis Set:

    Orbital Energies (a.u.)
    -----------------------

    Doubly Occupied:

       1A    -20.502568     2A    -15.578806     3A    -11.335249
       4A    -11.264141     5A    -11.246443     6A    -11.226437
       7A     -1.386681     8A     -1.246518     9A     -1.015000
      10A     -0.973607    11A     -0.921471    12A     -0.739551
      13A     -0.683277    14A     -0.662014    15A     -0.653987
      16A     -0.591117    17A     -0.578051    18A     -0.566922
      19A     -0.561051    20A     -0.548751    21A     -0.530607
      22A     -0.507050    23A     -0.413153    24A     -0.369815

  @DF-RHF Final Energy:  -286.13556985960179

   => Energetics <=

    Nuclear Repulsion Energy =            252.8010664395866343
    One-Electron Energy =                -889.6687457929964467
    Two-Electron Energy =                 350.7321094938083661
    DFT Exchange-Correlation Energy =       0.0000000000000000
    Empirical Dispersion Energy =           0.0000000000000000
    PCM Polarization Energy =               0.0000000000000000
    EFP Energy =                            0.0000000000000000
    Total Energy =                       -286.1355698596014463
    Molecular point group: c1
  Basis Set: CC-PVTZ
  Basis Set:

  -Total Gradient:
     Atom            X                  Y                   Z
    ------   -----------------  -----------------  -----------------
       1        0.000016863342     0.000009049243     0.000018112287
       2        0.000004395588    -0.000008017134     0.000740699279
       3       -0.000010270790     0.000000699398    -0.000758381304
       4        0.000012389664     0.000006474632     0.000707465988
       5       -0.000003112336     0.000003243793     0.000012718934
       6       -0.000002127934     0.000001077230     0.000001090867
       7       -0.000000412997    -0.000006387424     0.000012709663
       8       -0.000020191142     0.000002898248    -0.000749322631
       9       -0.000000919965    -0.000004041913     0.000003069698
      10        0.000004125849     0.000006648877     0.000010136785
      11        0.000002221474    -0.000003340124    -0.000011412938
      12       -0.000007151554    -0.000014107708     0.000005900376
      13        0.000002724598     0.000000589361     0.000003636129
      14        0.000004220719     0.000003742183     0.000002222441
      15       -0.000002754518     0.000001471342     0.000001354426

  **** Optimization is complete! (in 12 steps) ****
    Final optimized geometry and variables:
    Molecular point group: c1

    Geometry (in Angstrom), charge = 0, multiplicity = 1:

    O           -0.998065987238    -1.397758426246    -0.030814736151
    C           -0.678568102489    -0.242930086301    -0.019416223379
    C           -1.744696452225     0.833903177381    -0.009879055647
    N            0.621242757002     0.145364007426    -0.040070980644
    H           -1.646130324994     1.496312387071    -0.860462244057
    H           -2.700311378743     0.338447419387    -0.051934299498
    H           -1.694691111628     1.431768628000     0.891827817765
    C            1.661364118915    -0.860394346444    -0.049631087442
    C            1.081581187415     1.500679704795     0.136743949150
    H            2.419409779259    -0.592329074764    -0.776560050319
    H            1.239502479866    -1.814276811187    -0.308641899159
    H            2.137720941802    -0.940597120750     0.923673612067
    H            1.836925937166     1.732180292627    -0.605405126320
    H            0.282658315009     2.212316760425     0.026417974869
    H            1.526798447961     1.639496213703     1.118472627840

  Mulliken Charges: (a.u.)
   Center  Symbol    Alpha    Beta     Spin     Total
       1     O     4.22203  4.22203  0.00000 -0.44407
       2     C     2.84725  2.84725  0.00000  0.30550
       3     C     3.16025  3.16025  0.00000 -0.32050
       4     N     3.55888  3.55888  0.00000 -0.11776
       5     H     0.44977  0.44977  0.00000  0.10045
       6     H     0.42843  0.42843  0.00000  0.14315
       7     H     0.44934  0.44934  0.00000  0.10133
       8     C     3.09939  3.09939  0.00000 -0.19877
       9     C     3.09361  3.09361  0.00000 -0.18721
      10     H     0.45739  0.45739  0.00000  0.08522
      11     H     0.42594  0.42594  0.00000  0.14812
      12     H     0.45694  0.45694  0.00000  0.08613
      13     H     0.45156  0.45156  0.00000  0.09687
      14     H     0.44506  0.44506  0.00000  0.10988
      15     H     0.45417  0.45417  0.00000  0.09167

   Total alpha = 24.00000, Total beta = 24.00000, Total charge = -0.00000
