  ==> Input File <==

--------------------------------------------------------------------------
set {
	reference rhf
	basis 6-31G*
}

set_num_threads( 4 )
memory 2 gb

molecule MOL {
0 1

H	 0.102327	 -0.063552	 0.301824
N	 -0.626943	 -0.667432	 -0.000092
C	 -1.979713	 -0.158776	 0.000050
C	 -0.302505	 -1.923377	 -0.391890
H	 -2.520245	 -0.492427	 -0.879443
H	 -1.934741	 0.918111	 -0.004428
H	 -2.517790	 -0.485056	 0.883818
C	 1.176220	 -2.245664	 -0.311324
O	 -1.112171	 -2.723148	 -0.772709
H	 1.534907	 -2.144853	 0.708252
H	 1.331166	 -3.260528	 -0.645600
H	 1.750484	 -1.569773	 -0.937206

	symmetry c1
}
set optking {
	frozen_dihedral = ("
		4 2 3 5
	")
}

ee = optimize('scf')
oeprop('DIPOLE', 'QUADRUPOLE', 'MULLIKEN_CHARGES')
f=open( 'psi4out.xyz', 'w' )
f.write( "12  " )
f.write( str(ee) + "\n" )
f.write( MOL.save_string_xyz() )
f.close()
--------------------------------------------------------------------------

    Molecular point group: c1
  Charge       = 0
  Multiplicity = 1
  Basis Set: 6-31G*
  Basis Set:
  @DF-RHF Final Energy:  -247.00533417936174
    Total Energy =                       -247.0053341793615118
    Molecular point group: c1
  Basis Set: 6-31G*
  Basis Set:
  Basis Set: 6-31G*
  Basis Set:
  @DF-RHF Final Energy:  -247.00557142103591
    Total Energy =                       -247.0055714210360520
  Basis Set: 6-31G*
  Basis Set:
  Basis Set: 6-31G*
  Basis Set:
  @DF-RHF Final Energy:  -247.00558353224574
    Total Energy =                       -247.0055835322458506
  Basis Set: 6-31G*
  Basis Set:
  Basis Set: 6-31G*
  Basis Set:
  @DF-RHF Final Energy:  -247.00560651157824
    Total Energy =                       -247.0056065115782076
  Basis Set: 6-31G*
  Basis Set:
  @DF-RHF Final Energy:  -247.00564155024108
    Total Energy =                       -247.0056415502411937
  @DF-RHF Final Energy:  -247.00567170800556
    Total Energy =                       -247.0056717080057069
  @DF-RHF Final Energy:  -247.00568219899750
    Total Energy =                       -247.0056821989975901
  @DF-RHF Final Energy:  -247.00568535226842
    Total Energy =                       -247.0056853522685856
  @DF-RHF Final Energy:  -247.00570110975360
    Total Energy =                       -247.0057011097535451
  @DF-RHF Final Energy:  -247.00572060667122
    Total Energy =                       -247.0057206066712752
  @DF-RHF Final Energy:  -247.00573977803492
    Total Energy =                       -247.0057397780348651
  @DF-RHF Final Energy:  -247.00575444968416
    Total Energy =                       -247.0057544496839910
  @DF-RHF Final Energy:  -247.00576182460233
    Total Energy =                       -247.0057618246023594
  @DF-RHF Final Energy:  -247.00576879326280
    Total Energy =                       -247.0057687932628596
  @DF-RHF Final Energy:  -247.00577047983325
    Total Energy =                       -247.0057704798333589
  @DF-RHF Final Energy:  -247.00577213365600
    Total Energy =                       -247.0057721336560235
  @DF-RHF Final Energy:  -247.00577690010931
    Total Energy =                       -247.0057769001093106
  @DF-RHF Final Energy:  -247.00578138845327
    Total Energy =                       -247.0057813884533289
  @DF-RHF Final Energy:  -247.00578556826738
    Total Energy =                       -247.0057855682674131
  @DF-RHF Final Energy:  -247.00578942336790
    Total Energy =                       -247.0057894233680145
  Basis Set: 6-31G*
  Basis Set:
  @DF-RHF Final Energy:  -247.00579293569530
    Total Energy =                       -247.0057929356952968
  Basis Set: 6-31G*
  Basis Set:
  Basis Set: 6-31G*
  Basis Set:
  @DF-RHF Final Energy:  -247.00579609224209
    Total Energy =                       -247.0057960922419511
  Basis Set: 6-31G*
  Basis Set:
  Basis Set: 6-31G*
  Basis Set:
  @DF-RHF Final Energy:  -247.00579888507517
    Total Energy =                       -247.0057988850752508
  Basis Set: 6-31G*
  Basis Set:
  Charge       = 0
  Multiplicity = 1
  Basis Set: 6-31G*
  Basis Set:

    Orbital Energies (a.u.)
    -----------------------

    Doubly Occupied:

       1A    -20.515041     2A    -15.582100     3A    -11.342059
       4A    -11.254743     5A    -11.230029     6A     -1.384010
       7A     -1.228247     8A     -1.015283     9A     -0.932173
      10A     -0.787298    11A     -0.689043    12A     -0.648016
      13A     -0.632688    14A     -0.584951    15A     -0.579670
      16A     -0.555069    17A     -0.546139    18A     -0.503808
      19A     -0.412911    20A     -0.385405

  @DF-RHF Final Energy:  -247.00579952671771

   => Energetics <=

    Nuclear Repulsion Energy =            181.4524015647918134
    One-Electron Energy =                -695.2990318960963805
    Two-Electron Energy =                 266.8408308045869717
    DFT Exchange-Correlation Energy =       0.0000000000000000
    Empirical Dispersion Energy =           0.0000000000000000
    PCM Polarization Energy =               0.0000000000000000
    EFP Energy =                            0.0000000000000000
    Total Energy =                       -247.0057995267176238
    Molecular point group: c1
  Basis Set: 6-31G*
  Basis Set:

  -Total Gradient:
     Atom            X                  Y                   Z
    ------   -----------------  -----------------  -----------------
       1        0.000000235323    -0.000000452060     0.000003314481
       2       -0.000007588763    -0.000071714208     0.000244294071
       3        0.000036057713     0.000151045230    -0.000184337948
       4        0.000000622910     0.000030062719    -0.000126640101
       5       -0.000030312473    -0.000112175837     0.000097882494
       6        0.000000070140     0.000000310623    -0.000001033356
       7        0.000000624672     0.000000600932    -0.000000081449
       8       -0.000000990991    -0.000003949380    -0.000002403433
       9        0.000001178589     0.000003265143    -0.000032549288
      10        0.000005565986     0.000022776255     0.000005847213
      11       -0.000004129751    -0.000013604311     0.000016872120
      12       -0.000001333353    -0.000006165106    -0.000021164803

  **** Optimization is complete! (in 24 steps) ****
    Final optimized geometry and variables:
    Molecular point group: c1

    Geometry (in Angstrom), charge = 0, multiplicity = 1:

    H            0.695662196017     1.527733435097     0.442028345363
    N           -0.029456912946     0.911389545345     0.157835265296
    C           -1.398065675082     1.368582105527     0.254657261251
    C            0.276803372850    -0.384068968022    -0.086961103163
    H           -1.992747835615     0.875267702385    -0.498883095148
    H           -1.426780173377     2.437305062311     0.084962038754
    H           -1.831554279375     1.155256650136     1.226781188956
    C            1.751373686195    -0.725378987575    -0.030153854412
    O           -0.558850097002    -1.213983580421    -0.319448595268
    H            2.007115025020    -1.020340409175     0.982987952837
    H            1.939878651352    -1.564595696129    -0.684283020592
    H            2.384439368729     0.107542139606    -0.314423492484

  Mulliken Charges: (a.u.)
   Center  Symbol    Alpha    Beta     Spin     Total
       1     H     0.31021  0.31021  0.00000  0.37958
       2     N     3.89199  3.89199  0.00000 -0.78398
       3     C     3.13728  3.13728  0.00000 -0.27457
       4     C     2.63038  2.63038  0.00000  0.73925
       5     H     0.39432  0.39432  0.00000  0.21137
       6     H     0.41710  0.41710  0.00000  0.16581
       7     H     0.41407  0.41407  0.00000  0.17187
       8     C     3.29239  3.29239  0.00000 -0.58479
       9     O     4.30263  4.30263  0.00000 -0.60526
      10     H     0.40135  0.40135  0.00000  0.19729
      11     H     0.39334  0.39334  0.00000  0.21332
      12     H     0.41494  0.41494  0.00000  0.17012

   Total alpha = 20.00000, Total beta = 20.00000, Total charge = -0.00000
