  ==> Input File <==

--------------------------------------------------------------------------
set {
	reference rhf
	basis 6-31G*
}

set_num_threads( 1 )
memory 2 gb

molecule MOL {
0 1

H	 -5.079213	 -1.222041	 3.688881
O	 -4.741771	 -1.348332	 4.563670
C	 -3.837093	 -2.423296	 4.571659
C	 -2.506566	 -2.094188	 3.903741
H	 -3.673262	 -2.662330	 5.614585
H	 -4.283740	 -3.300710	 4.105365
C	 -2.620097	 -1.785948	 2.408760
H	 -2.062750	 -1.246050	 4.418575
H	 -1.836110	 -2.939659	 4.048775
C	 -1.261854	 -1.513000	 1.756462
H	 -3.268770	 -0.925548	 2.269827
H	 -3.097904	 -2.624227	 1.901484
C	 -1.309753	 -1.282496	 0.241564
H	 -0.800467	 -0.652164	 2.237014
H	 -0.606272	 -2.358165	 1.955482
C	 -2.037799	 -0.007733	 -0.193645
H	 -0.288077	 -1.242345	 -0.130435
H	 -1.771951	 -2.143703	 -0.238574
C	 -3.489788	 0.042957	 0.286558
H	 -2.017067	 0.064384	 -1.280144
H	 -1.513726	 0.868678	 0.179924
C	 -4.216917	 1.317354	 -0.141063
H	 -4.025645	 -0.823308	 -0.095450
H	 -3.513059	 -0.038752	 1.371301
H	 -4.239342	 1.411634	 -1.223113
H	 -5.243387	 1.322503	 0.212445
H	 -3.726170	 2.201406	 0.256408

	symmetry c1
}
set optking {
	frozen_dihedral = ("
		14 10 7 4,
		14 10 13 16,
		10 7 4 8,
		8 4 3 2,
		20 16 19 22,
		4 3 2 1
	")
}

ee = energy('scf')
oeprop('DIPOLE', 'QUADRUPOLE', 'MULLIKEN_CHARGES')
f=open( 'psi4out.xyz', 'w' )
f.write( "27  " )
f.write( str(ee) + "\n" )
f.write( MOL.save_string_xyz() )
f.close()
--------------------------------------------------------------------------

    Molecular point group: c1

    Geometry (in Angstrom), charge = 0, multiplicity = 1:

       Center              X                  Y                   Z               Mass
    ------------   -----------------  -----------------  -----------------  -----------------
           H         -2.138830074251    -0.215702109224     1.717666498037     1.007825032070
           O         -1.801388074251    -0.341993109224     2.592455498037    15.994914619560
           C         -0.896710074251    -1.416957109224     2.600444498037    12.000000000000
           C          0.433816925749    -1.087849109224     1.932526498037    12.000000000000
           H         -0.732879074251    -1.655991109224     3.643370498037     1.007825032070
           H         -1.343357074251    -2.294371109224     2.134150498037     1.007825032070
           C          0.320285925749    -0.779609109224     0.437545498037    12.000000000000
           H          0.877632925749    -0.239711109224     2.447360498037     1.007825032070
           H          1.104272925749    -1.933320109224     2.077560498037     1.007825032070
           C          1.678528925749    -0.506661109224    -0.214752501963    12.000000000000
           H         -0.328387074251     0.080790890776     0.298612498037     1.007825032070
           H         -0.157521074251    -1.617888109224    -0.069730501963     1.007825032070
           C          1.630629925749    -0.276157109224    -1.729650501963    12.000000000000
           H          2.139915925749     0.354174890776     0.265799498037     1.007825032070
           H          2.334110925749    -1.351826109224    -0.015732501963     1.007825032070
           C          0.902583925749     0.998605890776    -2.164859501963    12.000000000000
           H          2.652305925749    -0.236006109224    -2.101649501963     1.007825032070
           H          1.168431925749    -1.137364109224    -2.209788501963     1.007825032070
           C         -0.549405074251     1.049295890776    -1.684656501963    12.000000000000
           H          0.923315925749     1.070722890776    -3.251358501963     1.007825032070
           H          1.426656925749     1.875016890776    -1.791290501963     1.007825032070
           C         -1.276534074251     2.323692890776    -2.112277501963    12.000000000000
           H         -1.085262074251     0.183030890776    -2.066664501963     1.007825032070
           H         -0.572676074251     0.967586890776    -0.599913501963     1.007825032070
           H         -1.298959074251     2.417972890776    -3.194327501963     1.007825032070
           H         -2.303004074251     2.328841890776    -1.758769501963     1.007825032070
           H         -0.785787074251     3.207744890776    -1.714806501963     1.007825032070

  Charge       = 0
  Multiplicity = 1
  Basis Set: 6-31G*
  Basis Set:

    Orbital Energies (a.u.)
    -----------------------

    Doubly Occupied:

       1A    -20.552914     2A    -11.266626     3A    -11.217859
       4A    -11.216474     5A    -11.215452     6A    -11.213865
       7A    -11.213162     8A    -11.212411     9A    -11.208714
      10A     -1.359461    11A     -1.101402    12A     -1.056946
      13A     -1.010788    14A     -0.951893    15A     -0.892740
      16A     -0.834061    17A     -0.787494    18A     -0.781757
      19A     -0.694133    20A     -0.671101    21A     -0.625697
      22A     -0.613790    23A     -0.602281    24A     -0.587430
      25A     -0.577901    26A     -0.566634    27A     -0.539174
      28A     -0.521758    29A     -0.509439    30A     -0.506764
      31A     -0.497161    32A     -0.475317    33A     -0.462152
      34A     -0.459356    35A     -0.445979    36A     -0.425779
      37A     -0.418291

  @DF-RHF Final Energy:  -388.25258798743585

   => Energetics <=

    Nuclear Repulsion Energy =            480.9038027850648405
    One-Electron Energy =               -1479.7250227545196140
    Two-Electron Energy =                 610.5686319820192693
    DFT Exchange-Correlation Energy =       0.0000000000000000
    Empirical Dispersion Energy =           0.0000000000000000
    PCM Polarization Energy =               0.0000000000000000
    EFP Energy =                            0.0000000000000000
    Total Energy =                       -388.2525879874355041

  Mulliken Charges: (a.u.)
   Center  Symbol    Alpha    Beta     Spin     Total
       1     H     0.27961  0.27961  0.00000  0.44078
       2     O     4.37072  4.37072  0.00000 -0.74143
       3     C     2.99753  2.99753  0.00000  0.00495
       4     C     3.15872  3.15872  0.00000 -0.31743
       5     H     0.41440  0.41440  0.00000  0.17121
       6     H     0.43205  0.43205  0.00000  0.13591
       7     C     3.16092  3.16092  0.00000 -0.32185
       8     H     0.41638  0.41638  0.00000  0.16724
       9     H     0.42524  0.42524  0.00000  0.14953
      10     C     3.15383  3.15383  0.00000 -0.30766
      11     H     0.42704  0.42704  0.00000  0.14592
      12     H     0.42542  0.42542  0.00000  0.14916
      13     C     3.15604  3.15604  0.00000 -0.31208
      14     H     0.42184  0.42184  0.00000  0.15631
      15     H     0.41983  0.41983  0.00000  0.16035
      16     C     3.14980  3.14980  0.00000 -0.29961
      17     H     0.41946  0.41946  0.00000  0.16109
      18     H     0.42406  0.42406  0.00000  0.15188
      19     C     3.15472  3.15472  0.00000 -0.30944
      20     H     0.42097  0.42097  0.00000  0.15806
      21     H     0.42321  0.42321  0.00000  0.15358
      22     C     3.23621  3.23621  0.00000 -0.47242
      23     H     0.42457  0.42457  0.00000  0.15085
      24     H     0.42227  0.42227  0.00000  0.15545
      25     H     0.42229  0.42229  0.00000  0.15542
      26     H     0.42135  0.42135  0.00000  0.15729
      27     H     0.42153  0.42153  0.00000  0.15694

   Total alpha = 37.00000, Total beta = 37.00000, Total charge = -0.00000
