                              Psi4 1.0.54 Driver

  ==> Input File <==

--------------------------------------------------------------------------
set {
	reference rhf
	basis cc-pvtz
}

set_num_threads( 4 )
memory 2 gb

molecule MOL {
0 1

H	 -1.002720	 0.168103	 -2.326835
C	 -0.922339	 -0.653954	 -1.619272
O	 -1.401606	 -0.295183	 -0.366624
H	 -1.518856	 -1.480301	 -1.977330
H	 0.118842	 -0.968280	 -1.574272
C	 -0.718530	 0.758693	 0.228682
C	 0.718529	 0.758687	 -0.228709
H	 -1.176498	 1.708665	 -0.046615
H	 -0.748705	 0.673525	 1.312779
O	 1.401606	 -0.295166	 0.366636
H	 0.748705	 0.673477	 -1.312803
H	 1.176496	 1.708671	 0.046552
C	 2.714315	 -0.441627	 -0.061017
H	 2.765292	 -0.641548	 -1.128869
H	 3.305661	 0.447341	 0.150952
H	 3.143725	 -1.278506	 0.470147

	symmetry c1
}
set optking {
	frozen_dihedral = ("
		2 3 6 7
	")
}

ee,wfn = optimize('scf', return_wfn=True)
oeprop( wfn, 'DIPOLE', 'QUADRUPOLE', 'MULLIKEN_CHARGES')
f=open( 'psi4out.xyz', 'w' )
f.write( "16  " )
f.write( str(ee) + "\n" )
f.write( MOL.save_string_xyz() )
f.close()
--------------------------------------------------------------------------

    Molecular point group: c1
  Charge       = 0
  Multiplicity = 1
  Basis Set: CC-PVTZ
  Basis Set:
  @DF-RHF Final Energy:  -307.07895633316582
    Total Energy =                       -307.0789563331657632
    Molecular point group: c1
  Basis Set: CC-PVTZ
  Basis Set:
  Basis Set: CC-PVTZ
  Basis Set:
  @DF-RHF Final Energy:  -307.05914125894668
    Total Energy =                       -307.0591412589467382
  Basis Set: CC-PVTZ
  Basis Set:
  Basis Set: CC-PVTZ
  Basis Set:
  @DF-RHF Final Energy:  -307.08901252592244
    Total Energy =                       -307.0890125259224988
  Basis Set: CC-PVTZ
  Basis Set:
  Basis Set: CC-PVTZ
  Basis Set:
  @DF-RHF Final Energy:  -307.09108515340154
    Total Energy =                       -307.0910851534013659
  Basis Set: CC-PVTZ
  Basis Set:
  Basis Set: CC-PVTZ
  Basis Set:
  @DF-RHF Final Energy:  -307.09150127664770
    Total Energy =                       -307.0915012766478185
  Basis Set: CC-PVTZ
  Basis Set:
  Basis Set: CC-PVTZ
  Basis Set:
  @DF-RHF Final Energy:  -307.09154903697731
    Total Energy =                       -307.0915490369773693
  Basis Set: CC-PVTZ
  Basis Set:
  Basis Set: CC-PVTZ
  Basis Set:
  @DF-RHF Final Energy:  -307.09155683202744
    Total Energy =                       -307.0915568320270950
  Basis Set: CC-PVTZ
  Basis Set:
  Charge       = 0
  Multiplicity = 1
  Basis Set: CC-PVTZ
  Basis Set:

    Orbital Energies (a.u.)
    -----------------------

    Doubly Occupied:

       1A    -20.555951     2A    -20.542590     3A    -11.273756
       4A    -11.268411     5A    -11.267434     6A    -11.257414
       7A     -1.394314     8A     -1.370005     9A     -1.030463
      10A     -0.951254    11A     -0.900789    12A     -0.810799
      13A     -0.695283    14A     -0.683916    15A     -0.660193
      16A     -0.638782    17A     -0.629454    18A     -0.595171
      19A     -0.560111    20A     -0.537484    21A     -0.519159
      22A     -0.494526    23A     -0.449349    24A     -0.426868
      25A     -0.410321

  @DF-RHF Final Energy:  -307.09155723094256

   => Energetics <=

    Nuclear Repulsion Energy =            264.5088269426691454
    One-Electron Energy =                -943.3531750126564930
    Two-Electron Energy =                 371.7527908390446214
    DFT Exchange-Correlation Energy =       0.0000000000000000
    Empirical Dispersion Energy =           0.0000000000000000
    PCM Polarization Energy =               0.0000000000000000
    EFP Energy =                            0.0000000000000000
    Total Energy =                       -307.0915572309426693
    Molecular point group: c1
  Basis Set: CC-PVTZ
  Basis Set:

  -Total Gradient:
     Atom            X                  Y                   Z
    ------   -----------------  -----------------  -----------------
       1        0.000006715171    -0.000007074525     0.000016634309
       2        0.002581696037    -0.001635105967     0.001589460715
       3       -0.004341607858     0.003202794690    -0.003678621433
       4        0.000022338712     0.000007683744     0.000004985012
       5       -0.000051988500     0.000004810835     0.000017479257
       6        0.002854393549    -0.003202422566     0.004508784506
       7       -0.001014367498     0.001595235278    -0.002461641532
       8        0.000002798662     0.000014045401     0.000002522706
       9       -0.000008155004     0.000010573252     0.000019643148
      10       -0.000027651215     0.000010670170    -0.000007569996
      11       -0.000006342267    -0.000001164084    -0.000006486724
      12       -0.000001022803    -0.000001792621    -0.000001419945
      13       -0.000013843960     0.000002948538     0.000000071231
      14        0.000002981971     0.000000046815    -0.000008159331
      15       -0.000004238979     0.000007404151     0.000003705999
      16       -0.000001706016    -0.000008653110     0.000000612080

  **** Optimization is complete! (in 8 steps) ****
    Final optimized geometry and variables:
    Molecular point group: c1

    Geometry (in Angstrom), charge = 0, multiplicity = 1:

    H           -1.214952739211    -0.367498566620    -2.189940456959
    C           -1.017933329479    -1.118240391068    -1.426701875077
    O           -1.586810755079    -0.782455765877    -0.202606192861
    H           -1.478145617665    -2.044200622263    -1.739846604101
    H            0.051547478712    -1.271303609765    -1.349520258395
    C           -1.226007355792     0.419160354059     0.409488211837
    C            0.169621310052     0.944311548778     0.145986196557
    H           -1.918490133666     1.202781239445     0.101248189280
    H           -1.348674287196     0.268676194269     1.473358073535
    O            1.122579727906     0.066884179157     0.652315472895
    H            0.334369482088     1.113578623836    -0.915679945619
    H            0.245224277878     1.913364129802     0.638664624628
    C            2.436308203901     0.490171798557     0.491841579188
    H            2.690693103170     0.612948769830    -0.558902543867
    H            2.614713144178     1.434979803837     1.000759875309
    H            3.081259608553    -0.263006833097     0.919929193485

  Mulliken Charges: (a.u.)
   Center  Symbol    Alpha    Beta     Spin     Total
       1     H     0.47535  0.47535  0.00000  0.04930
       2     C     3.03570  3.03570  0.00000 -0.07141
       3     O     4.17770  4.17770  0.00000 -0.35541
       4     H     0.44282  0.44282  0.00000  0.11436
       5     H     0.46396  0.46396  0.00000  0.07209
       6     C     2.96075  2.96075  0.00000  0.07850
       7     C     3.00043  3.00043  0.00000 -0.00086
       8     H     0.47262  0.47262  0.00000  0.05475
       9     H     0.45567  0.45567  0.00000  0.08865
      10     O     4.17351  4.17351  0.00000 -0.34702
      11     H     0.46434  0.46434  0.00000  0.07131
      12     H     0.45678  0.45678  0.00000  0.08644
      13     C     3.03736  3.03736  0.00000 -0.07473
      14     H     0.47097  0.47097  0.00000  0.05806
      15     H     0.46753  0.46753  0.00000  0.06495
      16     H     0.44450  0.44450  0.00000  0.11100

   Total alpha = 25.00000, Total beta = 25.00000, Total charge =  0.00000

*** Psi4 exiting successfully. Buy a developer a beer!
