                              Psi4 1.0.54 Driver

  ==> Input File <==

--------------------------------------------------------------------------
set {
	reference rhf
	basis cc-pvtz
}

set_num_threads( 4 )
memory 2 gb

molecule MOL {
0 1

H	 -2.458800	 -0.708569	 -0.680815
N	 -1.731843	 -0.025131	 -0.685170
C	 -0.561396	 -0.500007	 0.035200
H	 -2.100827	 0.800296	 -0.261075
C	 0.575129	 0.507849	 -0.048832
H	 -0.245736	 -1.432143	 -0.421636
H	 -0.767513	 -0.719771	 1.083835
C	 1.951750	 -0.141983	 0.035101
H	 0.478254	 1.061643	 -0.975981
H	 0.467676	 1.231891	 0.755499
H	 2.101550	 -0.848142	 -0.774949
H	 2.738260	 0.600794	 -0.026526
H	 2.078939	 -0.679792	 0.968824

	symmetry c1
}
set optking {
	frozen_dihedral = ("
		6 3 5 9
	")
}

ee,wfn = optimize('scf', return_wfn=True)
oeprop( wfn, 'DIPOLE', 'QUADRUPOLE', 'MULLIKEN_CHARGES')
f=open( 'psi4out.xyz', 'w' )
f.write( "13  " )
f.write( str(ee) + "\n" )
f.write( MOL.save_string_xyz() )
f.close()
--------------------------------------------------------------------------

    Molecular point group: c1
  Charge       = 0
  Multiplicity = 1
  Basis Set: CC-PVTZ
  Basis Set:
  @DF-RHF Final Energy:  -173.34978930113576
    Total Energy =                       -173.3497893011357576
    Molecular point group: c1
  Basis Set: CC-PVTZ
  Basis Set:
  Basis Set: CC-PVTZ
  Basis Set:
  @DF-RHF Final Energy:  -173.35005174561422
    Total Energy =                       -173.3500517456142234
  Basis Set: CC-PVTZ
  Basis Set:
  Basis Set: CC-PVTZ
  Basis Set:
  @DF-RHF Final Energy:  -173.35011662449563
    Total Energy =                       -173.3501166244957687
  Basis Set: CC-PVTZ
  Basis Set:
  Basis Set: CC-PVTZ
  Basis Set:
  @DF-RHF Final Energy:  -173.35011936030253
    Total Energy =                       -173.3501193603025285
  Basis Set: CC-PVTZ
  Basis Set:
  Charge       = 0
  Multiplicity = 1
  Basis Set: CC-PVTZ
  Basis Set:

    Orbital Energies (a.u.)
    -----------------------

    Doubly Occupied:

       1A    -15.527600     2A    -11.238257     3A    -11.210367
       4A    -11.207379     5A     -1.178713     6A     -1.035843
       7A     -0.899360     8A     -0.801502     9A     -0.655002
      10A     -0.640281    11A     -0.600364    12A     -0.566126
      13A     -0.534002    14A     -0.492650    15A     -0.475209
      16A     -0.468298    17A     -0.383852

  @DF-RHF Final Energy:  -173.35011973072523

   => Energetics <=

    Nuclear Repulsion Energy =            131.8869993070067608
    One-Electron Energy =                -494.6446283680764964
    Two-Electron Energy =                 189.4075093303445669
    DFT Exchange-Correlation Energy =       0.0000000000000000
    Empirical Dispersion Energy =           0.0000000000000000
    PCM Polarization Energy =               0.0000000000000000
    EFP Energy =                            0.0000000000000000
    Total Energy =                       -173.3501197307251687
    Molecular point group: c1
  Basis Set: CC-PVTZ
  Basis Set:

  -Total Gradient:
     Atom            X                  Y                   Z
    ------   -----------------  -----------------  -----------------
       1       -0.000028708786    -0.000013276662    -0.000015120873
       2        0.000053634243    -0.000033840531     0.000014785650
       3       -0.002534176877     0.002564461674    -0.004620379409
       4       -0.000011554484     0.000026324750     0.000014639314
       5        0.003616340101    -0.004284443445    -0.001634146335
       6        0.001588078965    -0.001457859231     0.004088990645
       7       -0.000017175859    -0.000002689293     0.000036501258
       8       -0.000015026571     0.000028017898    -0.000008811412
       9       -0.002626192605     0.003162560050     0.002101170393
      10       -0.000006918441     0.000013473474     0.000014214690
      11       -0.000004723982     0.000011397754     0.000010998251
      12       -0.000002725186    -0.000012206830     0.000000459542
      13       -0.000010850517    -0.000001919610    -0.000003301713

  **** Optimization is complete! (in 5 steps) ****
    Final optimized geometry and variables:
    Molecular point group: c1

    Geometry (in Angstrom), charge = 0, multiplicity = 1:

    H           -2.521595502145    -0.644565937071    -0.436797181752
    N           -1.778262889173     0.017959598876    -0.505700207244
    C           -0.587843012297    -0.462135021711     0.175767295710
    H           -2.104771817554     0.866781387848    -0.092017920448
    C            0.555085405327     0.547716418897     0.089539120240
    H           -0.279111590750    -1.400294569120    -0.273071495574
    H           -0.768615710158    -0.692472483460     1.227364886109
    C            1.933369725656    -0.086702417795     0.221620902092
    H            0.462333266515     1.096573680537    -0.841005688225
    H            0.427999788923     1.289196604799     0.875314587905
    H            2.127163750171    -0.771794298189    -0.596414170713
    H            2.713226320517     0.665623996193     0.217029596775
    H            2.020916054475    -0.645237538655     1.148213038811

  Mulliken Charges: (a.u.)
   Center  Symbol    Alpha    Beta     Spin     Total
       1     H     0.43040  0.43040  0.00000  0.13920
       2     N     3.68684  3.68684  0.00000 -0.37368
       3     C     3.02152  3.02152  0.00000 -0.04304
       4     H     0.43088  0.43088  0.00000  0.13824
       5     C     3.08362  3.08362  0.00000 -0.16724
       6     H     0.46046  0.46046  0.00000  0.07909
       7     H     0.46931  0.46931  0.00000  0.06137
       8     C     3.15002  3.15002  0.00000 -0.30004
       9     H     0.44952  0.44952  0.00000  0.10096
      10     H     0.45850  0.45850  0.00000  0.08299
      11     H     0.45366  0.45366  0.00000  0.09267
      12     H     0.44887  0.44887  0.00000  0.10225
      13     H     0.45639  0.45639  0.00000  0.08721

   Total alpha = 17.00000, Total beta = 17.00000, Total charge =  0.00000

*** Psi4 exiting successfully. Buy a developer a beer!
