  ==> Input File <==

--------------------------------------------------------------------------
set {
	reference rhf
	basis 6-31G*
}

set_num_threads( 4 )
memory 2 gb

molecule MOL {
0 1

H	 -2.098997	 -0.674324	 -0.616650
O	 -2.035884	 -0.060112	 0.102722
C	 -0.955155	 0.788182	 -0.092531
C	 0.353668	 0.040312	 -0.004810
H	 -0.985057	 1.290372	 -1.054184
H	 -0.974469	 1.533190	 0.688632
F	 0.361538	 -0.765910	 1.050896
F	 0.532815	 -0.706942	 -1.082176
F	 1.389339	 0.846984	 0.105722

	symmetry c1
}
set optking {
	frozen_dihedral = ("
		7 4 3 5
	")
}

ee = optimize('scf')
oeprop('DIPOLE', 'QUADRUPOLE', 'MULLIKEN_CHARGES')
f=open( 'psi4out.xyz', 'w' )
f.write( "9  " )
f.write( str(ee) + "\n" )
f.write( MOL.save_string_xyz() )
f.close()
--------------------------------------------------------------------------

    Molecular point group: c1
  Charge       = 0
  Multiplicity = 1
  Basis Set: 6-31G*
  Basis Set:
  @DF-RHF Final Energy:  -450.66108671284286
    Total Energy =                       -450.6610867128430300
    Molecular point group: c1
  Basis Set: 6-31G*
  Basis Set:
  Basis Set: 6-31G*
  Basis Set:
  @DF-RHF Final Energy:  -450.66157811125339
    Total Energy =                       -450.6615781112533909
  Basis Set: 6-31G*
  Basis Set:
  Basis Set: 6-31G*
  Basis Set:
  @DF-RHF Final Energy:  -450.66166153631974
    Total Energy =                       -450.6616615363199685
  Basis Set: 6-31G*
  Basis Set:
  Basis Set: 6-31G*
  Basis Set:
  @DF-RHF Final Energy:  -450.66166866074457
    Total Energy =                       -450.6616686607447946
  Basis Set: 6-31G*
  Basis Set:
  Charge       = 0
  Multiplicity = 1
  Basis Set: 6-31G*
  Basis Set:

    Orbital Energies (a.u.)
    -----------------------

    Doubly Occupied:

       1A    -26.343932     2A    -26.340784     3A    -26.338618
       4A    -20.590021     5A    -11.499554     6A    -11.309962
       7A     -1.739399     8A     -1.639106     9A     -1.634772
      10A     -1.401744    11A     -1.047207    12A     -0.923111
      13A     -0.829156    14A     -0.828435    15A     -0.803732
      16A     -0.728436    17A     -0.711552    18A     -0.695859
      19A     -0.664013    20A     -0.657562    21A     -0.641595
      22A     -0.628726    23A     -0.612574    24A     -0.531210
      25A     -0.480180

  @DF-RHF Final Energy:  -450.66166963321137

   => Energetics <=

    Nuclear Repulsion Energy =            276.9692599646089661
    One-Electron Energy =               -1176.0193781451625910
    Two-Electron Energy =                 448.3884485473423069
    DFT Exchange-Correlation Energy =       0.0000000000000000
    Empirical Dispersion Energy =           0.0000000000000000
    PCM Polarization Energy =               0.0000000000000000
    EFP Energy =                            0.0000000000000000
    Total Energy =                       -450.6616696332113747
    Molecular point group: c1
  Basis Set: 6-31G*
  Basis Set:

  -Total Gradient:
     Atom            X                  Y                   Z
    ------   -----------------  -----------------  -----------------
       1       -0.000006925831    -0.000022436118    -0.000003154153
       2       -0.000021101017     0.000015071410    -0.000023972760
       3        0.001748826479     0.003177920794     0.001366379877
       4        0.001452035789     0.002730240078     0.002246657061
       5       -0.001804582266    -0.003342817321    -0.001611297890
       6        0.000012553202     0.000003487709    -0.000004283354
       7       -0.001381211611    -0.002575034163    -0.001901538512
       8        0.000007416819     0.000013579265    -0.000048625108
       9       -0.000007011557    -0.000000011652    -0.000020165165

  **** Optimization is complete! (in 5 steps) ****
    Final optimized geometry and variables:
    Molecular point group: c1

    Geometry (in Angstrom), charge = 0, multiplicity = 1:

    H           -2.114187825405    -0.636772567688    -0.660977583737
    O           -2.038129240934    -0.051477127977     0.081005348400
    C           -0.950839222059     0.796655951768    -0.090217314127
    C            0.355771155234     0.041115639266     0.003329489867
    H           -0.975724253502     1.284531061090    -1.058793921978
    H           -0.982760758988     1.538007506208     0.693277262681
    F            0.402703235148    -0.757739916533     1.048368852494
    F            0.526970150320    -0.720852442469    -1.074035674704
    F            1.378155388918     0.876817758295     0.066802218903

  Mulliken Charges: (a.u.)
   Center  Symbol    Alpha    Beta     Spin     Total
       1     H     0.27331  0.27331  0.00000  0.45338
       2     O     4.36108  4.36108  0.00000 -0.72217
       3     C     3.05342  3.05342  0.00000 -0.10685
       4     C     2.46595  2.46595  0.00000  1.06810
       5     H     0.40899  0.40899  0.00000  0.18202
       6     H     0.39541  0.39541  0.00000  0.20918
       7     F     4.67401  4.67401  0.00000 -0.34802
       8     F     4.68698  4.68698  0.00000 -0.37396
       9     F     4.68084  4.68084  0.00000 -0.36169

   Total alpha = 25.00000, Total beta = 25.00000, Total charge = -0.00000
