                              Psi4 1.0.54 Driver

  ==> Input File <==

--------------------------------------------------------------------------
set {
	reference rhf
	basis cc-pvtz
}

set_num_threads( 4 )
memory 2 gb

molecule MOL {
0 1

H	 -1.835082	 1.385983	 0.000069
C	 -1.300516	 0.441153	 -0.000028
O	 -0.006604	 0.654344	 -0.000106
O	 -1.828920	 -0.612308	 0.000113
C	 0.515264	 1.562139	 0.966013
C	 2.010203	 1.639080	 0.766165
H	 0.262556	 1.204149	 1.953910
H	 0.044354	 2.525365	 0.830361
H	 2.467707	 0.667257	 0.901153
H	 2.439408	 2.323729	 1.487894
H	 2.248411	 1.995092	 -0.228059

	symmetry c1
}
set optking {
	frozen_dihedral = ("
		5 3 2 4
	")
}

ee,wfn = optimize('scf', return_wfn=True)
oeprop( wfn, 'DIPOLE', 'QUADRUPOLE', 'MULLIKEN_CHARGES')
f=open( 'psi4out.xyz', 'w' )
f.write( "11  " )
f.write( str(ee) + "\n" )
f.write( MOL.save_string_xyz() )
f.close()
--------------------------------------------------------------------------

    Molecular point group: c1
  Charge       = 0
  Multiplicity = 1
  Basis Set: CC-PVTZ
  Basis Set:
  @DF-RHF Final Energy:  -266.91655679048984
    Total Energy =                       -266.9165567904897785
    Molecular point group: c1
  Basis Set: CC-PVTZ
  Basis Set:
  Basis Set: CC-PVTZ
  Basis Set:
  @DF-RHF Final Energy:  -266.91741569607245
    Total Energy =                       -266.9174156960726805
  Basis Set: CC-PVTZ
  Basis Set:
  Basis Set: CC-PVTZ
  Basis Set:
  @DF-RHF Final Energy:  -266.91763729599791
    Total Energy =                       -266.9176372959979631
  Basis Set: CC-PVTZ
  Basis Set:
  Basis Set: CC-PVTZ
  Basis Set:
  @DF-RHF Final Energy:  -266.91788426827293
    Total Energy =                       -266.9178842682729851
  Basis Set: CC-PVTZ
  Basis Set:
  Basis Set: CC-PVTZ
  Basis Set:
  @DF-RHF Final Energy:  -266.91789749420900
    Total Energy =                       -266.9178974942090576
  Basis Set: CC-PVTZ
  Basis Set:
  Basis Set: CC-PVTZ
  Basis Set:
  @DF-RHF Final Energy:  -266.91789900783954
    Total Energy =                       -266.9178990078396509
  Basis Set: CC-PVTZ
  Basis Set:
  Charge       = 0
  Multiplicity = 1
  Basis Set: CC-PVTZ
  Basis Set:

    Orbital Energies (a.u.)
    -----------------------

    Doubly Occupied:

       1A    -20.595981     2A    -20.553435     3A    -11.373046
       4A    -11.303509     5A    -11.230372     6A     -1.473467
       7A     -1.384965     8A     -1.053505     9A     -0.888383
      10A     -0.842262    11A     -0.743432    12A     -0.694077
      13A     -0.661561    14A     -0.628506    15A     -0.569207
      16A     -0.550399    17A     -0.539231    18A     -0.512700
      19A     -0.466519    20A     -0.455605

  @DF-RHF Final Energy:  -266.91789907234067

   => Energetics <=

    Nuclear Repulsion Energy =            176.8230622276733186
    One-Electron Energy =                -714.4416005806987187
    Two-Electron Energy =                 270.7006392806846407
    DFT Exchange-Correlation Energy =       0.0000000000000000
    Empirical Dispersion Energy =           0.0000000000000000
    PCM Polarization Energy =               0.0000000000000000
    EFP Energy =                            0.0000000000000000
    Total Energy =                       -266.9178990723407878
    Molecular point group: c1
  Basis Set: CC-PVTZ
  Basis Set:

  -Total Gradient:
     Atom            X                  Y                   Z
    ------   -----------------  -----------------  -----------------
       1       -0.000029338484     0.000033877746     0.000006471065
       2        0.000593458168    -0.002690229785    -0.007266150338
       3       -0.000135744887     0.005064679760    -0.002059484306
       4       -0.000427831527     0.000744925508     0.005953610128
       5       -0.000004698593    -0.003154869842     0.003361524128
       6        0.000008085117     0.000004072299     0.000010468082
       7       -0.000005385899    -0.000008595740    -0.000005515981
       8       -0.000003838881     0.000007514593    -0.000002563457
       9        0.000005154884     0.000001564594    -0.000001947509
      10        0.000004020474    -0.000001618815     0.000000417646
      11       -0.000003880366    -0.000001320315     0.000003170541

  **** Optimization is complete! (in 7 steps) ****
    Final optimized geometry and variables:
    Molecular point group: c1

    Geometry (in Angstrom), charge = 0, multiplicity = 1:

    H           -1.666127695399     0.714089503385    -0.509990133935
    C           -1.183450222736    -0.255215956767    -0.374048051082
    O            0.139255785655    -0.177591169009    -0.291834657954
    O           -1.784708380828    -1.257381396653    -0.296121519890
    C            0.672024230191     0.778937198028     0.607512582993
    C            2.153844517473     0.908742596988     0.346237160760
    H            0.484761277779     0.444402691219     1.620810258821
    H            0.170794528194     1.732251250724     0.466714179560
    H            2.646223143894    -0.045399916297     0.479280889007
    H            2.588413989072     1.621718615570     1.036661326974
    H            2.334465514149     1.250892288776    -0.664594051040

  Mulliken Charges: (a.u.)
   Center  Symbol    Alpha    Beta     Spin     Total
       1     H     0.47436  0.47436  0.00000  0.05128
       2     C     2.84121  2.84121  0.00000  0.31758
       3     O     4.13963  4.13963  0.00000 -0.27927
       4     O     4.16680  4.16680  0.00000 -0.33360
       5     C     2.97400  2.97400  0.00000  0.05199
       6     C     3.13292  3.13292  0.00000 -0.26584
       7     H     0.45658  0.45658  0.00000  0.08683
       8     H     0.46460  0.46460  0.00000  0.07080
       9     H     0.44501  0.44501  0.00000  0.10998
      10     H     0.45556  0.45556  0.00000  0.08888
      11     H     0.44932  0.44932  0.00000  0.10136

   Total alpha = 20.00000, Total beta = 20.00000, Total charge =  0.00000

*** Psi4 exiting successfully. Buy a developer a beer!
