  ==> Input File <==

--------------------------------------------------------------------------
set {
	reference rhf
	basis 6-31G*
}

set_num_threads( 4 )
memory 2 gb

molecule MOL {
0 1

H	 -3.420663	 1.227371	 -1.044276
O	 -3.452007	 0.283848	 -0.965577
C	 -3.181085	 -0.079926	 0.364119
C	 -1.765924	 0.277073	 0.805136
H	 -3.327791	 -1.152017	 0.410903
H	 -3.905698	 0.375695	 1.036898
C	 -1.713167	 1.415463	 1.824843
H	 -1.289297	 -0.611118	 1.220955
H	 -1.189218	 0.544457	 -0.078683
C	 -0.290498	 1.750501	 2.277548
H	 -2.319157	 1.151091	 2.686001
H	 -2.171542	 2.302121	 1.389960
C	 -0.245281	 2.894835	 3.293688
H	 0.164839	 0.858782	 2.701724
H	 0.311993	 2.017889	 1.410304
C	 1.165141	 3.326895	 3.711049
H	 -0.810183	 2.611000	 4.180266
H	 -0.758697	 3.755910	 2.870875
C	 1.949709	 2.269536	 4.490055
H	 1.083891	 4.221490	 4.323737
H	 1.729138	 3.616153	 2.826493
H	 1.403693	 1.951654	 5.374338
H	 2.906843	 2.663542	 4.817912
H	 2.149943	 1.387952	 3.890156

	symmetry c1
}
set optking {
	frozen_dihedral = ("
		7 4 3 2
	")
}

ee = optimize('scf')
oeprop('DIPOLE', 'QUADRUPOLE', 'MULLIKEN_CHARGES')
f=open( 'psi4out.xyz', 'w' )
f.write( "24  " )
f.write( str(ee) + "\n" )
f.write( MOL.save_string_xyz() )
f.close()
--------------------------------------------------------------------------

    Molecular point group: c1
  Charge       = 0
  Multiplicity = 1
  Basis Set: 6-31G*
  Basis Set:
  @DF-RHF Final Energy:  -349.24139520574136
    Total Energy =                       -349.2413952057413553
    Molecular point group: c1
  Basis Set: 6-31G*
  Basis Set:
  Basis Set: 6-31G*
  Basis Set:
  @DF-RHF Final Energy:  -349.24166285544720
    Total Energy =                       -349.2416628554473164
  Basis Set: 6-31G*
  Basis Set:
  Basis Set: 6-31G*
  Basis Set:
  @DF-RHF Final Energy:  -349.24174708043302
    Total Energy =                       -349.2417470804332424
  Basis Set: 6-31G*
  Basis Set:
  Basis Set: 6-31G*
  Basis Set:
  @DF-RHF Final Energy:  -349.24174264193704
    Total Energy =                       -349.2417426419370372
  Basis Set: 6-31G*
  Basis Set:
  Basis Set: 6-31G*
  Basis Set:
  @DF-RHF Final Energy:  -349.24175077485023
    Total Energy =                       -349.2417507748500611
  Basis Set: 6-31G*
  Basis Set:
  Charge       = 0
  Multiplicity = 1
  Basis Set: 6-31G*
  Basis Set:

    Orbital Energies (a.u.)
    -----------------------

    Doubly Occupied:

       1A    -20.551396     2A    -11.266668     3A    -11.220648
       4A    -11.217128     5A    -11.216706     6A    -11.215853
       7A    -11.215373     8A    -11.209589     9A     -1.357627
      10A     -1.092755    11A     -1.050259    12A     -0.985871
      13A     -0.916347    14A     -0.852775    15A     -0.803171
      16A     -0.780269    17A     -0.687242    18A     -0.657075
      19A     -0.622496    20A     -0.615304    21A     -0.596043
      22A     -0.585681    23A     -0.559121    24A     -0.536915
      25A     -0.534031    26A     -0.507269    27A     -0.492550
      28A     -0.485512    29A     -0.475143    30A     -0.462680
      31A     -0.457315    32A     -0.442391    33A     -0.421935

  @DF-RHF Final Energy:  -349.24175003047867

   => Energetics <=

    Nuclear Repulsion Energy =            381.0398426506790202
    One-Electron Energy =               -1228.3809151971063329
    Two-Electron Energy =                 498.0993225159488702
    DFT Exchange-Correlation Energy =       0.0000000000000000
    Empirical Dispersion Energy =           0.0000000000000000
    PCM Polarization Energy =               0.0000000000000000
    EFP Energy =                            0.0000000000000000
    Total Energy =                       -349.2417500304784426
    Molecular point group: c1
  Basis Set: 6-31G*
  Basis Set:

  -Total Gradient:
     Atom            X                  Y                   Z
    ------   -----------------  -----------------  -----------------
       1        0.000017592840    -0.000048433531     0.000163555789
       2        0.000719867160    -0.002325926549    -0.000622994189
       3       -0.000947072015     0.002655199631     0.001557873068
       4        0.000350546191     0.001269258605    -0.002430647958
       5        0.000041997062    -0.000004931007    -0.000118640399
       6        0.000036677962     0.000036864811    -0.000032200455
       7       -0.000344343196    -0.001521910159     0.001644863991
       8        0.000038038849    -0.000119913646     0.000049350837
       9       -0.000043985264     0.000063369548    -0.000012816629
      10        0.000044650074     0.000033823821    -0.000086714877
      11       -0.000039416209    -0.000031463460    -0.000117148056
      12        0.000070558233    -0.000079968558    -0.000002242905
      13        0.000018094606     0.000028086014    -0.000031347107
      14        0.000045770693    -0.000013034581     0.000011134809
      15        0.000021059356     0.000017453879    -0.000006988532
      16       -0.000029716788     0.000034472541     0.000083822390
      17       -0.000019222391     0.000037714018    -0.000014055186
      18        0.000029218017    -0.000002527570    -0.000010116814
      19       -0.000006804930    -0.000005024304    -0.000026193814
      20        0.000024155596    -0.000001878205     0.000030990562
      21       -0.000017095298     0.000015144239     0.000009320184
      22        0.000003884917     0.000011393080    -0.000003669981
      23        0.000012349475    -0.000009201650    -0.000006433994
      24       -0.000026804940    -0.000038566963    -0.000028700734

  **** Optimization is complete! (in 6 steps) ****
    Final optimized geometry and variables:
    Molecular point group: c1

    Geometry (in Angstrom), charge = 0, multiplicity = 1:

    H           -2.417479115753    -0.277616067635    -3.011750880418
    O           -2.448103568220    -1.220217454849    -2.923990027506
    C           -2.215688735177    -1.572553279336    -1.583022056009
    C           -0.794242292826    -1.233590879777    -1.099910469040
    H           -2.381876965762    -2.640479576746    -1.544355253417
    H           -2.958727299879    -1.110370438379    -0.935731695507
    C           -0.738510140778    -0.085291260542    -0.088637887886
    H           -0.345921362473    -2.114786565331    -0.646903141233
    H           -0.189636182583    -1.001470281408    -1.971826958392
    C            0.683966575544     0.262033216178     0.353631521702
    H           -1.333601996050    -0.349621397783     0.783533592709
    H           -1.207507244199     0.800837754347    -0.516385379724
    C            0.729935698051     1.399710050871     1.377287048427
    H            1.151017789576    -0.628938183009     0.765639987121
    H            1.273178967459     0.539893515703    -0.519033365130
    C            2.141234356611     1.835259250800     1.788104534886
    H            0.172933463139     1.107089988132     2.266084526096
    H            0.209740757099     2.261658584836     0.964245445636
    C            2.938648209657     0.772654181097     2.546553731170
    H            2.059712728764     2.721499891721     2.412651932159
    H            2.695469145953     2.139030026372     0.902339782431
    H            2.403110848003     0.441326469136     3.432283081478
    H            3.896758411239     1.167942867028     2.869720166213
    H            3.137671458667    -0.100504749281     1.934161619142

  Mulliken Charges: (a.u.)
   Center  Symbol    Alpha    Beta     Spin     Total
       1     H     0.28394  0.28394  0.00000  0.43211
       2     O     4.36965  4.36965  0.00000 -0.73930
       3     C     2.99567  2.99567  0.00000  0.00865
       4     C     3.17515  3.17515  0.00000 -0.35029
       5     H     0.41416  0.41416  0.00000  0.17169
       6     H     0.42855  0.42855  0.00000  0.14290
       7     C     3.15650  3.15650  0.00000 -0.31299
       8     H     0.41895  0.41895  0.00000  0.16209
       9     H     0.41169  0.41169  0.00000  0.17662
      10     C     3.15377  3.15377  0.00000 -0.30753
      11     H     0.42186  0.42186  0.00000  0.15628
      12     H     0.42825  0.42825  0.00000  0.14351
      13     C     3.15247  3.15247  0.00000 -0.30494
      14     H     0.42054  0.42054  0.00000  0.15892
      15     H     0.42326  0.42326  0.00000  0.15348
      16     C     3.15240  3.15240  0.00000 -0.30480
      17     H     0.42411  0.42411  0.00000  0.15178
      18     H     0.42276  0.42276  0.00000  0.15448
      19     C     3.24137  3.24137  0.00000 -0.48275
      20     H     0.42077  0.42077  0.00000  0.15846
      21     H     0.42317  0.42317  0.00000  0.15367
      22     H     0.42227  0.42227  0.00000  0.15547
      23     H     0.41890  0.41890  0.00000  0.16220
      24     H     0.41985  0.41985  0.00000  0.16031

   Total alpha = 33.00000, Total beta = 33.00000, Total charge =  0.00000
