  ==> Input File <==

--------------------------------------------------------------------------
set {
	reference rhf
	basis cc-pvtz
}

set_num_threads( 4 )
memory 2 gb

molecule MOL {
0 1

H	 -2.123894	 -0.667238	 -0.609809
O	 -2.041679	 -0.058866	 0.103463
C	 -0.959304	 0.780994	 -0.094939
C	 0.354905	 0.037902	 -0.006215
H	 -0.985899	 1.279578	 -1.057596
H	 -0.969809	 1.529522	 0.682889
F	 0.374267	 -0.765612	 1.042489
F	 0.534282	 -0.703796	 -1.079204
F	 1.382367	 0.845958	 0.100277

	symmetry c1
}
set optking {
	frozen_dihedral = ("
		7 4 3 5
	")
}

ee = optimize('scf')
oeprop('DIPOLE', 'QUADRUPOLE', 'MULLIKEN_CHARGES')
f=open( 'psi4out.xyz', 'w' )
f.write( "9  " )
f.write( str(ee) + "\n" )
f.write( MOL.save_string_xyz() )
f.close()
--------------------------------------------------------------------------

    Molecular point group: c1
  Charge       = 0
  Multiplicity = 1
  Basis Set: CC-PVTZ
  Basis Set:
  @DF-RHF Final Energy:  -450.84564277157750
    Total Energy =                       -450.8456427715777863
    Molecular point group: c1
  Basis Set: CC-PVTZ
  Basis Set:
  Basis Set: CC-PVTZ
  Basis Set:
  @DF-RHF Final Energy:  -450.84609507205130
    Total Energy =                       -450.8460950720511846
  Basis Set: CC-PVTZ
  Basis Set:
  Basis Set: CC-PVTZ
  Basis Set:
  @DF-RHF Final Energy:  -450.84617067611629
    Total Energy =                       -450.8461706761162873
  Basis Set: CC-PVTZ
  Basis Set:
  Basis Set: CC-PVTZ
  Basis Set:
  @DF-RHF Final Energy:  -450.84617840717249
    Total Energy =                       -450.8461784071726015
  Basis Set: CC-PVTZ
  Basis Set:
  Basis Set: CC-PVTZ
  Basis Set:
  @DF-RHF Final Energy:  -450.84617972854187
    Total Energy =                       -450.8461797285417560
  Basis Set: CC-PVTZ
  Basis Set:
  Charge       = 0
  Multiplicity = 1
  Basis Set: CC-PVTZ
  Basis Set:

    Orbital Energies (a.u.)
    -----------------------

    Doubly Occupied:

       1A    -26.340052     2A    -26.337041     3A    -26.335243
       4A    -20.583216     5A    -11.493211     6A    -11.310268
       7A     -1.747155     8A     -1.645124     9A     -1.641000
      10A     -1.406453    11A     -1.049616    12A     -0.929300
      13A     -0.836686    14A     -0.836070    15A     -0.809684
      16A     -0.733601    17A     -0.718749    18A     -0.702672
      19A     -0.671188    20A     -0.664672    21A     -0.648462
      22A     -0.632893    23A     -0.617034    24A     -0.534459
      25A     -0.484415

  @DF-RHF Final Energy:  -450.84617979196202

   => Energetics <=

    Nuclear Repulsion Energy =            277.6038676554057361
    One-Electron Energy =               -1177.4835690292870822
    Two-Electron Energy =                 449.0335215819192740
    DFT Exchange-Correlation Energy =       0.0000000000000000
    Empirical Dispersion Energy =           0.0000000000000000
    PCM Polarization Energy =               0.0000000000000000
    EFP Energy =                            0.0000000000000000
    Total Energy =                       -450.8461797919620153
    Molecular point group: c1
  Basis Set: CC-PVTZ
  Basis Set:

  -Total Gradient:
     Atom            X                  Y                   Z
    ------   -----------------  -----------------  -----------------
       1        0.000009616858    -0.000004741706    -0.000003295262
       2        0.000002169495     0.000019240319     0.000014765606
       3        0.001635340404     0.002987308563     0.001229677141
       4        0.001356176364     0.002662850243     0.002169348858
       5       -0.001715269632    -0.003160024646    -0.001536311862
       6       -0.000008085631    -0.000002407142     0.000002731825
       7       -0.001298790628    -0.002483915659    -0.001881073383
       8       -0.000004593559    -0.000033732239    -0.000004515020
       9        0.000023436334     0.000015422270     0.000008672099

  **** Optimization is complete! (in 6 steps) ****
    Final optimized geometry and variables:
    Molecular point group: c1

    Geometry (in Angstrom), charge = 0, multiplicity = 1:

    H           -2.140325041317    -0.627642453175    -0.649348654763
    O           -2.043000406860    -0.049907051877     0.087012160153
    C           -0.955051323354     0.790364802720    -0.090039948308
    C            0.356847793045     0.038777045134     0.001097731996
    H           -0.978742512336     1.274802211345    -1.059537791702
    H           -0.976683312330     1.535279707735     0.690111290926
    F            0.410924369736    -0.755971188212     1.041270367811
    F            0.535523869734    -0.718278202791    -1.069950968638
    F            1.368686309914     0.876780217861     0.065646951039

  Mulliken Charges: (a.u.)
   Center  Symbol    Alpha    Beta     Spin     Total
       1     H     0.38763  0.38763  0.00000  0.22474
       2     O     4.19153  4.19153  0.00000 -0.38306
       3     C     2.99161  2.99161  0.00000  0.01677
       4     C     2.68572  2.68572  0.00000  0.62857
       5     H     0.46105  0.46105  0.00000  0.07790
       6     H     0.44669  0.44669  0.00000  0.10662
       7     F     4.60591  4.60591  0.00000 -0.21182
       8     F     4.61846  4.61846  0.00000 -0.23692
       9     F     4.61140  4.61140  0.00000 -0.22280

   Total alpha = 25.00000, Total beta = 25.00000, Total charge =  0.00000
