  ==> Input File <==

--------------------------------------------------------------------------
set {
	reference rhf
	basis 6-31G*
}

set_num_threads( 1 )
memory 2 gb

molecule MOL {
0 1

H	 2.591676	 2.013956	 0.335017
O	 3.341076	 1.666752	 -0.126416
C	 3.569581	 0.339145	 0.272707
C	 2.539767	 -0.640285	 -0.279495
H	 4.553106	 0.084646	 -0.100901
H	 3.608576	 0.269204	 1.359154
C	 1.211381	 0.009916	 -0.673824
H	 2.969961	 -1.143375	 -1.141586
H	 2.358772	 -1.403484	 0.475579
C	 0.180726	 -1.006557	 -1.173175
H	 1.392545	 0.752228	 -1.446170
H	 0.800638	 0.543175	 0.183653
C	 -1.196775	 -0.418855	 -1.500955
H	 0.574401	 -1.512991	 -2.052602
H	 0.055270	 -1.774334	 -0.412597
C	 -1.220465	 0.541967	 -2.692902
H	 -1.879366	 -1.241199	 -1.705000
H	 -1.589835	 0.088157	 -0.621023
C	 -2.630851	 1.018850	 -3.046216
H	 -0.781085	 0.049898	 -3.559461
H	 -0.597953	 1.409342	 -2.486887
C	 -2.656645	 1.983087	 -4.231646
H	 -3.256905	 0.157386	 -3.268526
H	 -3.075136	 1.502190	 -2.178530
H	 -2.248379	 1.517811	 -5.124429
H	 -3.669555	 2.301186	 -4.458501
H	 -2.068937	 2.873456	 -4.026205

	symmetry c1
}
set optking {
	frozen_dihedral = ("
		14 10 7 4,
		14 10 13 16,
		10 7 4 8,
		10 13 16 20,
		20 16 19 22,
		4 3 2 1
	")
}

ee = energy('scf')
oeprop('DIPOLE', 'QUADRUPOLE', 'MULLIKEN_CHARGES')
f=open( 'psi4out.xyz', 'w' )
f.write( "27  " )
f.write( str(ee) + "\n" )
f.write( MOL.save_string_xyz() )
f.close()
--------------------------------------------------------------------------

    Molecular point group: c1

    Geometry (in Angstrom), charge = 0, multiplicity = 1:

       Center              X                  Y                   Z               Mass
    ------------   -----------------  -----------------  -----------------  -----------------
           H          2.201801659842     1.590361557661     1.813424130026     1.007825032070
           O          2.951201659842     1.243157557661     1.351991130026    15.994914619560
           C          3.179706659842    -0.084449442339     1.751114130026    12.000000000000
           C          2.149892659842    -1.063879442339     1.198912130026    12.000000000000
           H          4.163231659842    -0.338948442339     1.377506130026     1.007825032070
           H          3.218701659842    -0.154390442339     2.837561130026     1.007825032070
           C          0.821506659842    -0.413678442339     0.804583130026    12.000000000000
           H          2.580086659842    -1.566969442339     0.336821130026     1.007825032070
           H          1.968897659842    -1.827078442339     1.953986130026     1.007825032070
           C         -0.209148340158    -1.430151442339     0.305232130026    12.000000000000
           H          1.002670659842     0.328633557661     0.032237130026     1.007825032070
           H          0.410763659842     0.119580557661     1.662060130026     1.007825032070
           C         -1.586649340158    -0.842449442339    -0.022547869974    12.000000000000
           H          0.184526659842    -1.936585442339    -0.574194869974     1.007825032070
           H         -0.334604340158    -2.197928442339     1.065810130026     1.007825032070
           C         -1.610339340158     0.118372557661    -1.214494869974    12.000000000000
           H         -2.269240340158    -1.664793442339    -0.226592869974     1.007825032070
           H         -1.979709340158    -0.335437442339     0.857384130026     1.007825032070
           C         -3.020725340158     0.595255557661    -1.567808869974    12.000000000000
           H         -1.170959340158    -0.373696442339    -2.081053869974     1.007825032070
           H         -0.987827340158     0.985747557661    -1.008479869974     1.007825032070
           C         -3.046519340158     1.559492557661    -2.753238869974    12.000000000000
           H         -3.646779340158    -0.266208442339    -1.790118869974     1.007825032070
           H         -3.465010340158     1.078595557661    -0.700122869974     1.007825032070
           H         -2.638253340158     1.094216557661    -3.646021869974     1.007825032070
           H         -4.059429340158     1.877591557661    -2.980093869974     1.007825032070
           H         -2.458811340158     2.449861557661    -2.547797869974     1.007825032070

  Charge       = 0
  Multiplicity = 1
  Basis Set: 6-31G*
  Basis Set:

    Orbital Energies (a.u.)
    -----------------------

    Doubly Occupied:

       1A    -20.551480     2A    -11.266339     3A    -11.216297
       4A    -11.214634     5A    -11.214208     6A    -11.214013
       7A    -11.213708     8A    -11.211845     9A    -11.207517
      10A     -1.359486    11A     -1.092529    12A     -1.058895
      13A     -1.009908    14A     -0.948032    15A     -0.887746
      16A     -0.818290    17A     -0.797914    18A     -0.774635
      19A     -0.694700    20A     -0.646875    21A     -0.635817
      22A     -0.617340    23A     -0.601460    24A     -0.585115
      25A     -0.574255    26A     -0.554497    27A     -0.542530
      28A     -0.525839    29A     -0.503100    30A     -0.493700
      31A     -0.480444    32A     -0.471527    33A     -0.465620
      34A     -0.459006    35A     -0.443389    36A     -0.442308
      37A     -0.423613

  @DF-RHF Final Energy:  -388.27516370928498

   => Energetics <=

    Nuclear Repulsion Energy =            462.3124154841969471
    One-Electron Energy =               -1442.7376484498652189
    Two-Electron Energy =                 592.1500692563860184
    DFT Exchange-Correlation Energy =       0.0000000000000000
    Empirical Dispersion Energy =           0.0000000000000000
    PCM Polarization Energy =               0.0000000000000000
    EFP Energy =                            0.0000000000000000
    Total Energy =                       -388.2751637092823103

  Mulliken Charges: (a.u.)
   Center  Symbol    Alpha    Beta     Spin     Total
       1     H     0.27994  0.27994  0.00000  0.44012
       2     O     4.36970  4.36970  0.00000 -0.73941
       3     C     2.99620  2.99620  0.00000  0.00760
       4     C     3.17071  3.17071  0.00000 -0.34142
       5     H     0.41423  0.41423  0.00000  0.17154
       6     H     0.43023  0.43023  0.00000  0.13955
       7     C     3.16124  3.16124  0.00000 -0.32248
       8     H     0.41766  0.41766  0.00000  0.16469
       9     H     0.42241  0.42241  0.00000  0.15519
      10     C     3.15270  3.15270  0.00000 -0.30541
      11     H     0.40629  0.40629  0.00000  0.18742
      12     H     0.43410  0.43410  0.00000  0.13181
      13     C     3.15318  3.15318  0.00000 -0.30636
      14     H     0.42251  0.42251  0.00000  0.15498
      15     H     0.42315  0.42315  0.00000  0.15369
      16     C     3.15291  3.15291  0.00000 -0.30582
      17     H     0.42176  0.42176  0.00000  0.15648
      18     H     0.42509  0.42509  0.00000  0.14982
      19     C     3.15113  3.15113  0.00000 -0.30226
      20     H     0.42400  0.42400  0.00000  0.15200
      21     H     0.42174  0.42174  0.00000  0.15651
      22     C     3.23915  3.23915  0.00000 -0.47830
      23     H     0.42334  0.42334  0.00000  0.15332
      24     H     0.42368  0.42368  0.00000  0.15264
      25     H     0.42163  0.42163  0.00000  0.15675
      26     H     0.41967  0.41967  0.00000  0.16066
      27     H     0.42165  0.42165  0.00000  0.15671

   Total alpha = 37.00000, Total beta = 37.00000, Total charge = -0.00000
