                              Psi4 1.0.54 Driver

  ==> Input File <==

--------------------------------------------------------------------------
set {
	reference rhf
	basis cc-pvtz
}

set_num_threads( 4 )
memory 2 gb

molecule MOL {
0 1

H	 2.614283	 2.028610	 0.296620
O	 3.358864	 1.662087	 -0.142800
C	 3.565468	 0.338079	 0.273842
C	 2.712034	 -0.062088	 1.468080
H	 3.312389	 -0.281805	 -0.575672
H	 4.617924	 0.169271	 0.493590
C	 3.042792	 0.689722	 2.755414
H	 1.667675	 0.091027	 1.213074
H	 2.844232	 -1.129094	 1.630621
C	 2.188987	 0.238381	 3.939536
H	 2.904413	 1.753727	 2.594955
H	 4.094123	 0.543825	 2.997704
C	 2.528577	 0.906611	 5.273103
H	 1.140257	 0.409651	 3.709191
H	 2.300805	 -0.836073	 4.055792
C	 2.221228	 2.401348	 5.344103
H	 1.972573	 0.402084	 6.058496
H	 3.580522	 0.744773	 5.497546
C	 2.483670	 3.000261	 6.723537
H	 1.179947	 2.565712	 5.075428
H	 2.813390	 2.939879	 4.610393
C	 2.181401	 4.493292	 6.796907
H	 1.884587	 2.475194	 7.462442
H	 3.521479	 2.829443	 6.997099
H	 1.141882	 4.694246	 6.559721
H	 2.375560	 4.885390	 7.788707
H	 2.792616	 5.051713	 6.095527

	symmetry c1
}
set optking {
	frozen_dihedral = ("
		4 3 2 1
	")
}

ee,wfn = optimize('scf', return_wfn=True)
oeprop( wfn, 'DIPOLE', 'QUADRUPOLE', 'MULLIKEN_CHARGES')
f=open( 'psi4out.xyz', 'w' )
f.write( "27  " )
f.write( str(ee) + "\n" )
f.write( MOL.save_string_xyz() )
f.close()
--------------------------------------------------------------------------

    Molecular point group: c1
  Charge       = 0
  Multiplicity = 1
  Basis Set: CC-PVTZ
  Basis Set:
  @DF-RHF Final Energy:  -388.42492149218236
    Total Energy =                       -388.4249214921821931
    Molecular point group: c1
  Basis Set: CC-PVTZ
  Basis Set:
  Basis Set: CC-PVTZ
  Basis Set:
  @DF-RHF Final Energy:  -388.42542915934382
    Total Energy =                       -388.4254291593435937
  Basis Set: CC-PVTZ
  Basis Set:
  Basis Set: CC-PVTZ
  Basis Set:
  @DF-RHF Final Energy:  -388.42565200406102
    Total Energy =                       -388.4256520040607938
  Basis Set: CC-PVTZ
  Basis Set:
  Basis Set: CC-PVTZ
  Basis Set:
  @DF-RHF Final Energy:  -388.42566161672386
    Total Energy =                       -388.4256616167232323
  Basis Set: CC-PVTZ
  Basis Set:
  Basis Set: CC-PVTZ
  Basis Set:
  @DF-RHF Final Energy:  -388.42566538911143
    Total Energy =                       -388.4256653891113729
  Basis Set: CC-PVTZ
  Basis Set:
  Charge       = 0
  Multiplicity = 1
  Basis Set: CC-PVTZ
  Basis Set:

    Orbital Energies (a.u.)
    -----------------------

    Doubly Occupied:

       1A    -20.542770     2A    -11.264412     3A    -11.221490
       4A    -11.217855     5A    -11.216417     6A    -11.214089
       7A    -11.213975     8A    -11.212316     9A    -11.207217
      10A     -1.361015    11A     -1.097672    12A     -1.064129
      13A     -1.013809    14A     -0.949616    15A     -0.889384
      16A     -0.826257    17A     -0.805540    18A     -0.780167
      19A     -0.664341    20A     -0.656036    21A     -0.649569
      22A     -0.629748    23A     -0.607920    24A     -0.585914
      25A     -0.575173    26A     -0.564984    27A     -0.539605
      28A     -0.526527    29A     -0.511347    30A     -0.491094
      31A     -0.487523    32A     -0.479064    33A     -0.467638
      34A     -0.461259    35A     -0.447674    36A     -0.446802
      37A     -0.427212

  @DF-RHF Final Energy:  -388.42566559939240

   => Energetics <=

    Nuclear Repulsion Energy =            460.3739628847206973
    One-Electron Energy =               -1438.9641408669654083
    Two-Electron Energy =                 590.1645123828518535
    DFT Exchange-Correlation Energy =       0.0000000000000000
    Empirical Dispersion Energy =           0.0000000000000000
    PCM Polarization Energy =               0.0000000000000000
    EFP Energy =                            0.0000000000000000
    Total Energy =                       -388.4256655993929144
    Molecular point group: c1
  Basis Set: CC-PVTZ
  Basis Set:

  -Total Gradient:
     Atom            X                  Y                   Z
    ------   -----------------  -----------------  -----------------
       1        0.000879697753     0.000526293604     0.001032731521
       2       -0.001379322803    -0.000775602812    -0.001523198235
       3        0.001172559209     0.000552404143     0.001034817057
       4       -0.000657482787    -0.000316010124    -0.000545813980
       5       -0.000002057981     0.000014692689     0.000002666515
       6       -0.000006177943     0.000003410078    -0.000002901683
       7       -0.000006743289     0.000004329327    -0.000007653254
       8        0.000007304693     0.000001252387     0.000007761439
       9        0.000001701237    -0.000008306927     0.000002225043
      10       -0.000014714656     0.000005675638     0.000004824903
      11       -0.000000640009    -0.000005886437    -0.000003028357
      12        0.000003027958    -0.000003701287    -0.000007739717
      13        0.000006707012    -0.000002617350    -0.000003240856
      14       -0.000001793759    -0.000001379461     0.000001044997
      15       -0.000000434930     0.000002541356    -0.000002187697
      16        0.000001583814     0.000001465505     0.000002336639
      17        0.000001189269     0.000001785873    -0.000000035431
      18        0.000001016798    -0.000000982096     0.000001263700
      19       -0.000001733883     0.000000227696    -0.000000243015
      20       -0.000000095662     0.000001069977    -0.000000427354
      21       -0.000002254061    -0.000001614690     0.000006804788
      22       -0.000001062389     0.000000970707     0.000000732293
      23        0.000000444695     0.000000077902     0.000000119844
      24       -0.000000899183    -0.000000281634    -0.000001211112
      25        0.000000662535     0.000000280607     0.000000213150
      26       -0.000000107204     0.000000369400    -0.000000103405
      27       -0.000000374434    -0.000000464071     0.000000242200

  **** Optimization is complete! (in 6 steps) ****
    Final optimized geometry and variables:
    Molecular point group: c1

    Geometry (in Angstrom), charge = 0, multiplicity = 1:

    H           -0.232212540778     0.430089193613    -3.264562017647
    O            0.514165958517     0.081758532219    -3.714058292456
    C            0.791760878563    -1.224762767786    -3.275813986631
    C           -0.003860235659    -1.645231443944    -2.050186853723
    H            0.584596279304    -1.912860455778    -4.089134209939
    H            1.854495696540    -1.281553666881    -3.065723317060
    C            0.332209367881    -0.861730051319    -0.781960714035
    H           -1.065836914054    -1.554285107455    -2.272580291504
    H            0.179026582619    -2.702106950821    -1.879260364379
    C           -0.504686174906    -1.296879465012     0.419821592608
    H            0.197928389958     0.199314942054    -0.961246061039
    H            1.386657209447    -0.996911223486    -0.554116299170
    C           -0.141940467328    -0.612603789016     1.739085526171
    H           -1.557430746895    -1.126461001815     0.205773065632
    H           -0.393906863764    -2.370195822146     0.547966489294
    C           -0.438013762276     0.885093474963     1.792471402660
    H           -0.689892951404    -1.102097064139     2.539418324943
    H            0.911925708438    -0.778348507599     1.950163185585
    C           -0.149381121112     1.502697317445     3.158286640035
    H           -1.482789749258     1.052427375461     1.538887371462
    H            0.145916678396     1.408198721720     1.041472100772
    C           -0.440651575335     2.998607853482     3.213902141808
    H           -0.739486976719     0.992721924002     3.914787318911
    H            0.891653083608     1.329182198478     3.416972915273
    H           -1.482917759602     3.202940514295     2.992024820542
    H           -0.226607800827     3.404419403522     4.195982294352
    H            0.161783501260     3.541923866277     2.493479550885

  Mulliken Charges: (a.u.)
   Center  Symbol    Alpha    Beta     Spin     Total
       1     H     0.39182  0.39182  0.00000  0.21637
       2     O     4.20857  4.20857  0.00000 -0.41713
       3     C     2.95510  2.95510  0.00000  0.08980
       4     C     3.11548  3.11548  0.00000 -0.23096
       5     H     0.46352  0.46352  0.00000  0.07295
       6     H     0.47058  0.47058  0.00000  0.05883
       7     C     3.09164  3.09164  0.00000 -0.18327
       8     H     0.45265  0.45265  0.00000  0.09470
       9     H     0.44950  0.44950  0.00000  0.10100
      10     C     3.09911  3.09911  0.00000 -0.19822
      11     H     0.45237  0.45237  0.00000  0.09526
      12     H     0.45166  0.45166  0.00000  0.09669
      13     C     3.09779  3.09779  0.00000 -0.19558
      14     H     0.45336  0.45336  0.00000  0.09327
      15     H     0.44774  0.44774  0.00000  0.10453
      16     C     3.08914  3.08914  0.00000 -0.17829
      17     H     0.44798  0.44798  0.00000  0.10403
      18     H     0.45295  0.45295  0.00000  0.09411
      19     C     3.08406  3.08406  0.00000 -0.16812
      20     H     0.45561  0.45561  0.00000  0.08878
      21     H     0.45281  0.45281  0.00000  0.09437
      22     C     3.14976  3.14976  0.00000 -0.29952
      23     H     0.45396  0.45396  0.00000  0.09208
      24     H     0.45424  0.45424  0.00000  0.09153
      25     H     0.45542  0.45542  0.00000  0.08917
      26     H     0.44822  0.44822  0.00000  0.10356
      27     H     0.45498  0.45498  0.00000  0.09004

   Total alpha = 37.00000, Total beta = 37.00000, Total charge =  0.00000

*** Psi4 exiting successfully. Buy a developer a beer!
