  ==> Input File <==

--------------------------------------------------------------------------
set {
	reference rhf
	basis 6-31G*
}

set_num_threads( 4 )
memory 2 gb

molecule MOL {
0 1

H	 -2.482719	 -2.186854	 -0.776179
C	 -1.933021	 -1.322901	 -0.452459
C	 -2.589117	 -0.166966	 -0.064774
C	 -0.555413	 -1.354388	 -0.418523
H	 -3.663174	 -0.122582	 -0.084097
C	 -1.868731	 0.937565	 0.349694
H	 -0.018447	 -2.232234	 -0.711491
C	 0.154804	 -0.237046	 -0.000077
H	 -2.396374	 1.824953	 0.646732
C	 -0.476183	 0.946325	 0.398066
N	 1.611208	 -0.370857	 -0.000034
C	 0.209257	 2.210523	 0.868074
O	 2.274126	 0.622059	 -0.008063
O	 2.068510	 -1.474748	 0.007823
H	 0.863210	 2.614381	 0.107567
H	 -0.541914	 2.951963	 1.109700
H	 0.814864	 2.031623	 1.745775

	symmetry c1
}
set optking {
	frozen_dihedral = ("
		4 8 11 13
	")
}

ee = optimize('scf')
oeprop('DIPOLE', 'QUADRUPOLE', 'MULLIKEN_CHARGES')
f=open( 'psi4out.xyz', 'w' )
f.write( "17  " )
f.write( str(ee) + "\n" )
f.write( MOL.save_string_xyz() )
f.close()
--------------------------------------------------------------------------

    Molecular point group: c1
  Charge       = 0
  Multiplicity = 1
  Basis Set: 6-31G*
  Basis Set:
  @DF-RHF Final Energy:  -473.20635097341892
    Total Energy =                       -473.2063509734189211
    Molecular point group: c1
  Basis Set: 6-31G*
  Basis Set:
  Basis Set: 6-31G*
  Basis Set:
  @DF-RHF Final Energy:  -473.20427295932961
    Total Energy =                       -473.2042729593297281
  Basis Set: 6-31G*
  Basis Set:
  Basis Set: 6-31G*
  Basis Set:
  @DF-RHF Final Energy:  -473.20640831784584
    Total Energy =                       -473.2064083178458986
  Basis Set: 6-31G*
  Basis Set:
  Basis Set: 6-31G*
  Basis Set:
  @DF-RHF Final Energy:  -473.20676173184296
    Total Energy =                       -473.2067617318427892
  Basis Set: 6-31G*
  Basis Set:
  Basis Set: 6-31G*
  Basis Set:
  @DF-RHF Final Energy:  -473.20676756563029
    Total Energy =                       -473.2067675656298888
  Basis Set: 6-31G*
  Basis Set:
  Charge       = 0
  Multiplicity = 1
  Basis Set: 6-31G*
  Basis Set:

    Orbital Energies (a.u.)
    -----------------------

    Doubly Occupied:

       1A    -20.599012     2A    -20.597071     3A    -15.852937
       4A    -11.300731     5A    -11.282519     6A    -11.266135
       7A    -11.264100     8A    -11.254023     9A    -11.253181
      10A    -11.233484    11A     -1.631889    12A     -1.414098
      13A     -1.199781    14A     -1.091525    15A     -1.071733
      16A     -0.979758    17A     -0.930980    18A     -0.847202
      19A     -0.822466    20A     -0.768838    21A     -0.731810
      22A     -0.725417    23A     -0.693225    24A     -0.662685
      25A     -0.637666    26A     -0.598123    27A     -0.589993
      28A     -0.562950    29A     -0.540842    30A     -0.520173
      31A     -0.519186    32A     -0.485108    33A     -0.478219
      34A     -0.447766    35A     -0.369223    36A     -0.353452

  @DF-RHF Final Energy:  -473.20677030398082

   => Energetics <=

    Nuclear Repulsion Energy =            509.8752308362114150
    One-Electron Energy =               -1655.0093990138598201
    Two-Electron Energy =                 671.9273978736678146
    DFT Exchange-Correlation Energy =       0.0000000000000000
    Empirical Dispersion Energy =           0.0000000000000000
    PCM Polarization Energy =               0.0000000000000000
    EFP Energy =                            0.0000000000000000
    Total Energy =                       -473.2067703039806474
    Molecular point group: c1
  Basis Set: 6-31G*
  Basis Set:

  -Total Gradient:
     Atom            X                  Y                   Z
    ------   -----------------  -----------------  -----------------
       1        0.000001792367    -0.000005828571     0.000012348602
       2       -0.000007241546     0.000008654296     0.000001274014
       3       -0.000003663528    -0.000003410685     0.000002375919
       4       -0.000006199456    -0.000088889800     0.000211843849
       5        0.000000864561     0.000008016972    -0.000010212180
       6       -0.000006132638    -0.000015770728     0.000030537649
       7       -0.000014255630     0.000005851473     0.000008085106
       8       -0.000034283173     0.000148223482    -0.000194721091
       9       -0.000000210617     0.000003894016    -0.000008121469
      10        0.000005481878    -0.000008643367    -0.000039994111
      11        0.000029943363    -0.000021802147    -0.000342017123
      12       -0.000015699976     0.000007894010     0.000012284337
      13       -0.000017070845    -0.000049263648     0.000326650184
      14        0.000048793597     0.000024492226    -0.000000049799
      15        0.000014845930    -0.000004898932    -0.000016849278
      16        0.000001253685    -0.000003861140     0.000007535015
      17        0.000001782025    -0.000004657457    -0.000000969624

  **** Optimization is complete! (in 6 steps) ****
    Final optimized geometry and variables:
    Molecular point group: c1

    Geometry (in Angstrom), charge = 0, multiplicity = 1:

    H           -2.477343186602    -2.176497092531    -0.858167547909
    C           -1.928225220107    -1.312171874501    -0.534371048560
    C           -2.585197058228    -0.149879574950    -0.166934951673
    C           -0.551022991947    -1.350595630642    -0.476545091080
    H           -3.658710858691    -0.102894170489    -0.201075332984
    C           -1.867625683433     0.955591420499     0.251481600615
    H           -0.011667519492    -2.235649911432    -0.744829481219
    C            0.153424956437    -0.227169038588    -0.069310753289
    H           -2.396239922359     1.844220026318     0.543735913564
    C           -0.475986268600     0.960574704707     0.309784687837
    N            1.608706380241    -0.355808298413    -0.058786332314
    C            0.220985589400     2.214346883424     0.789650245885
    O            2.265221861094     0.641365622811    -0.076083991370
    O            2.067251849866    -1.458998777609    -0.043008970881
    H            0.756773124969     2.697029089053    -0.016563936164
    H           -0.516266576991     2.904786006968     1.179744203308
    H            0.940449220016     2.002421672583     1.568656492320

  Mulliken Charges: (a.u.)
   Center  Symbol    Alpha    Beta     Spin     Total
       1     H     0.38937  0.38937  0.00000  0.22125
       2     C     3.11226  3.11226  0.00000 -0.22452
       3     C     3.08104  3.08104  0.00000 -0.16207
       4     C     3.08365  3.08365  0.00000 -0.16730
       5     H     0.38957  0.38957  0.00000  0.22085
       6     C     3.12547  3.12547  0.00000 -0.25094
       7     H     0.36453  0.36453  0.00000  0.27095
       8     C     2.93268  2.93268  0.00000  0.13465
       9     H     0.39271  0.39271  0.00000  0.21458
      10     C     2.96331  2.96331  0.00000  0.07338
      11     N     3.24925  3.24925  0.00000  0.50151
      12     C     3.23757  3.23757  0.00000 -0.47514
      13     O     4.23429  4.23429  0.00000 -0.46858
      14     O     4.23399  4.23399  0.00000 -0.46798
      15     H     0.39503  0.39503  0.00000  0.20995
      16     H     0.41467  0.41467  0.00000  0.17066
      17     H     0.40062  0.40062  0.00000  0.19876

   Total alpha = 36.00000, Total beta = 36.00000, Total charge =  0.00000
