                              Psi4 1.0.54 Driver

  ==> Input File <==

--------------------------------------------------------------------------
set {
	reference rhf
	basis cc-pvtz
}

set_num_threads( 4 )
memory 2 gb

molecule MOL {
0 1

O	 1.582271	 1.754827	 0.496999
C	 0.934769	 1.454262	 1.441161
C	 -0.369270	 0.699438	 1.404241
O	 1.283251	 1.750803	 2.682547
C	 -0.824290	 0.329213	 -0.000115
H	 -0.246512	 -0.183347	 2.023166
H	 -1.109162	 1.312536	 1.908337
C	 -2.146151	 -0.432825	 -0.000068
H	 -0.055743	 -0.266623	 -0.479269
H	 -0.919145	 1.231000	 -0.594315
C	 -3.366283	 0.483552	 0.000557
H	 -2.189286	 -1.084450	 -0.869996
H	 -2.188867	 -1.085083	 0.869399
C	 -4.687436	 -0.278003	 0.000108
H	 -3.325150	 1.134819	 -0.867957
H	 -3.325087	 1.133730	 0.869885
H	 -4.773783	 -0.912098	 -0.876078
H	 -5.531922	 0.401392	 0.000363
H	 -4.773901	 -0.912898	 0.875703
C	 2.491195	 2.461278	 2.865356
H	 3.327625	 1.896533	 2.481090
H	 2.595029	 2.603101	 3.928818
H	 2.451125	 3.416881	 2.363927

	symmetry c1
}
set optking {
	frozen_dihedral = ("
		9 5 8 12
	")
}

ee,wfn = optimize('scf', return_wfn=True)
oeprop( wfn, 'DIPOLE', 'QUADRUPOLE', 'MULLIKEN_CHARGES')
f=open( 'psi4out.xyz', 'w' )
f.write( "23  " )
f.write( str(ee) + "\n" )
f.write( MOL.save_string_xyz() )
f.close()
--------------------------------------------------------------------------

    Molecular point group: c1
  Charge       = 0
  Multiplicity = 1
  Basis Set: CC-PVTZ
  Basis Set:
  @DF-RHF Final Energy:  -423.12804768216500
    Total Energy =                       -423.1280476821648335
    Molecular point group: c1
  Basis Set: CC-PVTZ
  Basis Set:
  Basis Set: CC-PVTZ
  Basis Set:
  @DF-RHF Final Energy:  -423.12826907005422
    Total Energy =                       -423.1282690700535341
  Basis Set: CC-PVTZ
  Basis Set:
  Basis Set: CC-PVTZ
  Basis Set:
  @DF-RHF Final Energy:  -423.12801733535161
    Total Energy =                       -423.1280173353511600
  Basis Set: CC-PVTZ
  Basis Set:
  Basis Set: CC-PVTZ
  Basis Set:
  @DF-RHF Final Energy:  -423.12831299058104
    Total Energy =                       -423.1283129905807527
  Basis Set: CC-PVTZ
  Basis Set:
  Basis Set: CC-PVTZ
  Basis Set:
  @DF-RHF Final Energy:  -423.12831736920924
    Total Energy =                       -423.1283173692091850
  Basis Set: CC-PVTZ
  Basis Set:
  Charge       = 0
  Multiplicity = 1
  Basis Set: CC-PVTZ
  Basis Set:

    Orbital Energies (a.u.)
    -----------------------

    Doubly Occupied:

       1A    -20.596282     2A    -20.534138     3A    -11.364535
       4A    -11.278459     5A    -11.233823     6A    -11.217100
       7A    -11.216509     8A    -11.215573     9A    -11.208797
      10A     -1.472180    11A     -1.365758    12A     -1.094273
      13A     -1.043794    14A     -0.987923    15A     -0.933241
      16A     -0.848924    17A     -0.794288    18A     -0.768012
      19A     -0.703557    20A     -0.685470    21A     -0.676503
      22A     -0.631489    23A     -0.627402    24A     -0.600369
      25A     -0.576394    26A     -0.559328    27A     -0.556246
      28A     -0.529565    29A     -0.522243    30A     -0.503953
      31A     -0.494272    32A     -0.469909    33A     -0.465985
      34A     -0.461643    35A     -0.453571    36A     -0.439855

  @DF-RHF Final Energy:  -423.12831761496670

   => Energetics <=

    Nuclear Repulsion Energy =            457.0909412570007362
    One-Electron Energy =               -1482.1757860132092901
    Two-Electron Energy =                 601.9565271412418497
    DFT Exchange-Correlation Energy =       0.0000000000000000
    Empirical Dispersion Energy =           0.0000000000000000
    PCM Polarization Energy =               0.0000000000000000
    EFP Energy =                            0.0000000000000000
    Total Energy =                       -423.1283176149665906
    Molecular point group: c1
  Basis Set: CC-PVTZ
  Basis Set:

  -Total Gradient:
     Atom            X                  Y                   Z
    ------   -----------------  -----------------  -----------------
       1        0.000030137658     0.000020101769     0.000003214953
       2       -0.000018895593    -0.000009418077     0.000001694999
       3       -0.000013014702    -0.000007649091     0.000005582325
       4        0.000020241010     0.000010400236     0.000003186237
       5        0.000920953557    -0.001995620941     0.003379023026
       6       -0.000007135404    -0.000002744969    -0.000006797341
       7       -0.000001976970    -0.000002040743    -0.000004285492
       8       -0.001437896552     0.002893922785    -0.002384620381
       9       -0.000541876642     0.001211659049    -0.002448352142
      10       -0.000002549661     0.000001661591    -0.000003062753
      11        0.000000427926    -0.000010843612     0.000037222106
      12        0.001058614817    -0.002109045668     0.001447659534
      13        0.000005377740     0.000001810183     0.000005600349
      14        0.000002547523     0.000007089921    -0.000018816146
      15        0.000008818404     0.000001845214    -0.000002137203
      16        0.000002767200     0.000004186616     0.000005851307
      17       -0.000005431611    -0.000010515178    -0.000002813453
      18       -0.000011880466     0.000000383301    -0.000006543327
      19        0.000004243983     0.000004387226     0.000003256754
      20       -0.000014716057    -0.000013680701    -0.000009141186
      21        0.000008228734    -0.000009443099    -0.000004869615
      22       -0.000002084929    -0.000000105928     0.000007109572
      23       -0.000004899972     0.000013660113    -0.000007962121

  **** Optimization is complete! (in 6 steps) ****
    Final optimized geometry and variables:
    Molecular point group: c1

    Geometry (in Angstrom), charge = 0, multiplicity = 1:

    O            2.138042001170     0.799527021873    -0.469991808679
    C            1.477401347796     0.491735118922     0.462664390233
    C            0.168192964380    -0.252722131921     0.401856217071
    O            1.814410898812     0.769030215880     1.711797217352
    C           -0.269105523502    -0.606706751025    -1.012908522931
    H            0.278558179339    -1.144104286664     1.010453490162
    H           -0.569858415236     0.360467058865     0.907062639663
    C           -1.623844159416    -1.322377132293    -1.066304482467
    H            0.490959607593    -1.216864232247    -1.484634098601
    H           -0.313373794109     0.299137970510    -1.607429987369
    C           -2.830105166663    -0.386531324314    -1.055589329835
    H           -1.659607039251    -1.948179022512    -1.952520842856
    H           -1.700879827661    -2.012069634348    -0.228039758205
    C           -4.161544619679    -1.129807822233    -1.072323630991
    H           -2.774055703638     0.272547526220    -1.917127829795
    H           -2.791196303655     0.255063027999    -0.179764759293
    H           -4.246618070365    -1.758624356184    -1.952346451227
    H           -4.996944664436    -0.439223679935    -1.077651093294
    H           -4.265254092864    -1.767716262335    -0.200861434429
    C            3.026175796293     1.466509764882     1.917214703979
    H            3.862041976281     0.899677852824     1.534708657146
    H            3.119509430321     1.593444338770     2.983561182013
    H            2.999860443147     2.428996598618     1.428119630195

  Mulliken Charges: (a.u.)
   Center  Symbol    Alpha    Beta     Spin     Total
       1     O     4.19693  4.19693  0.00000 -0.39387
       2     C     2.80564  2.80564  0.00000  0.38872
       3     C     3.09823  3.09823  0.00000 -0.19645
       4     O     4.14723  4.14723  0.00000 -0.29445
       5     C     3.09284  3.09284  0.00000 -0.18568
       6     H     0.43976  0.43976  0.00000  0.12049
       7     H     0.44033  0.44033  0.00000  0.11935
       8     C     3.09985  3.09985  0.00000 -0.19971
       9     H     0.44015  0.44015  0.00000  0.11971
      10     H     0.44732  0.44732  0.00000  0.10535
      11     C     3.08182  3.08182  0.00000 -0.16363
      12     H     0.44473  0.44473  0.00000  0.11055
      13     H     0.45759  0.45759  0.00000  0.08482
      14     C     3.15031  3.15031  0.00000 -0.30062
      15     H     0.45245  0.45245  0.00000  0.09511
      16     H     0.45606  0.45606  0.00000  0.08787
      17     H     0.45411  0.45411  0.00000  0.09178
      18     H     0.44792  0.44792  0.00000  0.10417
      19     H     0.45500  0.45500  0.00000  0.09000
      20     C     3.03787  3.03787  0.00000 -0.07575
      21     H     0.45429  0.45429  0.00000  0.09142
      22     H     0.44530  0.44530  0.00000  0.10941
      23     H     0.45429  0.45429  0.00000  0.09143

   Total alpha = 36.00000, Total beta = 36.00000, Total charge = -0.00000

*** Psi4 exiting successfully. Buy a developer a beer!
