  ==> Input File <==

--------------------------------------------------------------------------
set {
	reference rhf
	basis 6-31G*
}

set_num_threads( 1 )
memory 2 gb

molecule MOL {
0 1

H	 3.022552	 -1.082859	 0.477708
N	 3.092854	 -0.246221	 -0.068770
C	 1.865559	 0.531981	 0.018834
H	 3.260686	 -0.531799	 -1.014871
C	 0.645745	 -0.382037	 -0.029944
H	 1.841966	 1.207024	 -0.831236
H	 1.815756	 1.155410	 0.915079
C	 -0.679275	 0.379305	 0.025956
H	 0.698998	 -0.976915	 -0.937203
H	 0.693479	 -1.083846	 0.802235
C	 -1.903357	 -0.536963	 -0.023547
H	 -0.726309	 1.082987	 -0.803784
H	 -0.717680	 0.977832	 0.934877
C	 -3.225172	 0.228290	 0.028445
H	 -1.867824	 -1.134999	 -0.931459
H	 -1.860449	 -1.239604	 0.805977
H	 -3.313397	 0.915643	 -0.808262
H	 -4.073500	 -0.448134	 -0.008893
H	 -3.306061	 0.809945	 0.942516

	symmetry c1
}
set optking {
	frozen_dihedral = ("
		6 3 5 9,
		12 8 5 9,
		12 8 11 15
	")
}

ee = energy('scf')
oeprop('DIPOLE', 'QUADRUPOLE', 'MULLIKEN_CHARGES')
f=open( 'psi4out.xyz', 'w' )
f.write( "19  " )
f.write( str(ee) + "\n" )
f.write( MOL.save_string_xyz() )
f.close()
--------------------------------------------------------------------------

    Molecular point group: c1

    Geometry (in Angstrom), charge = 0, multiplicity = 1:

       Center              X                  Y                   Z               Mass
    ------------   -----------------  -----------------  -----------------  -----------------
           H          3.031917510336    -1.069622217489     0.491334779690     1.007825032070
           N          3.102219510336    -0.232984217489    -0.055143220310    14.003074004780
           C          1.874924510336     0.545217782511     0.032460779690    12.000000000000
           H          3.270051510336    -0.518562217489    -1.001244220310     1.007825032070
           C          0.655110510336    -0.368800217489    -0.016317220310    12.000000000000
           H          1.851331510336     1.220260782511    -0.817609220310     1.007825032070
           H          1.825121510336     1.168646782511     0.928705779690     1.007825032070
           C         -0.669909489664     0.392541782511     0.039582779690    12.000000000000
           H          0.708363510336    -0.963678217489    -0.923576220310     1.007825032070
           H          0.702844510336    -1.070609217489     0.815861779690     1.007825032070
           C         -1.893991489664    -0.523726217489    -0.009920220310    12.000000000000
           H         -0.716943489664     1.096223782511    -0.790157220310     1.007825032070
           H         -0.708314489664     0.991068782511     0.948503779690     1.007825032070
           C         -3.215806489664     0.241526782511     0.042071779690    12.000000000000
           H         -1.858458489664    -1.121762217489    -0.917832220310     1.007825032070
           H         -1.851083489664    -1.226367217489     0.819603779690     1.007825032070
           H         -3.304031489664     0.928879782511    -0.794635220310     1.007825032070
           H         -4.064134489664    -0.434897217489     0.004733779690     1.007825032070
           H         -3.296695489664     0.823181782511     0.956142779690     1.007825032070

  Charge       = 0
  Multiplicity = 1
  Basis Set: 6-31G*
  Basis Set:

    Orbital Energies (a.u.)
    -----------------------

    Doubly Occupied:

       1A    -15.530967     2A    -11.240930     3A    -11.216600
       4A    -11.215169     5A    -11.212891     6A    -11.209447
       7A     -1.178570     8A     -1.075164     9A     -0.999517
      10A     -0.901205    11A     -0.819482    12A     -0.793477
      13A     -0.678354    14A     -0.638080    15A     -0.601379
      16A     -0.586498    17A     -0.571981    18A     -0.559731
      19A     -0.521624    20A     -0.505544    21A     -0.481451
      22A     -0.472487    23A     -0.467420    24A     -0.464567
      25A     -0.371714

  @DF-RHF Final Energy:  -251.34880785647783

   => Energetics <=

    Nuclear Repulsion Energy =            246.2633348488471370
    One-Electron Energy =                -826.5957740178753284
    Two-Electron Energy =                 328.9836313125497895
    DFT Exchange-Correlation Energy =       0.0000000000000000
    Empirical Dispersion Energy =           0.0000000000000000
    PCM Polarization Energy =               0.0000000000000000
    EFP Energy =                            0.0000000000000000
    Total Energy =                       -251.3488078564784587

  Mulliken Charges: (a.u.)
   Center  Symbol    Alpha    Beta     Spin     Total
       1     H     0.33471  0.33471  0.00000  0.33059
       2     N     3.91921  3.91921  0.00000 -0.83842
       3     C     3.05903  3.05903  0.00000 -0.11806
       4     H     0.33370  0.33370  0.00000  0.33260
       5     C     3.15964  3.15964  0.00000 -0.31929
       6     H     0.42085  0.42085  0.00000  0.15830
       7     H     0.41890  0.41890  0.00000  0.16220
       8     C     3.15528  3.15528  0.00000 -0.31056
       9     H     0.42618  0.42618  0.00000  0.14764
      10     H     0.42658  0.42658  0.00000  0.14685
      11     C     3.15074  3.15074  0.00000 -0.30147
      12     H     0.42386  0.42386  0.00000  0.15228
      13     H     0.42298  0.42298  0.00000  0.15403
      14     C     3.23933  3.23933  0.00000 -0.47866
      15     H     0.42327  0.42327  0.00000  0.15346
      16     H     0.42312  0.42312  0.00000  0.15376
      17     H     0.42176  0.42176  0.00000  0.15648
      18     H     0.41928  0.41928  0.00000  0.16145
      19     H     0.42159  0.42159  0.00000  0.15682

   Total alpha = 25.00000, Total beta = 25.00000, Total charge = -0.00000
