  ==> Input File <==

--------------------------------------------------------------------------
set {
	reference rhf
	basis 6-31G*
}

set_num_threads( 1 )
memory 2 gb

molecule MOL {
0 1

O	 -0.988096	 -1.408613	 0.050699
C	 -0.676749	 -0.249230	 -0.009274
C	 -1.746085	 0.827156	 -0.009539
N	 0.623947	 0.147590	 -0.102813
H	 -1.701500	 1.431508	 -0.908902
H	 -2.703425	 0.330732	 0.036390
H	 -1.647323	 1.487769	 0.845106
C	 1.093041	 0.699912	 -1.358507
C	 1.660426	 -0.248661	 0.825056
H	 1.780879	 1.514518	 -1.160233
H	 0.254778	 1.069567	 -1.922963
H	 1.612324	 -0.050458	 -1.950716
H	 2.393269	 0.546095	 0.898161
H	 1.264482	 -0.419001	 1.813564
H	 2.175141	 -1.150416	 0.498378

	symmetry c1
}
set optking {
	frozen_dihedral = ("
		2 4 8 10
	")
}

ee = energy('scf')
oeprop('DIPOLE', 'QUADRUPOLE', 'MULLIKEN_CHARGES')
f=open( 'psi4out.xyz', 'w' )
f.write( "15  " )
f.write( str(ee) + "\n" )
f.write( MOL.save_string_xyz() )
f.close()
--------------------------------------------------------------------------

    Molecular point group: c1

    Geometry (in Angstrom), charge = 0, multiplicity = 1:

       Center              X                  Y                   Z               Mass
    ------------   -----------------  -----------------  -----------------  -----------------
           O         -0.992181465035    -1.370525211147     0.155463061709    15.994914619560
           C         -0.680834465035    -0.211142211147     0.095490061709    12.000000000000
           C         -1.750170465035     0.865243788853     0.095225061709    12.000000000000
           N          0.619861534965     0.185677788853     0.001951061709    14.003074004780
           H         -1.705585465035     1.469595788853    -0.804137938291     1.007825032070
           H         -2.707510465035     0.368819788853     0.141154061709     1.007825032070
           H         -1.651408465035     1.525856788853     0.949870061709     1.007825032070
           C          1.088955534965     0.737999788853    -1.253742938291    12.000000000000
           C          1.656340534965    -0.210573211147     0.929820061709    12.000000000000
           H          1.776793534965     1.552605788853    -1.055468938291     1.007825032070
           H          0.250692534965     1.107654788853    -1.818198938291     1.007825032070
           H          1.608238534965    -0.012370211147    -1.845951938291     1.007825032070
           H          2.389183534965     0.584182788853     1.002925061709     1.007825032070
           H          1.260396534965    -0.380913211147     1.918328061709     1.007825032070
           H          2.171055534965    -1.112328211147     0.603142061709     1.007825032070

  Charge       = 0
  Multiplicity = 1
  Basis Set: 6-31G*
  Basis Set:

    Orbital Energies (a.u.)
    -----------------------

    Doubly Occupied:

       1A    -20.538207     2A    -15.557138     3A    -11.345711
       4A    -11.261249     5A    -11.255414     6A    -11.225721
       7A     -1.394167     8A     -1.236753     9A     -1.009143
      10A     -0.971606    11A     -0.917225    12A     -0.738940
      13A     -0.675516    14A     -0.657231    15A     -0.646383
      16A     -0.598013    17A     -0.584938    18A     -0.569715
      19A     -0.557906    20A     -0.550220    21A     -0.534482
      22A     -0.485625    23A     -0.421236    24A     -0.354687

  @DF-RHF Final Energy:  -286.00230120779497

   => Energetics <=

    Nuclear Repulsion Energy =            251.1592845435018262
    One-Electron Energy =                -886.1485317983883760
    Two-Electron Energy =                 348.9869460470913509
    DFT Exchange-Correlation Energy =       0.0000000000000000
    Empirical Dispersion Energy =           0.0000000000000000
    PCM Polarization Energy =               0.0000000000000000
    EFP Energy =                            0.0000000000000000
    Total Energy =                       -286.0023012077951989

  Mulliken Charges: (a.u.)
   Center  Symbol    Alpha    Beta     Spin     Total
       1     O     4.26214  4.26214  0.00000 -0.52428
       2     C     2.66128  2.66128  0.00000  0.67743
       3     C     3.28072  3.28072  0.00000 -0.56144
       4     N     3.82280  3.82280  0.00000 -0.64560
       5     H     0.41060  0.41060  0.00000  0.17880
       6     H     0.39781  0.39781  0.00000  0.20438
       7     H     0.40570  0.40570  0.00000  0.18861
       8     C     3.13758  3.13758  0.00000 -0.27517
       9     C     3.13171  3.13171  0.00000 -0.26341
      10     H     0.41655  0.41655  0.00000  0.16689
      11     H     0.41402  0.41402  0.00000  0.17196
      12     H     0.41485  0.41485  0.00000  0.17029
      13     H     0.41760  0.41760  0.00000  0.16480
      14     H     0.40918  0.40918  0.00000  0.18164
      15     H     0.41745  0.41745  0.00000  0.16511

   Total alpha = 24.00000, Total beta = 24.00000, Total charge =  0.00000
