  ==> Input File <==

--------------------------------------------------------------------------
set {
	reference rhf
	basis 6-31G*
}

set_num_threads( 1 )
memory 2 gb

molecule MOL {
0 1

O	 3.611587	 -2.614834	 1.844424
C	 2.906958	 -1.858454	 1.257529
C	 1.423793	 -1.685079	 1.478780
O	 3.347903	 -1.046386	 0.304773
C	 0.871082	 -2.591308	 2.576675
H	 1.254748	 -0.635253	 1.694373
H	 0.930973	 -1.876131	 0.528872
C	 -0.649938	 -2.503512	 2.741852
H	 1.357648	 -2.352465	 3.517593
H	 1.145156	 -3.615916	 2.349772
C	 -1.167486	 -1.153266	 3.245923
H	 -0.957886	 -3.276793	 3.441801
H	 -1.131907	 -2.744458	 1.795458
C	 -2.676479	 -1.151298	 3.498781
H	 -0.648324	 -0.892441	 4.166934
H	 -0.930602	 -0.370037	 2.529397
C	 -3.205676	 0.194456	 3.997810
H	 -2.920466	 -1.924264	 4.225574
H	 -3.195756	 -1.422523	 2.580910
C	 -4.712749	 0.186863	 4.251529
H	 -2.687117	 0.467482	 4.914432
H	 -2.966577	 0.967629	 3.270614
H	 -5.057584	 1.154024	 4.604084
H	 -4.980414	 -0.552838	 5.000791
H	 -5.261894	 -0.049448	 3.344406
C	 4.728119	 -1.109107	 -0.004993
H	 4.882018	 -1.033965	 -1.071845
H	 5.068212	 -2.067527	 0.355250
H	 5.265056	 -0.311663	 0.488280

	symmetry c1
}
set optking {
	frozen_dihedral = ("
		21 17 14 11,
		17 14 11 15,
		15 11 8 5,
		6 3 5 9,
		11 8 5 9,
		1 2 4 26,
		6 3 2 1
	")
}

ee = energy('scf')
oeprop('DIPOLE', 'QUADRUPOLE', 'MULLIKEN_CHARGES')
f=open( 'psi4out.xyz', 'w' )
f.write( "29  " )
f.write( str(ee) + "\n" )
f.write( MOL.save_string_xyz() )
f.close()
--------------------------------------------------------------------------

    Molecular point group: c1

    Geometry (in Angstrom), charge = 0, multiplicity = 1:

       Center              X                  Y                   Z               Mass
    ------------   -----------------  -----------------  -----------------  -----------------
           O          3.165067460417    -1.227964304569    -0.425932973799    15.994914619560
           C          2.460438460417    -0.471584304569    -1.012827973799    12.000000000000
           C          0.977273460417    -0.298209304569    -0.791576973799    12.000000000000
           O          2.901383460417     0.340483695431    -1.965583973799    15.994914619560
           C          0.424562460417    -1.204438304569     0.306318026201    12.000000000000
           H          0.808228460417     0.751616695431    -0.575983973799     1.007825032070
           H          0.484453460417    -0.489261304569    -1.741484973799     1.007825032070
           C         -1.096457539583    -1.116642304569     0.471495026201    12.000000000000
           H          0.911128460417    -0.965595304569     1.247236026201     1.007825032070
           H          0.698636460417    -2.229046304569     0.079415026201     1.007825032070
           C         -1.614005539583     0.233603695431     0.975566026201    12.000000000000
           H         -1.404405539583    -1.889923304569     1.171444026201     1.007825032070
           H         -1.578426539583    -1.357588304569    -0.474898973799     1.007825032070
           C         -3.122998539583     0.235571695431     1.228424026201    12.000000000000
           H         -1.094843539583     0.494428695431     1.896577026201     1.007825032070
           H         -1.377121539583     1.016832695431     0.259040026201     1.007825032070
           C         -3.652195539583     1.581325695431     1.727453026201    12.000000000000
           H         -3.366985539583    -0.537394304569     1.955217026201     1.007825032070
           H         -3.642275539583    -0.035653304569     0.310553026201     1.007825032070
           C         -5.159268539583     1.573732695431     1.981172026201    12.000000000000
           H         -3.133636539583     1.854351695431     2.644075026201     1.007825032070
           H         -3.413096539583     2.354498695431     1.000257026201     1.007825032070
           H         -5.504103539583     2.540893695431     2.333727026201     1.007825032070
           H         -5.426933539583     0.834031695431     2.730434026201     1.007825032070
           H         -5.708413539583     1.337421695431     1.074049026201     1.007825032070
           C          4.281599460417     0.277762695431    -2.275349973799    12.000000000000
           H          4.435498460417     0.352904695431    -3.342201973799     1.007825032070
           H          4.621692460417    -0.680657304569    -1.915106973799     1.007825032070
           H          4.818536460417     1.075206695431    -1.782076973799     1.007825032070

  Charge       = 0
  Multiplicity = 1
  Basis Set: 6-31G*
  Basis Set:

    Orbital Energies (a.u.)
    -----------------------

    Doubly Occupied:

       1A    -20.602762     2A    -20.545354     3A    -11.373853
       4A    -11.276131     5A    -11.235469     6A    -11.219497
       7A    -11.217933     8A    -11.216176     9A    -11.215963
      10A    -11.214580    11A    -11.209122    12A     -1.469844
      13A     -1.363109    14A     -1.098415    15A     -1.067140
      16A     -1.019569    17A     -0.976274    18A     -0.928093
      19A     -0.861653    20A     -0.799316    21A     -0.790555
      22A     -0.763211    23A     -0.704618    24A     -0.680899
      25A     -0.673693    26A     -0.651412    27A     -0.628903
      28A     -0.606591    29A     -0.594887    30A     -0.581011
      31A     -0.568379    32A     -0.550058    33A     -0.533822
      34A     -0.525376    35A     -0.513126    36A     -0.510634
      37A     -0.496889    38A     -0.478089    39A     -0.470427
      40A     -0.462501    41A     -0.458934    42A     -0.454758
      43A     -0.441249    44A     -0.436401

  @DF-RHF Final Energy:  -501.04050015520488

   => Energetics <=

    Nuclear Repulsion Energy =            610.4231113918581286
    One-Electron Energy =               -1891.9539437303651539
    Two-Electron Energy =                 780.4903321833007794
    DFT Exchange-Correlation Energy =       0.0000000000000000
    Empirical Dispersion Energy =           0.0000000000000000
    PCM Polarization Energy =               0.0000000000000000
    EFP Energy =                            0.0000000000000000
    Total Energy =                       -501.0405001552062458

  Mulliken Charges: (a.u.)
   Center  Symbol    Alpha    Beta     Spin     Total
       1     O     4.28686  4.28686  0.00000 -0.57371
       2     C     2.60417  2.60417  0.00000  0.79165
       3     C     3.20988  3.20988  0.00000 -0.41976
       4     O     4.30793  4.30793  0.00000 -0.61585
       5     C     3.15396  3.15396  0.00000 -0.30793
       6     H     0.39831  0.39831  0.00000  0.20338
       7     H     0.40093  0.40093  0.00000  0.19814
       8     C     3.15666  3.15666  0.00000 -0.31331
       9     H     0.41297  0.41297  0.00000  0.17406
      10     H     0.40871  0.40871  0.00000  0.18259
      11     C     3.15511  3.15511  0.00000 -0.31023
      12     H     0.41816  0.41816  0.00000  0.16369
      13     H     0.42381  0.42381  0.00000  0.15238
      14     C     3.15030  3.15030  0.00000 -0.30059
      15     H     0.42257  0.42257  0.00000  0.15486
      16     H     0.42358  0.42358  0.00000  0.15284
      17     C     3.15147  3.15147  0.00000 -0.30295
      18     H     0.42331  0.42331  0.00000  0.15338
      19     H     0.42395  0.42395  0.00000  0.15210
      20     C     3.23936  3.23936  0.00000 -0.47872
      21     H     0.42278  0.42278  0.00000  0.15443
      22     H     0.42339  0.42339  0.00000  0.15321
      23     H     0.41920  0.41920  0.00000  0.16159
      24     H     0.42154  0.42154  0.00000  0.15691
      25     H     0.42182  0.42182  0.00000  0.15636
      26     C     3.10106  3.10106  0.00000 -0.20212
      27     H     0.41103  0.41103  0.00000  0.17794
      28     H     0.39345  0.39345  0.00000  0.21311
      29     H     0.41373  0.41373  0.00000  0.17255

   Total alpha = 44.00000, Total beta = 44.00000, Total charge =  0.00000
