                              Psi4 1.0.54 Driver

  ==> Input File <==

--------------------------------------------------------------------------
set {
	reference rhf
	basis cc-pvtz
}

set_num_threads( 4 )
memory 2 gb

molecule MOL {
0 1

H	 1.128311	 0.207724	 1.465118
C	 1.134565	 0.093781	 0.372499
C	 0.062554	 0.862911	 -0.350953
O	 1.948932	 -0.587720	 -0.146651
C	 -0.268891	 0.264791	 -1.721723
H	 0.375399	 1.895792	 -0.433295
H	 -0.824370	 0.829633	 0.277803
C	 0.871899	 0.384508	 -2.728160
H	 -1.147969	 0.765483	 -2.110443
H	 -0.543870	 -0.779456	 -1.601803
H	 1.137586	 1.422838	 -2.891982
H	 0.589281	 -0.042254	 -3.682960
H	 1.763333	 -0.130683	 -2.387632

	symmetry c1
}
set optking {
	frozen_dihedral = ("
		6 3 2 4
	")
}

ee,wfn = optimize('scf', return_wfn=True)
oeprop( wfn, 'DIPOLE', 'QUADRUPOLE', 'MULLIKEN_CHARGES')
f=open( 'psi4out.xyz', 'w' )
f.write( "13  " )
f.write( str(ee) + "\n" )
f.write( MOL.save_string_xyz() )
f.close()
--------------------------------------------------------------------------

    Molecular point group: c1
  Charge       = 0
  Multiplicity = 1
  Basis Set: CC-PVTZ
  Basis Set:
  @DF-RHF Final Energy:  -231.06748335225888
    Total Energy =                       -231.0674833522588756
    Molecular point group: c1
  Basis Set: CC-PVTZ
  Basis Set:
  Basis Set: CC-PVTZ
  Basis Set:
  @DF-RHF Final Energy:  -231.06786476853839
    Total Energy =                       -231.0678647685383851
  Basis Set: CC-PVTZ
  Basis Set:
  Basis Set: CC-PVTZ
  Basis Set:
  @DF-RHF Final Energy:  -231.06974948527099
    Total Energy =                       -231.0697494852711316
  Basis Set: CC-PVTZ
  Basis Set:
  Basis Set: CC-PVTZ
  Basis Set:
  @DF-RHF Final Energy:  -231.06984772838911
    Total Energy =                       -231.0698477283891634
  Basis Set: CC-PVTZ
  Basis Set:
  @DF-RHF Final Energy:  -231.06985706008120
    Total Energy =                       -231.0698570600812332
  @DF-RHF Final Energy:  -231.06991592397230
    Total Energy =                       -231.0699159239723031
  Basis Set: CC-PVTZ
  Basis Set:
  @DF-RHF Final Energy:  -231.06992848138862
    Total Energy =                       -231.0699284813887004
  Basis Set: CC-PVTZ
  Basis Set:
  Basis Set: CC-PVTZ
  Basis Set:
  @DF-RHF Final Energy:  -231.06993417947277
    Total Energy =                       -231.0699341794725115
  Basis Set: CC-PVTZ
  Basis Set:
  Basis Set: CC-PVTZ
  Basis Set:
  @DF-RHF Final Energy:  -231.06993720525594
    Total Energy =                       -231.0699372052559966
  Basis Set: CC-PVTZ
  Basis Set:
  Charge       = 0
  Multiplicity = 1
  Basis Set: CC-PVTZ
  Basis Set:

    Orbital Energies (a.u.)
    -----------------------

    Doubly Occupied:

       1A    -20.553631     2A    -11.324138     3A    -11.237139
       4A    -11.225470     5A    -11.206171     6A     -1.409419
       7A     -1.078229     8A     -0.973261     9A     -0.848260
      10A     -0.769963    11A     -0.687576    12A     -0.647688
      13A     -0.614465    14A     -0.585205    15A     -0.570235
      16A     -0.524001    17A     -0.497446    18A     -0.484725
      19A     -0.482542    20A     -0.411961

  @DF-RHF Final Energy:  -231.06993798852264

   => Energetics <=

    Nuclear Repulsion Energy =            176.3606979795598306
    One-Electron Energy =                -662.5982238170186065
    Two-Electron Energy =                 255.1675878489360798
    DFT Exchange-Correlation Energy =       0.0000000000000000
    Empirical Dispersion Energy =           0.0000000000000000
    PCM Polarization Energy =               0.0000000000000000
    EFP Energy =                            0.0000000000000000
    Total Energy =                       -231.0699379885226676
    Molecular point group: c1
  Basis Set: CC-PVTZ
  Basis Set:

  -Total Gradient:
     Atom            X                  Y                   Z
    ------   -----------------  -----------------  -----------------
       1       -0.000000965713     0.000002819089     0.000003286611
       2       -0.002517612639    -0.003625912524     0.000537506518
       3       -0.000670289352     0.002337019359     0.002461412948
       4        0.001909216970     0.002343866070    -0.000687940972
       5        0.000005341193     0.000001106015    -0.000001056801
       6        0.001286340308    -0.001052932850    -0.002317557649
       7       -0.000006439383    -0.000003376153     0.000008617800
       8       -0.000007978666    -0.000007182176     0.000005197978
       9       -0.000000839524     0.000004116730    -0.000002891007
      10       -0.000002363072    -0.000006275622    -0.000000689000
      11        0.000000850871     0.000016780715    -0.000005003950
      12       -0.000006387596    -0.000008456180    -0.000009767527
      13        0.000011126605    -0.000001572473     0.000008885051

  **** Optimization is complete! (in 10 steps) ****
    Final optimized geometry and variables:
    Molecular point group: c1

    Geometry (in Angstrom), charge = 0, multiplicity = 1:

    H            0.386830566143     0.425319642664     2.380111780868
    C            0.385244808585     0.072698947327     1.341063935115
    C           -0.682684882468     0.684332772714     0.470522736674
    O            1.207170838760    -0.696715964269     0.979826375004
    C           -1.013779094123    -0.090252944403    -0.806714521384
    H           -0.325398823371     1.681013337083     0.214016445392
    H           -1.567165580063     0.824013555367     1.083746365474
    C            0.020184110759     0.063637393143    -1.918765154971
    H           -1.976022218242     0.257217452926    -1.167757203036
    H           -1.134809932699    -1.140213812770    -0.564373920327
    H            0.127433391842     1.105407133298    -2.205112301297
    H           -0.285432715943    -0.488201952539    -2.800176558417
    H            0.988021330203    -0.304107598228    -1.609442781873

  Mulliken Charges: (a.u.)
   Center  Symbol    Alpha    Beta     Spin     Total
       1     H     0.44917  0.44917  0.00000  0.10167
       2     C     2.92096  2.92096  0.00000  0.15808
       3     C     3.09612  3.09612  0.00000 -0.19223
       4     O     4.16731  4.16731  0.00000 -0.33461
       5     C     3.08324  3.08324  0.00000 -0.16649
       6     H     0.44645  0.44645  0.00000  0.10709
       7     H     0.44050  0.44050  0.00000  0.11899
       8     C     3.14973  3.14973  0.00000 -0.29946
       9     H     0.44780  0.44780  0.00000  0.10439
      10     H     0.44928  0.44928  0.00000  0.10143
      11     H     0.45973  0.45973  0.00000  0.08053
      12     H     0.44950  0.44950  0.00000  0.10099
      13     H     0.44020  0.44020  0.00000  0.11960

   Total alpha = 20.00000, Total beta = 20.00000, Total charge = -0.00000

*** Psi4 exiting successfully. Buy a developer a beer!
