  ==> Input File <==

--------------------------------------------------------------------------
set {
	reference rhf
	basis 6-31G*
}

set_num_threads( 4 )
memory 2 gb

molecule MOL {
0 1

H	 4.616270	 0.385420	 0.121316
C	 3.757194	 -0.277639	 0.130888
C	 2.450748	 0.514049	 0.093601
H	 3.840837	 -0.937636	 -0.727969
H	 3.823236	 -0.890144	 1.025719
C	 1.216408	 -0.381846	 0.106814
H	 2.415668	 1.137861	 -0.794103
H	 2.413919	 1.188160	 0.947773
N	 -0.001146	 0.402135	 0.040529
H	 1.239719	 -1.036977	 -0.759918
H	 1.245590	 -1.032641	 0.987150
C	 -1.217365	 -0.386708	 0.039277
H	 -0.023708	 1.047434	 0.807420
C	 -2.452633	 0.504241	 -0.042481
H	 -1.189981	 -1.041789	 -0.827370
H	 -1.292746	 -1.037766	 0.916674
C	 -3.758029	 -0.289423	 -0.010781
H	 -2.394220	 1.093569	 -0.952170
H	 -2.440793	 1.210787	 0.785871
H	 -3.816659	 -0.981993	 -0.845726
H	 -4.617837	 0.370165	 -0.069296
H	 -3.847478	 -0.867502	 0.904682

	symmetry c1
}
set optking {
	frozen_dihedral = ("
		15 12 14 18
	")
}

ee = optimize('scf')
oeprop('DIPOLE', 'QUADRUPOLE', 'MULLIKEN_CHARGES')
f=open( 'psi4out.xyz', 'w' )
f.write( "22  " )
f.write( str(ee) + "\n" )
f.write( MOL.save_string_xyz() )
f.close()
--------------------------------------------------------------------------

    Molecular point group: c1
  Charge       = 0
  Multiplicity = 1
  Basis Set: 6-31G*
  Basis Set:
  @DF-RHF Final Energy:  -290.38321783931019
    Total Energy =                       -290.3832178393099639
    Molecular point group: c1
  Basis Set: 6-31G*
  Basis Set:
  Basis Set: 6-31G*
  Basis Set:
  @DF-RHF Final Energy:  -290.38322087935330
    Total Energy =                       -290.3832208793534733
  Basis Set: 6-31G*
  Basis Set:
  Basis Set: 6-31G*
  Basis Set:
  @DF-RHF Final Energy:  -290.38322310317318
    Total Energy =                       -290.3832231031730657
  Basis Set: 6-31G*
  Basis Set:
  Charge       = 0
  Multiplicity = 1
  Basis Set: 6-31G*
  Basis Set:

    Orbital Energies (a.u.)
    -----------------------

    Doubly Occupied:

       1A    -15.533560     2A    -11.237957     3A    -11.237902
       4A    -11.213519     5A    -11.213489     6A    -11.209686
       7A    -11.209630     8A     -1.205516     9A     -1.059234
      10A     -1.025874    11A     -0.928103    12A     -0.868266
      13A     -0.811098    14A     -0.793664    15A     -0.669002
      16A     -0.626452    17A     -0.614419    18A     -0.612737
      19A     -0.574210    20A     -0.563180    21A     -0.529634
      22A     -0.528218    23A     -0.515069    24A     -0.485053
      25A     -0.483145    26A     -0.474493    27A     -0.466088
      28A     -0.450515    29A     -0.358981

  @DF-RHF Final Energy:  -290.38322317591064

   => Energetics <=

    Nuclear Repulsion Energy =            313.1790157086879844
    One-Electron Energy =               -1012.1270902402509364
    Two-Electron Energy =                 408.5648513556524790
    DFT Exchange-Correlation Energy =       0.0000000000000000
    Empirical Dispersion Energy =           0.0000000000000000
    PCM Polarization Energy =               0.0000000000000000
    EFP Energy =                            0.0000000000000000
    Total Energy =                       -290.3832231759104729
    Molecular point group: c1
  Basis Set: 6-31G*
  Basis Set:

  -Total Gradient:
     Atom            X                  Y                   Z
    ------   -----------------  -----------------  -----------------
       1        0.000000625664     0.000000065986    -0.000000036636
       2        0.000000110657     0.000000185438     0.000000058963
       3        0.000000408827    -0.000002647360     0.000000537554
       4       -0.000000279705     0.000000272099     0.000000297404
       5       -0.000000024130    -0.000000014252    -0.000000076062
       6        0.000001207252     0.000010118087     0.000002731807
       7       -0.000000779225    -0.000000805786     0.000000383470
       8        0.000000239389     0.000000468556     0.000000134152
       9       -0.000001817080    -0.000005424251     0.000013541469
      10       -0.000001345186     0.000000590432     0.000000291979
      11        0.000002982412    -0.000001535543    -0.000000101670
      12       -0.000438019979    -0.000583782793     0.000258935274
      13        0.000010415685     0.000002961174    -0.000000440033
      14        0.000422196076     0.000608997450     0.000296760132
      15        0.000298643902     0.000390579482    -0.000292202158
      16       -0.000003391076     0.000013087993    -0.000000234198
      17       -0.000005672742     0.000000375067     0.000005197898
      18       -0.000272897238    -0.000422178666    -0.000288404273
      19       -0.000002466675    -0.000005810976     0.000000604317
      20        0.000003110383    -0.000000115653     0.000002971436
      21       -0.000003725954    -0.000002177382    -0.000003582726
      22       -0.000009521258    -0.000003209102     0.000002631901

  **** Optimization is complete! (in 4 steps) ****
    Final optimized geometry and variables:
    Molecular point group: c1

    Geometry (in Angstrom), charge = 0, multiplicity = 1:

    H            4.616973794505     0.381257038415     0.055121615593
    C            3.757963372883    -0.281890406201     0.066355742318
    C            2.451428620358     0.509833164576     0.034146160075
    H            3.839015021779    -0.940663143358    -0.793657791288
    H            3.826732554208    -0.895650067913     0.960129153680
    C            1.217201793638    -0.386144986450     0.048846062937
    H            2.413924308334     1.135366372591    -0.852218362451
    H            2.416834927411     1.182299173888     0.889778933530
    N           -0.000517919088     0.397927421188    -0.013016559445
    H            1.238494849644    -1.039837220935    -0.818996713964
    H            1.248649825886    -1.038440525596     0.928037387906
    C           -1.216921932567    -0.391029634578    -0.011424972482
    H           -0.020668654299     1.042523370875     0.754568217820
    C           -2.451299006378     0.500759882764    -0.098634834751
    H           -1.187765854683    -1.047014094353    -0.877227573339
    H           -1.292352455537    -1.038834181168     0.868247126795
    C           -3.756716159797    -0.293599585541    -0.076223086963
    H           -2.389459466662     1.088772714231    -1.008950993857
    H           -2.444809461656     1.206694721169     0.730070138721
    H           -3.805941508852    -0.991358719723    -0.907495162629
    H           -4.616189468169     0.365123016226    -0.148423387945
    H           -3.855968164519    -0.866193898557     0.841651918101

  Mulliken Charges: (a.u.)
   Center  Symbol    Alpha    Beta     Spin     Total
       1     H     0.41774  0.41774  0.00000  0.16452
       2     C     3.24326  3.24326  0.00000 -0.48652
       3     C     3.15558  3.15558  0.00000 -0.31115
       4     H     0.42070  0.42070  0.00000  0.15860
       5     H     0.42168  0.42168  0.00000  0.15665
       6     C     3.04630  3.04630  0.00000 -0.09260
       7     H     0.41298  0.41298  0.00000  0.17404
       8     H     0.42671  0.42671  0.00000  0.14658
       9     N     3.85858  3.85858  0.00000 -0.71716
      10     H     0.42180  0.42180  0.00000  0.15639
      11     H     0.43635  0.43635  0.00000  0.12730
      12     C     3.04653  3.04653  0.00000 -0.09306
      13     H     0.33539  0.33539  0.00000  0.32922
      14     C     3.15502  3.15502  0.00000 -0.31004
      15     H     0.42165  0.42165  0.00000  0.15669
      16     H     0.43623  0.43623  0.00000  0.12754
      17     C     3.24338  3.24338  0.00000 -0.48676
      18     H     0.41321  0.41321  0.00000  0.17358
      19     H     0.42661  0.42661  0.00000  0.14678
      20     H     0.42085  0.42085  0.00000  0.15831
      21     H     0.41777  0.41777  0.00000  0.16446
      22     H     0.42168  0.42168  0.00000  0.15664

   Total alpha = 29.00000, Total beta = 29.00000, Total charge =  0.00000
