  ==> Input File <==

--------------------------------------------------------------------------
set {
	reference rhf
	basis 6-31G*
}

set_num_threads( 4 )
memory 2 gb

molecule MOL {
0 1

H	 -2.646374	 -0.642757	 1.268656
C	 -2.083525	 -0.384536	 0.393091
O	 -0.807605	 -0.127164	 0.768327
F	 -2.118945	 -1.383102	 -0.486752
F	 -2.621877	 0.670592	 -0.209486
C	 0.084052	 0.273579	 -0.209957
C	 1.307561	 -0.626011	 -0.091963
Cl	 0.535856	 1.972610	 0.005409
H	 -0.320260	 0.166468	 -1.201336
F	 2.200145	 -0.310035	 -1.006071
F	 0.937458	 -1.874583	 -0.295752
F	 1.867746	 -0.546750	 1.090358

	symmetry c1
}
set optking {
	frozen_dihedral = ("
		9 6 3 2
	")
}

ee = optimize('scf')
oeprop('DIPOLE', 'QUADRUPOLE', 'MULLIKEN_CHARGES')
f=open( 'psi4out.xyz', 'w' )
f.write( "12  " )
f.write( str(ee) + "\n" )
f.write( MOL.save_string_xyz() )
f.close()
--------------------------------------------------------------------------

    Molecular point group: c1
  Charge       = 0
  Multiplicity = 1
  Basis Set: 6-31G*
  Basis Set:
  @DF-RHF Final Energy: -1146.31433345042637
    Total Energy =                      -1146.3143334504263748
    Molecular point group: c1
  Basis Set: 6-31G*
  Basis Set:
  Basis Set: 6-31G*
  Basis Set:
  @DF-RHF Final Energy: -1146.31434721165988
    Total Energy =                      -1146.3143472116598787
  Basis Set: 6-31G*
  Basis Set:
  Basis Set: 6-31G*
  Basis Set:
  @DF-RHF Final Energy: -1146.31435034865035
    Total Energy =                      -1146.3143503486503505
  Basis Set: 6-31G*
  Basis Set:
  Charge       = 0
  Multiplicity = 1
  Basis Set: 6-31G*
  Basis Set:

    Orbital Energies (a.u.)
    -----------------------

    Doubly Occupied:

       1A   -104.844096     2A    -26.359878     3A    -26.358379
       4A    -26.357452     5A    -26.346522     6A    -26.346142
       7A    -20.649494     8A    -11.527183     9A    -11.489607
      10A    -11.400666    11A    -10.578796    12A     -8.048158
      13A     -8.044615    14A     -8.044521    15A     -1.760868
      16A     -1.717868    17A     -1.657420    18A     -1.655927
      19A     -1.638510    20A     -1.485994    21A     -1.180148
      22A     -1.051257    23A     -0.986871    24A     -0.919544
      25A     -0.859645    26A     -0.852311    27A     -0.845065
      28A     -0.824681    29A     -0.811359    30A     -0.789587
      31A     -0.727541    32A     -0.725675    33A     -0.705792
      34A     -0.701600    35A     -0.677860    36A     -0.674875
      37A     -0.658096    38A     -0.657053    39A     -0.645587
      40A     -0.634142    41A     -0.597242    42A     -0.581015
      43A     -0.524368    44A     -0.477063    45A     -0.468947

  @DF-RHF Final Energy: -1146.31435089962542

   => Energetics <=

    Nuclear Repulsion Energy =            738.6421217386458693
    One-Electron Energy =               -3060.1341035117075080
    Two-Electron Energy =                1175.1776308734356462
    DFT Exchange-Correlation Energy =       0.0000000000000000
    Empirical Dispersion Energy =           0.0000000000000000
    PCM Polarization Energy =               0.0000000000000000
    EFP Energy =                            0.0000000000000000
    Total Energy =                      -1146.3143508996258788
    Molecular point group: c1
  Basis Set: 6-31G*
  Basis Set:

  -Total Gradient:
     Atom            X                  Y                   Z
    ------   -----------------  -----------------  -----------------
       1        0.000033997218    -0.000001033162     0.000010572974
       2        0.000091185609    -0.000432307024    -0.000120640381
       3       -0.000185284398     0.000751375194     0.000072904173
       4       -0.000004001486    -0.000004823758    -0.000019821376
       5        0.000093075853     0.000002856291     0.000035429785
       6        0.000304735333    -0.000807521812    -0.000055445343
       7        0.000028787841    -0.000042121754    -0.000045638875
       8       -0.000012268490     0.000078398580     0.000048616592
       9       -0.000188123639     0.000412842545     0.000028531467
      10       -0.000072112574     0.000013019225     0.000008357782
      11       -0.000059399152    -0.000029421809     0.000019697043
      12       -0.000030592151     0.000058737429     0.000017436157

  **** Optimization is complete! (in 4 steps) ****
    Final optimized geometry and variables:
    Molecular point group: c1

    Geometry (in Angstrom), charge = 0, multiplicity = 1:

    H           -2.645205238483    -0.607108110701     1.284274424358
    C           -2.081922613994    -0.341334653870     0.411346901044
    O           -0.805942482438    -0.088775510597     0.788589950136
    F           -2.119867387267    -1.330089499825    -0.478972190920
    F           -2.617634382178     0.722094129139    -0.180067334891
    C            0.086915473274     0.308575942674    -0.190667793522
    C            1.314282225537    -0.585340661326    -0.071915244346
    CL           0.529060119976     2.009863480182     0.024333681235
    H           -0.318240412420     0.202267474778    -1.181681748717
    F            2.202054808825    -0.272069534204    -0.991462971927
    F            0.948417601948    -1.836605691503    -0.265433747582
    F            1.878932284643    -0.496097419965     1.107820348404

  Mulliken Charges: (a.u.)
   Center  Symbol    Alpha    Beta     Spin     Total
       1     H     0.40105  0.40105  0.00000  0.19791
       2     C     2.56604  2.56604  0.00000  0.86792
       3     O     4.29777  4.29777  0.00000 -0.59553
       4     F     4.68615  4.68615  0.00000 -0.37230
       5     F     4.68481  4.68481  0.00000 -0.36962
       6     C     3.04765  3.04765  0.00000 -0.09531
       7     C     2.43354  2.43354  0.00000  1.13292
       8    CL     8.49862  8.49862  0.00000  0.00275
       9     H     0.36634  0.36634  0.00000  0.26733
      10     F     4.67382  4.67382  0.00000 -0.34764
      11     F     4.67579  4.67579  0.00000 -0.35158
      12     F     4.66843  4.66843  0.00000 -0.33685

   Total alpha = 45.00000, Total beta = 45.00000, Total charge = -0.00000
