                              Psi4 1.0.54 Driver

  ==> Input File <==

--------------------------------------------------------------------------
set {
	reference rhf
	basis cc-pvtz
}

set_num_threads( 4 )
memory 2 gb

molecule MOL {
0 1

H	 3.721907	 -0.933076	 -0.066039
O	 2.824271	 -1.154299	 0.131461
C	 2.076458	 -0.067370	 -0.038225
C	 0.626018	 -0.337582	 0.258241
O	 2.538288	 0.965419	 -0.381593
C	 -0.267326	 0.883135	 0.076490
H	 0.325620	 -1.161483	 -0.378003
H	 0.574537	 -0.713685	 1.275261
C	 -1.726822	 0.642622	 0.463839
H	 -0.210803	 1.217591	 -0.953497
H	 0.129920	 1.693110	 0.675679
C	 -2.756516	 1.138285	 -0.550108
H	 -1.909283	 1.139600	 1.411982
H	 -1.883529	 -0.418444	 0.645577
C	 -4.191904	 0.966881	 -0.063531
H	 -2.571205	 2.187931	 -0.762092
H	 -2.639518	 0.610909	 -1.491459
H	 -4.901463	 1.327591	 -0.799125
H	 -4.361007	 1.515682	 0.856751
H	 -4.417390	 -0.076737	 0.129269

	symmetry c1
}
set optking {
	frozen_dihedral = ("
		12 9 6 10
	")
}

ee,wfn = optimize('scf', return_wfn=True)
oeprop( wfn, 'DIPOLE', 'QUADRUPOLE', 'MULLIKEN_CHARGES')
f=open( 'psi4out.xyz', 'w' )
f.write( "20  " )
f.write( str(ee) + "\n" )
f.write( MOL.save_string_xyz() )
f.close()
--------------------------------------------------------------------------

    Molecular point group: c1
  Charge       = 0
  Multiplicity = 1
  Basis Set: CC-PVTZ
  Basis Set:
  @DF-RHF Final Energy:  -384.09119951372207
    Total Energy =                       -384.0911995137219037
    Molecular point group: c1
  Basis Set: CC-PVTZ
  Basis Set:
  Basis Set: CC-PVTZ
  Basis Set:
  @DF-RHF Final Energy:  -384.09173102441775
    Total Energy =                       -384.0917310244178680
  Basis Set: CC-PVTZ
  Basis Set:
  Basis Set: CC-PVTZ
  Basis Set:
  @DF-RHF Final Energy:  -384.09160255867681
    Total Energy =                       -384.0916025586769820
  Basis Set: CC-PVTZ
  Basis Set:
  Basis Set: CC-PVTZ
  Basis Set:
  @DF-RHF Final Energy:  -384.09177833854500
    Total Energy =                       -384.0917783385452822
  Basis Set: CC-PVTZ
  Basis Set:
  Basis Set: CC-PVTZ
  Basis Set:
  @DF-RHF Final Energy:  -384.09178947710075
    Total Energy =                       -384.0917894771007468
  Basis Set: CC-PVTZ
  Basis Set:
  Basis Set: CC-PVTZ
  Basis Set:
  @DF-RHF Final Energy:  -384.09179164354697
    Total Energy =                       -384.0917916435473671
  Basis Set: CC-PVTZ
  Basis Set:
  Charge       = 0
  Multiplicity = 1
  Basis Set: CC-PVTZ
  Basis Set:

    Orbital Energies (a.u.)
    -----------------------

    Doubly Occupied:

       1A    -20.603992     2A    -20.540669     3A    -11.373404
       4A    -11.239768     5A    -11.220406     6A    -11.218129
       7A    -11.217181     8A    -11.209264     9A     -1.477554
      10A     -1.369098    11A     -1.095411    12A     -1.043946
      13A     -0.959596    14A     -0.870316    15A     -0.807031
      16A     -0.790767    17A     -0.703816    18A     -0.691090
      19A     -0.667826    20A     -0.637488    21A     -0.600861
      22A     -0.596138    23A     -0.570657    24A     -0.561844
      25A     -0.543413    26A     -0.507103    27A     -0.494070
      28A     -0.484422    29A     -0.473424    30A     -0.467656
      31A     -0.459677    32A     -0.443883

  @DF-RHF Final Energy:  -384.09179238364163

   => Energetics <=

    Nuclear Repulsion Energy =            372.6322803827658845
    One-Electron Energy =               -1261.5683404007986610
    Two-Electron Energy =                 504.8442676343910307
    DFT Exchange-Correlation Energy =       0.0000000000000000
    Empirical Dispersion Energy =           0.0000000000000000
    PCM Polarization Energy =               0.0000000000000000
    EFP Energy =                            0.0000000000000000
    Total Energy =                       -384.0917923836417458
    Molecular point group: c1
  Basis Set: CC-PVTZ
  Basis Set:

  -Total Gradient:
     Atom            X                  Y                   Z
    ------   -----------------  -----------------  -----------------
       1       -0.000004145765     0.000003871609     0.000001195169
       2        0.000009289187    -0.000022985125    -0.000000435034
       3       -0.000011741266     0.000034805049    -0.000011967355
       4        0.000006595986    -0.000011191152    -0.000015679901
       5       -0.000001014063    -0.000012244150     0.000009853130
       6        0.000172695233    -0.003984866397    -0.001443385368
       7       -0.000000574664     0.000000776637     0.000008105951
       8        0.000002024285     0.000006816515     0.000006521067
       9       -0.000032063647     0.003140299222     0.001526757904
      10       -0.000135267551     0.002645655972     0.000867648872
      11       -0.000000304982    -0.000007907175    -0.000005149570
      12       -0.000006835964    -0.001786969435    -0.000946144334
      13       -0.000002100754     0.000000650225     0.000001273997
      14       -0.000001793204     0.000001272807    -0.000003717938
      15       -0.000000800775    -0.000008515694     0.000004609722
      16        0.000003083395     0.000000002443     0.000002243491
      17       -0.000000641745     0.000000129981    -0.000000560526
      18        0.000003778785    -0.000000452490    -0.000001098845
      19        0.000001462182     0.000000555660    -0.000000505785
      20       -0.000001644666     0.000000295499     0.000000435353

  **** Optimization is complete! (in 7 steps) ****
    Final optimized geometry and variables:
    Molecular point group: c1

    Geometry (in Angstrom), charge = 0, multiplicity = 1:

    H            3.719512021194    -1.435835530708    -0.178133559046
    O            2.825447707790    -1.611821022509     0.073696151368
    C            2.117541669034    -0.496440553569    -0.081460549240
    C            0.675337908566    -0.694018042201     0.299823021889
    O            2.603363471616     0.507139933530    -0.474952740634
    C           -0.179817880187     0.553839329552     0.135930778840
    H            0.295206257954    -1.513981415206    -0.300764938438
    H            0.661629986967    -1.048522579766     1.325474082032
    C           -1.645366090718     0.338127841303     0.557912449315
    H           -0.132105122007     0.895533373381    -0.890807472425
    H            0.258625574544     1.355484700004     0.717288863217
    C           -2.654051092180     0.876492906619    -0.454102755640
    H           -1.822392077087     0.797702453589     1.524950658824
    H           -1.837548873318    -0.722957868166     0.695092018418
    C           -4.102009339821     0.681310120921    -0.019193587129
    H           -2.466572651155     1.933587488615    -0.622018770393
    H           -2.492781764020     0.384559914856    -1.409310799823
    H           -4.790251284954     1.066847797905    -0.762420471225
    H           -4.302709721843     1.194901954682     0.915146220254
    H           -4.328717021006    -0.369637271627     0.127718891200

  Mulliken Charges: (a.u.)
   Center  Symbol    Alpha    Beta     Spin     Total
       1     H     0.38237  0.38237  0.00000  0.23525
       2     O     4.16003  4.16003  0.00000 -0.32006
       3     C     2.80682  2.80682  0.00000  0.38637
       4     C     3.11021  3.11021  0.00000 -0.22042
       5     O     4.19108  4.19108  0.00000 -0.38216
       6     C     3.09132  3.09132  0.00000 -0.18264
       7     H     0.43757  0.43757  0.00000  0.12486
       8     H     0.43617  0.43617  0.00000  0.12766
       9     C     3.09258  3.09258  0.00000 -0.18517
      10     H     0.44527  0.44527  0.00000  0.10945
      11     H     0.44276  0.44276  0.00000  0.11448
      12     C     3.08367  3.08367  0.00000 -0.16734
      13     H     0.44956  0.44956  0.00000  0.10088
      14     H     0.45679  0.45679  0.00000  0.08643
      15     C     3.15042  3.15042  0.00000 -0.30083
      16     H     0.45150  0.45150  0.00000  0.09699
      17     H     0.45410  0.45410  0.00000  0.09181
      18     H     0.44774  0.44774  0.00000  0.10452
      19     H     0.45468  0.45468  0.00000  0.09065
      20     H     0.45536  0.45536  0.00000  0.08928

   Total alpha = 32.00000, Total beta = 32.00000, Total charge = -0.00000

*** Psi4 exiting successfully. Buy a developer a beer!
