  ==> Input File <==

--------------------------------------------------------------------------
set {
	reference rhf
	basis cc-pvtz
}

set_num_threads( 4 )
memory 2 gb

molecule MOL {
0 1

H	 -0.726336	 0.067703	 -1.994615
C	 -0.413276	 -0.484933	 -1.134895
C	 -0.410675	 -1.865033	 -1.127785
C	 0.000000	 0.179985	 0.000046
H	 -0.728445	 -2.400759	 -2.000444
C	 0.000003	 -2.552036	 -0.000011
N	 0.000000	 1.644631	 0.000076
C	 0.413275	 -0.484980	 1.134961
H	 0.000000	 -3.625035	 -0.000032
C	 0.410677	 -1.865080	 1.127792
O	 1.050559	 2.194174	 -0.000073
O	 -1.050559	 2.194174	 -0.000074
H	 0.726343	 0.067622	 1.994700
H	 0.728443	 -2.400841	 2.000431

	symmetry c1
}
set optking {
	frozen_dihedral = ("
		2 4 7 11
	")
}

ee = optimize('scf')
oeprop('DIPOLE', 'QUADRUPOLE', 'MULLIKEN_CHARGES')
f=open( 'psi4out.xyz', 'w' )
f.write( "14  " )
f.write( str(ee) + "\n" )
f.write( MOL.save_string_xyz() )
f.close()
--------------------------------------------------------------------------

    Molecular point group: c1
  Charge       = 0
  Multiplicity = 1
  Basis Set: CC-PVTZ
  Basis Set:
  @DF-RHF Final Energy:  -434.32124814605203
    Total Energy =                       -434.3212481460519712
    Molecular point group: c1
  Basis Set: CC-PVTZ
  Basis Set:
  Basis Set: CC-PVTZ
  Basis Set:
  @DF-RHF Final Energy:  -434.31502789754632
    Total Energy =                       -434.3150278975463152
  Basis Set: CC-PVTZ
  Basis Set:
  Basis Set: CC-PVTZ
  Basis Set:
  @DF-RHF Final Energy:  -434.32137497260129
    Total Energy =                       -434.3213749726016886
  Basis Set: CC-PVTZ
  Basis Set:
  Basis Set: CC-PVTZ
  Basis Set:
  @DF-RHF Final Energy:  -434.32166459425292
    Total Energy =                       -434.3216645942526384
  Basis Set: CC-PVTZ
  Basis Set:
  Basis Set: CC-PVTZ
  Basis Set:
  @DF-RHF Final Energy:  -434.32166574809474
    Total Energy =                       -434.3216657480946878
  Basis Set: CC-PVTZ
  Basis Set:
  Charge       = 0
  Multiplicity = 1
  Basis Set: CC-PVTZ
  Basis Set:

    Orbital Energies (a.u.)
    -----------------------

    Doubly Occupied:

       1A    -20.597692     2A    -20.597525     3A    -15.848086
       4A    -11.307377     5A    -11.267595     6A    -11.267457
       7A    -11.260854     8A    -11.260352     9A    -11.258713
      10A     -1.644993    11A     -1.428123    12A     -1.206473
      13A     -1.096776    14A     -1.056811    15A     -0.959310
      16A     -0.874307    17A     -0.831151    18A     -0.786443
      19A     -0.740635    20A     -0.737934    21A     -0.717739
      22A     -0.652837    23A     -0.650680    24A     -0.625952
      25A     -0.561245    26A     -0.551754    27A     -0.533748
      28A     -0.499853    29A     -0.486625    30A     -0.458709
      31A     -0.372232    32A     -0.370523

  @DF-RHF Final Energy:  -434.32166601833666

   => Energetics <=

    Nuclear Repulsion Energy =            417.5013125554690419
    One-Electron Energy =               -1418.6249539594105045
    Two-Electron Energy =                 566.8019753856049192
    DFT Exchange-Correlation Energy =       0.0000000000000000
    Empirical Dispersion Energy =           0.0000000000000000
    PCM Polarization Energy =               0.0000000000000000
    EFP Energy =                            0.0000000000000000
    Total Energy =                       -434.3216660183366002
    Molecular point group: c1
  Basis Set: CC-PVTZ
  Basis Set:

  -Total Gradient:
     Atom            X                  Y                   Z
    ------   -----------------  -----------------  -----------------
       1       -0.000003582167     0.000008482992    -0.000012346010
       2        0.003689760929    -0.000078518924    -0.001216570756
       3        0.000031856907     0.000006720429     0.000003538787
       4       -0.005233838008     0.000108260421     0.000096063732
       5       -0.000002411241     0.000002238833     0.000002912022
       6       -0.000000621847    -0.000001236220     0.000000480694
       7        0.001483046387     0.000004429616     0.005694632306
       8       -0.000043407087    -0.000004861896    -0.000013410676
       9       -0.000000008495    -0.000000873836    -0.000000447688
      10       -0.000029625643     0.000010463220    -0.000000611056
      11        0.000130108793    -0.000054419163    -0.004556125753
      12       -0.000027115224    -0.000012150863    -0.000007410119
      13        0.000002585394     0.000009013888     0.000012326109
      14        0.000003251304     0.000002451507    -0.000003031592

  **** Optimization is complete! (in 6 steps) ****
    Final optimized geometry and variables:
    Molecular point group: c1

    Geometry (in Angstrom), charge = 0, multiplicity = 1:

    H           -0.756782178197     0.078509983954    -1.979442448579
    C           -0.429660529178    -0.475494636293    -1.122433581588
    C           -0.406647792935    -1.856628417374    -1.124740664235
    C           -0.027985235348     0.178457472449     0.017474658726
    H           -0.710976378990    -2.390311766119    -2.003597957067
    C            0.005229665075    -2.546583709946     0.000181295077
    N            0.000772275791     1.642680030959     0.004781342051
    C            0.412461513313    -0.479915481856     1.140431281082
    H            0.014622513332    -3.619172612395    -0.005386952302
    C            0.410096110635    -1.861083962088     1.130503695096
    O            1.065707931893     2.161030661548     0.023220679372
    O           -1.040648046354     2.203822741137    -0.059046268698
    H            0.746064579063     0.070904504704     1.997038663484
    H            0.733296509583    -2.398350427543     2.000391790921

  Mulliken Charges: (a.u.)
   Center  Symbol    Alpha    Beta     Spin     Total
       1     H     0.41211  0.41211  0.00000  0.17578
       2     C     3.08641  3.08641  0.00000 -0.17282
       3     C     3.06527  3.06527  0.00000 -0.13054
       4     C     2.92590  2.92590  0.00000  0.14820
       5     H     0.41734  0.41734  0.00000  0.16532
       6     C     3.07586  3.07586  0.00000 -0.15172
       7     N     3.28880  3.28880  0.00000  0.42240
       8     C     3.08634  3.08634  0.00000 -0.17269
       9     H     0.41789  0.41789  0.00000  0.16422
      10     C     3.06479  3.06479  0.00000 -0.12959
      11     O     4.16371  4.16371  0.00000 -0.32741
      12     O     4.16507  4.16507  0.00000 -0.33014
      13     H     0.41315  0.41315  0.00000  0.17370
      14     H     0.41735  0.41735  0.00000  0.16529

   Total alpha = 32.00000, Total beta = 32.00000, Total charge = -0.00000
