  ==> Input File <==

--------------------------------------------------------------------------
set {
	reference rhf
	basis cc-pvtz
}

set_num_threads( 4 )
memory 2 gb

molecule MOL {
0 1

H	 2.311672	 1.588164	 1.386843
N	 1.446418	 1.094002	 1.334601
C	 1.263552	 0.494993	 0.021953
H	 0.719936	 1.750472	 1.531088
C	 -0.016533	 -0.325589	 -0.026925
H	 2.111884	 -0.154321	 -0.167040
H	 1.248211	 1.231764	 -0.782359
C	 -1.280353	 0.525521	 0.047747
H	 -0.016686	 -0.912532	 -0.939714
H	 -0.014099	 -1.037598	 0.796369
C	 -2.560681	 -0.301323	 -0.007747
H	 -1.279957	 1.241025	 -0.770189
H	 -1.270445	 1.110526	 0.963468
H	 -2.617064	 -0.872870	 -0.928010
H	 -3.439525	 0.331102	 0.043462
H	 -2.609427	 -1.002736	 0.818585

	symmetry c1
}
set optking {
	frozen_dihedral = ("
		6 3 5 9
	")
}

ee = optimize('scf')
oeprop('DIPOLE', 'QUADRUPOLE', 'MULLIKEN_CHARGES')
f=open( 'psi4out.xyz', 'w' )
f.write( "16  " )
f.write( str(ee) + "\n" )
f.write( MOL.save_string_xyz() )
f.close()
--------------------------------------------------------------------------

    Molecular point group: c1
  Charge       = 0
  Multiplicity = 1
  Basis Set: CC-PVTZ
  Basis Set:
  @DF-RHF Final Energy:  -212.39889247277199
    Total Energy =                       -212.3988924727719905
    Molecular point group: c1
  Basis Set: CC-PVTZ
  Basis Set:
  Basis Set: CC-PVTZ
  Basis Set:
  @DF-RHF Final Energy:  -212.39917599743058
    Total Energy =                       -212.3991759974305751
  Basis Set: CC-PVTZ
  Basis Set:
  Basis Set: CC-PVTZ
  Basis Set:
  @DF-RHF Final Energy:  -212.39925891019621
    Total Energy =                       -212.3992589101961812
  Basis Set: CC-PVTZ
  Basis Set:
  Basis Set: CC-PVTZ
  Basis Set:
  @DF-RHF Final Energy:  -212.39926511561490
    Total Energy =                       -212.3992651156148668
  Basis Set: CC-PVTZ
  Basis Set:
  Basis Set: CC-PVTZ
  Basis Set:
  @DF-RHF Final Energy:  -212.39926613780494
    Total Energy =                       -212.3992661378049434
  Basis Set: CC-PVTZ
  Basis Set:
  Charge       = 0
  Multiplicity = 1
  Basis Set: CC-PVTZ
  Basis Set:

    Orbital Energies (a.u.)
    -----------------------

    Doubly Occupied:

       1A    -15.526701     2A    -11.238479     3A    -11.212779
       4A    -11.207258     5A    -11.205682     6A     -1.178508
       7A     -1.058416     8A     -0.961621     9A     -0.851180
      10A     -0.781950    11A     -0.666103    12A     -0.647268
      13A     -0.596347    14A     -0.586791    15A     -0.550877
      16A     -0.524903    17A     -0.515138    18A     -0.472125
      19A     -0.466485    20A     -0.453591    21A     -0.383918

  @DF-RHF Final Energy:  -212.39926626475568

   => Energetics <=

    Nuclear Repulsion Energy =            188.9626803888968993
    One-Electron Energy =                -660.5516548100578120
    Two-Electron Energy =                 259.1897081564052314
    DFT Exchange-Correlation Energy =       0.0000000000000000
    Empirical Dispersion Energy =           0.0000000000000000
    PCM Polarization Energy =               0.0000000000000000
    EFP Energy =                            0.0000000000000000
    Total Energy =                       -212.3992662647556813
    Molecular point group: c1
  Basis Set: CC-PVTZ
  Basis Set:

  -Total Gradient:
     Atom            X                  Y                   Z
    ------   -----------------  -----------------  -----------------
       1       -0.000009327367    -0.000003362854    -0.000003604664
       2       -0.000024777182     0.000006832595    -0.000000401239
       3        0.000250838723    -0.000452184810     0.001456287024
       4        0.000001739889     0.000010184904     0.000014176918
       5       -0.000647866324     0.001071877690    -0.000906991270
       6       -0.000088725696     0.000191642639    -0.001110184422
       7       -0.000003733486    -0.000001405967    -0.000000404832
       8        0.000009987489     0.000004419029     0.000010682103
       9        0.000514305409    -0.000830533814     0.000536314381
      10        0.000005158855    -0.000002259224     0.000005836309
      11       -0.000008698822    -0.000002228622    -0.000008148724
      12       -0.000003926991    -0.000000985598     0.000006484773
      13       -0.000001137048     0.000006663521     0.000002127729
      14       -0.000000073219     0.000000251195    -0.000001864823
      15        0.000002547895    -0.000002809165    -0.000002754844
      16        0.000003687872     0.000003898479     0.000002445579

  **** Optimization is complete! (in 6 steps) ****
    Final optimized geometry and variables:
    Molecular point group: c1

    Geometry (in Angstrom), charge = 0, multiplicity = 1:

    H            2.606431855372     1.195876070694     1.096224276911
    N            1.693896194466     0.796244806843     1.041864498794
    C            1.477350231476     0.177864088824    -0.257853564138
    H            1.043754480377     1.534990416389     1.205747952337
    C            0.188984937105    -0.634553668119    -0.297462080717
    H            2.311905898713    -0.485941373678    -0.451462206625
    H            1.466466407074     0.902982892057    -1.073697020266
    C           -1.087565489701     0.200023937036    -0.228991463146
    H            0.183166191618    -1.222454325616    -1.211864538110
    H            0.204300260901    -1.340635620561     0.527117541832
    C           -2.353199847118    -0.645993743138    -0.323616364619
    H           -1.082876433648     0.931858612503    -1.033095714170
    H           -1.109973606700     0.761111004945     0.700263038054
    H           -2.386486937799    -1.196275831676    -1.258083648337
    H           -3.243492334883    -0.029840888438    -0.270595247930
    H           -2.400946800739    -1.367164540594     0.485270271050

  Mulliken Charges: (a.u.)
   Center  Symbol    Alpha    Beta     Spin     Total
       1     H     0.42902  0.42902  0.00000  0.14196
       2     N     3.68955  3.68955  0.00000 -0.37910
       3     C     3.03846  3.03846  0.00000 -0.07692
       4     H     0.42991  0.42991  0.00000  0.14017
       5     C     3.08213  3.08213  0.00000 -0.16426
       6     H     0.45172  0.45172  0.00000  0.09657
       7     H     0.46548  0.46548  0.00000  0.06905
       8     C     3.08817  3.08817  0.00000 -0.17634
       9     H     0.45493  0.45493  0.00000  0.09014
      10     H     0.45215  0.45215  0.00000  0.09570
      11     C     3.14929  3.14929  0.00000 -0.29858
      12     H     0.45559  0.45559  0.00000  0.08882
      13     H     0.45576  0.45576  0.00000  0.08848
      14     H     0.45522  0.45522  0.00000  0.08956
      15     H     0.44917  0.44917  0.00000  0.10165
      16     H     0.45346  0.45346  0.00000  0.09308

   Total alpha = 21.00000, Total beta = 21.00000, Total charge = -0.00000
