  ==> Input File <==

--------------------------------------------------------------------------
set {
	reference rhf
	basis 6-31G*
}

set_num_threads( 4 )
memory 2 gb

molecule MOL {
0 1

H	 -0.000158	 1.970498	 0.756846
O	 -0.000074	 1.880206	 -0.189275
C	 -0.000015	 0.544847	 -0.545111
C	 1.396829	 -0.040222	 -0.364816
C	 -0.562264	 0.383042	 -1.953548
H	 -0.660990	 0.023197	 0.130978
F	 1.763448	 0.070427	 0.894109
F	 1.450860	 -1.313304	 -0.694516
F	 2.279840	 0.614754	 -1.101630
F	 -1.795765	 0.839663	 -1.992378
F	 -0.580907	 -0.874436	 -2.341852
F	 0.151938	 1.074284	 -2.827434

	symmetry c1
}
set optking {
	frozen_dihedral = ("
		6 3 2 1
	")
}

ee = optimize('scf')
oeprop('DIPOLE', 'QUADRUPOLE', 'MULLIKEN_CHARGES')
f=open( 'psi4out.xyz', 'w' )
f.write( "12  " )
f.write( str(ee) + "\n" )
f.write( MOL.save_string_xyz() )
f.close()
--------------------------------------------------------------------------

    Molecular point group: c1
  Charge       = 0
  Multiplicity = 1
  Basis Set: 6-31G*
  Basis Set:
  @DF-RHF Final Energy:  -786.27403047024052
    Total Energy =                       -786.2740304702405183
    Molecular point group: c1
  Basis Set: 6-31G*
  Basis Set:
  Basis Set: 6-31G*
  Basis Set:
  @DF-RHF Final Energy:  -786.27594277540095
    Total Energy =                       -786.2759427754008357
  Basis Set: 6-31G*
  Basis Set:
  Basis Set: 6-31G*
  Basis Set:
  @DF-RHF Final Energy:  -786.27635955777123
    Total Energy =                       -786.2763595577708884
  Basis Set: 6-31G*
  Basis Set:
  Basis Set: 6-31G*
  Basis Set:
  @DF-RHF Final Energy:  -786.27640328654797
    Total Energy =                       -786.2764032865487707
  Basis Set: 6-31G*
  Basis Set:
  Basis Set: 6-31G*
  Basis Set:
  @DF-RHF Final Energy:  -786.27641055517165
    Total Energy =                       -786.2764105551714238
  Basis Set: 6-31G*
  Basis Set:
  Basis Set: 6-31G*
  Basis Set:
  @DF-RHF Final Energy:  -786.27641181493027
    Total Energy =                       -786.2764118149304977
  Basis Set: 6-31G*
  Basis Set:
  Charge       = 0
  Multiplicity = 1
  Basis Set: 6-31G*
  Basis Set:

    Orbital Energies (a.u.)
    -----------------------

    Doubly Occupied:

       1A    -26.359798     2A    -26.358033     3A    -26.355686
       4A    -26.355385     5A    -26.352195     6A    -26.351145
       7A    -20.616875     8A    -11.522150     9A    -11.521499
      10A    -11.349371    11A     -1.759949    12A     -1.753132
      13A     -1.656112    14A     -1.655078    15A     -1.650382
      16A     -1.649162    17A     -1.435068    18A     -1.102046
      19A     -0.992908    20A     -0.932317    21A     -0.862828
      22A     -0.854816    23A     -0.850457    24A     -0.838672
      25A     -0.828023    26A     -0.779894    27A     -0.761442
      28A     -0.726425    29A     -0.719856    30A     -0.715812
      31A     -0.712346    32A     -0.679777    33A     -0.675974
      34A     -0.665894    35A     -0.665129    36A     -0.657438
      37A     -0.650748    38A     -0.627890    39A     -0.617077
      40A     -0.553015    41A     -0.505410

  @DF-RHF Final Energy:  -786.27641205192265

   => Energetics <=

    Nuclear Repulsion Energy =            670.0554537002766438
    One-Electron Energy =               -2427.3092939521529843
    Two-Electron Energy =                 970.9774281999535788
    DFT Exchange-Correlation Energy =       0.0000000000000000
    Empirical Dispersion Energy =           0.0000000000000000
    PCM Polarization Energy =               0.0000000000000000
    EFP Energy =                            0.0000000000000000
    Total Energy =                       -786.2764120519226481
    Molecular point group: c1
  Basis Set: 6-31G*
  Basis Set:

  -Total Gradient:
     Atom            X                  Y                   Z
    ------   -----------------  -----------------  -----------------
       1       -0.000755417239    -0.000007637164    -0.000007762259
       2        0.001093727695    -0.000026389597     0.000130997728
       3       -0.000830797396     0.000111280398    -0.000580878986
       4       -0.000047029461     0.000000898892     0.000007557352
       5        0.000005794932     0.000000217324     0.000040450890
       6        0.000503744817    -0.000105362368     0.000431522245
       7        0.000024004902     0.000019232510    -0.000006812320
       8        0.000019666728     0.000005850536    -0.000018127326
       9       -0.000002491462    -0.000021584790     0.000030449379
      10        0.000000758077     0.000007154052    -0.000018357976
      11        0.000003681725     0.000018678010     0.000003940426
      12       -0.000015643305    -0.000002337801    -0.000012979159

  **** Optimization is complete! (in 7 steps) ****
    Final optimized geometry and variables:
    Molecular point group: c1

    Geometry (in Angstrom), charge = 0, multiplicity = 1:

    H           -0.448730508028     1.659480649607     1.870259426749
    O           -0.435071933924     1.553629781722     0.928766348257
    C           -0.433634282635     0.212593543724     0.590310029875
    C            0.970520345987    -0.358447344814     0.753919186019
    C           -0.977242276118     0.117066251401    -0.828402105605
    H           -1.086962139316    -0.381036824523     1.219983085944
    F            1.371688316719    -0.123235474489     1.995330425469
    F            0.987011348026    -1.663545513490     0.569343210096
    F            1.841466557768     0.186250267901    -0.063029777640
    F           -2.231612077605     0.519426097587    -0.846199598829
    F           -0.946520590252    -1.132476799683    -1.254285993063
    F           -0.296134524162     0.855931913545    -1.672838166705

  Mulliken Charges: (a.u.)
   Center  Symbol    Alpha    Beta     Spin     Total
       1     H     0.26419  0.26419  0.00000  0.47162
       2     O     4.36232  4.36232  0.00000 -0.72464
       3     C     3.05470  3.05470  0.00000 -0.10939
       4     C     2.43998  2.43998  0.00000  1.12003
       5     C     2.43296  2.43296  0.00000  1.13408
       6     H     0.38741  0.38741  0.00000  0.22519
       7     F     4.68631  4.68631  0.00000 -0.37263
       8     F     4.67562  4.67562  0.00000 -0.35123
       9     F     4.66997  4.66997  0.00000 -0.33993
      10     F     4.67764  4.67764  0.00000 -0.35529
      11     F     4.67854  4.67854  0.00000 -0.35709
      12     F     4.67037  4.67037  0.00000 -0.34073

   Total alpha = 41.00000, Total beta = 41.00000, Total charge = -0.00000
