  ==> Input File <==

--------------------------------------------------------------------------
set {
	reference rhf
	basis 6-31G*
}

set_num_threads( 4 )
memory 2 gb

molecule MOL {
0 1

H	 -3.042581	 -0.665861	 0.004336
O	 -2.245037	 -1.176175	 0.000806
C	 -1.162163	 -0.365336	 0.001020
C	 -0.327381	 -0.240745	 1.096897
C	 -0.910614	 0.357150	 -1.158966
H	 -0.522631	 -0.798039	 1.997603
C	 0.762689	 0.614686	 1.020113
H	 -1.581047	 0.237921	 -1.990484
C	 0.177411	 1.208933	 -1.234993
H	 1.412571	 0.715798	 1.871270
C	 1.018197	 1.335182	 -0.129050
C	 0.465688	 1.976837	 -2.503977
H	 1.865868	 1.996180	 -0.172240
H	 0.743589	 3.002499	 -2.285854
H	 -0.396073	 1.994053	 -3.160431
H	 1.289097	 1.524114	 -3.049309

	symmetry c1
}
set optking {
	frozen_dihedral = ("
		5 3 2 1
	")
}

ee = optimize('scf')
oeprop('DIPOLE', 'QUADRUPOLE', 'MULLIKEN_CHARGES')
f=open( 'psi4out.xyz', 'w' )
f.write( "16  " )
f.write( str(ee) + "\n" )
f.write( MOL.save_string_xyz() )
f.close()
--------------------------------------------------------------------------

    Molecular point group: c1
  Charge       = 0
  Multiplicity = 1
  Basis Set: 6-31G*
  Basis Set:
  @DF-RHF Final Energy:  -344.58990092728556
    Total Energy =                       -344.5899009272856119
    Molecular point group: c1
  Basis Set: 6-31G*
  Basis Set:
  Basis Set: 6-31G*
  Basis Set:
  @DF-RHF Final Energy:  -344.59107505344076
    Total Energy =                       -344.5910750534407612
  Basis Set: 6-31G*
  Basis Set:
  Basis Set: 6-31G*
  Basis Set:
  @DF-RHF Final Energy:  -344.59115143572393
    Total Energy =                       -344.5911514357239867
  Basis Set: 6-31G*
  Basis Set:
  Basis Set: 6-31G*
  Basis Set:
  @DF-RHF Final Energy:  -344.59115928005281
    Total Energy =                       -344.5911592800527501
  Basis Set: 6-31G*
  Basis Set:
  Basis Set: 6-31G*
  Basis Set:
  @DF-RHF Final Energy:  -344.59116072630940
    Total Energy =                       -344.5911607263089991
  Basis Set: 6-31G*
  Basis Set:
  Charge       = 0
  Multiplicity = 1
  Basis Set: 6-31G*
  Basis Set:

    Orbital Energies (a.u.)
    -----------------------

    Doubly Occupied:

       1A    -20.576183     2A    -11.287466     3A    -11.241849
       4A    -11.232354     5A    -11.222613     6A    -11.221783
       7A    -11.221256     8A    -11.220171     9A     -1.391315
      10A     -1.149981    11A     -1.043388    12A     -1.003074
      13A     -0.936939    14A     -0.830536    15A     -0.802294
      16A     -0.719039    17A     -0.676713    18A     -0.651518
      19A     -0.615973    20A     -0.589659    21A     -0.576276
      22A     -0.567310    23A     -0.551740    24A     -0.514205
      25A     -0.502020    26A     -0.479953    27A     -0.462793
      28A     -0.329368    29A     -0.316367

  @DF-RHF Final Energy:  -344.59116103732634

   => Energetics <=

    Nuclear Repulsion Energy =            345.0339354736985911
    One-Electron Energy =               -1151.3819250560122782
    Two-Electron Energy =                 461.7568285449874566
    DFT Exchange-Correlation Energy =       0.0000000000000000
    Empirical Dispersion Energy =           0.0000000000000000
    PCM Polarization Energy =               0.0000000000000000
    EFP Energy =                            0.0000000000000000
    Total Energy =                       -344.5911610373261738
    Molecular point group: c1
  Basis Set: 6-31G*
  Basis Set:

  -Total Gradient:
     Atom            X                  Y                   Z
    ------   -----------------  -----------------  -----------------
       1        0.000037114395     0.000064386347     0.001569354661
       2        0.000248813884    -0.000554858900    -0.002145000809
       3       -0.000949231295     0.001340093876     0.001013270418
       4        0.000000755514     0.000004911570    -0.000003342935
       5        0.000652153303    -0.000846637990    -0.000428927895
       6       -0.000006441734    -0.000004594767    -0.000005459325
       7       -0.000007871240     0.000003637341    -0.000014584835
       8        0.000015001938    -0.000001517320     0.000014746385
       9       -0.000000274059    -0.000001108418    -0.000012477847
      10       -0.000001436517     0.000001274250     0.000001359726
      11        0.000011780654    -0.000014351864     0.000011992483
      12        0.000007071249     0.000002367318     0.000007195767
      13       -0.000004288567     0.000000648930    -0.000008908515
      14       -0.000007021024     0.000005107456     0.000002938465
      15       -0.000000808452    -0.000002597526    -0.000009677258
      16        0.000004681953     0.000003239699     0.000007521515

  **** Optimization is complete! (in 6 steps) ****
    Final optimized geometry and variables:
    Molecular point group: c1

    Geometry (in Angstrom), charge = 0, multiplicity = 1:

    H           -2.719340977627    -1.169519172313     0.431251897894
    O           -1.903440944010    -1.651554886188     0.435488941930
    C           -0.842941370814    -0.787052531511     0.379835446989
    C           -0.006875801245    -0.676965166115     1.474213763432
    C           -0.581629500368    -0.074312360982    -0.780980739935
    H           -0.220423163759    -1.245683346482     2.360098710802
    C            1.091654858168     0.165438565940     1.399046650042
    H           -1.238201660810    -0.198088058583    -1.624542146113
    C            0.512054212281     0.775785265430    -0.858595757785
    H            1.747309208423     0.259523450977     2.246506434938
    C            1.347825256802     0.889594385940     0.248844716662
    C            0.811198366522     1.539601375597    -2.127935584701
    H            2.201742835908     1.543301489233     0.207609122512
    H            1.097363499451     2.563388876129    -1.911187151769
    H           -0.048879966870     1.564481438866    -2.786906604796
    H            1.631196030914     1.079593651740    -2.672241381609

  Mulliken Charges: (a.u.)
   Center  Symbol    Alpha    Beta     Spin     Total
       1     H     0.27195  0.27195  0.00000  0.45609
       2     O     4.38767  4.38767  0.00000 -0.77534
       3     C     2.81138  2.81138  0.00000  0.37724
       4     C     3.12226  3.12226  0.00000 -0.24452
       5     C     3.14027  3.14027  0.00000 -0.28054
       6     H     0.39388  0.39388  0.00000  0.21223
       7     C     3.09299  3.09299  0.00000 -0.18597
       8     H     0.39970  0.39970  0.00000  0.20060
       9     C     2.97365  2.97365  0.00000  0.05270
      10     H     0.39853  0.39853  0.00000  0.20294
      11     C     3.11783  3.11783  0.00000 -0.23566
      12     C     3.25394  3.25394  0.00000 -0.50789
      13     H     0.40252  0.40252  0.00000  0.19497
      14     H     0.41193  0.41193  0.00000  0.17614
      15     H     0.41317  0.41317  0.00000  0.17366
      16     H     0.40832  0.40832  0.00000  0.18335

   Total alpha = 29.00000, Total beta = 29.00000, Total charge = -0.00000
