  ==> Input File <==

--------------------------------------------------------------------------
set {
	reference rhf
	basis 6-31G*
}

set_num_threads( 1 )
memory 2 gb

molecule MOL {
0 1

H	 -2.798360	 -0.862255	 -0.071053
N	 -1.863561	 -0.715187	 0.256814
C	 -1.344686	 0.554728	 -0.219830
H	 -1.300452	 -1.461917	 -0.101532
C	 0.081427	 0.741154	 0.254071
H	 -1.362155	 0.656231	 -1.305829
H	 -1.952773	 1.354456	 0.191809
O	 0.874168	 -0.245412	 -0.342030
H	 0.444037	 1.730782	 -0.023037
H	 0.121165	 0.653424	 1.337565
C	 0.562369	 -0.505816	 -1.673398
H	 1.233695	 -1.278588	 -2.022459
H	 -0.462676	 -0.856101	 -1.780940
H	 0.691193	 0.379637	 -2.292419

	symmetry c1
}
set optking {
	frozen_dihedral = ("
		8 5 3 6,
		6 3 2 4,
		5 8 11 13
	")
}

ee = energy('scf')
oeprop('DIPOLE', 'QUADRUPOLE', 'MULLIKEN_CHARGES')
f=open( 'psi4out.xyz', 'w' )
f.write( "14  " )
f.write( str(ee) + "\n" )
f.write( MOL.save_string_xyz() )
f.close()
--------------------------------------------------------------------------

    Molecular point group: c1

    Geometry (in Angstrom), charge = 0, multiplicity = 1:

       Center              X                  Y                   Z               Mass
    ------------   -----------------  -----------------  -----------------  -----------------
           H         -2.452642102243    -0.807088930292     0.297408437122     1.007825032070
           N         -1.517843102243    -0.660020930292     0.625275437122    14.003074004780
           C         -0.998968102243     0.609894069708     0.148631437122    12.000000000000
           H         -0.954734102243    -1.406750930292     0.266929437122     1.007825032070
           C          0.427144897757     0.796320069708     0.622532437122    12.000000000000
           H         -1.016437102243     0.711397069708    -0.937367562878     1.007825032070
           H         -1.607055102243     1.409622069708     0.560270437122     1.007825032070
           O          1.219885897757    -0.190245930292     0.026431437122    15.994914619560
           H          0.789754897757     1.785948069708     0.345424437122     1.007825032070
           H          0.466882897757     0.708590069708     1.706026437122     1.007825032070
           C          0.908086897757    -0.450649930292    -1.304936562878    12.000000000000
           H          1.579412897757    -1.223421930292    -1.653997562878     1.007825032070
           H         -0.116958102243    -0.800934930292    -1.412478562878     1.007825032070
           H          1.036910897757     0.434803069708    -1.923957562878     1.007825032070

  Charge       = 0
  Multiplicity = 1
  Basis Set: 6-31G*
  Basis Set:

    Orbital Energies (a.u.)
    -----------------------

    Doubly Occupied:

       1A    -20.557002     2A    -15.538467     3A    -11.268078
       4A    -11.267022     5A    -11.243352     6A     -1.384776
       7A     -1.182493     8A     -0.997728     9A     -0.931005
      10A     -0.803600    11A     -0.704228    12A     -0.683869
      13A     -0.642855    14A     -0.617106    15A     -0.599557
      16A     -0.544042    17A     -0.534186    18A     -0.525548
      19A     -0.457111    20A     -0.416258    21A     -0.388687

  @DF-RHF Final Energy:  -248.10634717188319

   => Energetics <=

    Nuclear Repulsion Energy =            202.0936297957152590
    One-Electron Energy =                -737.8257707408037049
    Two-Electron Energy =                 287.6257937732045775
    DFT Exchange-Correlation Energy =       0.0000000000000000
    Empirical Dispersion Energy =           0.0000000000000000
    PCM Polarization Energy =               0.0000000000000000
    EFP Energy =                            0.0000000000000000
    Total Energy =                       -248.1063471718838400

  Mulliken Charges: (a.u.)
   Center  Symbol    Alpha    Beta     Spin     Total
       1     H     0.33140  0.33140  0.00000  0.33719
       2     N     3.91889  3.91889  0.00000 -0.83778
       3     C     3.10234  3.10234  0.00000 -0.20468
       4     H     0.32390  0.32390  0.00000  0.35220
       5     C     2.98454  2.98454  0.00000  0.03092
       6     H     0.42485  0.42485  0.00000  0.15030
       7     H     0.41472  0.41472  0.00000  0.17056
       8     O     4.30587  4.30587  0.00000 -0.61173
       9     H     0.42863  0.42863  0.00000  0.14274
      10     H     0.40649  0.40649  0.00000  0.18702
      11     C     3.09059  3.09059  0.00000 -0.18118
      12     H     0.40931  0.40931  0.00000  0.18139
      13     H     0.43201  0.43201  0.00000  0.13598
      14     H     0.42646  0.42646  0.00000  0.14708

   Total alpha = 21.00000, Total beta = 21.00000, Total charge =  0.00000
