  ==> Input File <==

--------------------------------------------------------------------------
set {
	reference rhf
	basis cc-pvtz
}

set_num_threads( 4 )
memory 2 gb

molecule MOL {
0 1

H	 1.922112	 -0.564415	 0.569315
C	 1.076554	 -0.621623	 -0.100364
O	 -0.000000	 0.000000	 0.518769
H	 1.336683	 -0.130080	 -1.035550
H	 0.865891	 -1.668358	 -0.309701
C	 -1.165153	 0.000000	 -0.236961
H	 -1.229451	 0.882440	 -0.870223
H	 -2.002557	 0.000000	 0.445289
H	 -1.229451	 -0.882440	 -0.870223

	symmetry c1
}
set optking {
	frozen_dihedral = ("
		2 3 6 7
	")
}

ee = optimize('scf')
oeprop('DIPOLE', 'QUADRUPOLE', 'MULLIKEN_CHARGES')
f=open( 'psi4out.xyz', 'w' )
f.write( "9  " )
f.write( str(ee) + "\n" )
f.write( MOL.save_string_xyz() )
f.close()
--------------------------------------------------------------------------

    Molecular point group: c1
  Charge       = 0
  Multiplicity = 1
  Basis Set: CC-PVTZ
  Basis Set:
  @DF-RHF Final Energy:  -154.12529811484464
    Total Energy =                       -154.1252981148445542
    Molecular point group: c1
  Basis Set: CC-PVTZ
  Basis Set:
  Basis Set: CC-PVTZ
  Basis Set:
  @DF-RHF Final Energy:  -154.12539634227059
    Total Energy =                       -154.1253963422708182
  Basis Set: CC-PVTZ
  Basis Set:
  Basis Set: CC-PVTZ
  Basis Set:
  @DF-RHF Final Energy:  -154.12541228498850
    Total Energy =                       -154.1254122849886130
  Basis Set: CC-PVTZ
  Basis Set:
  Charge       = 0
  Multiplicity = 1
  Basis Set: CC-PVTZ
  Basis Set:

    Orbital Energies (a.u.)
    -----------------------

    Doubly Occupied:

       1A    -20.548663     2A    -11.263400     3A    -11.262845
       4A     -1.380343     5A     -0.975980     6A     -0.872483
       7A     -0.662088     8A     -0.654829     9A     -0.645887
      10A     -0.555371    11A     -0.528628    12A     -0.476155
      13A     -0.417673

  @DF-RHF Final Energy:  -154.12541247678138

   => Energetics <=

    Nuclear Repulsion Energy =             84.7119778522897917
    One-Electron Energy =                -377.1860894294460422
    Two-Electron Energy =                 138.3486991003749722
    DFT Exchange-Correlation Energy =       0.0000000000000000
    Empirical Dispersion Energy =           0.0000000000000000
    PCM Polarization Energy =               0.0000000000000000
    EFP Energy =                            0.0000000000000000
    Total Energy =                       -154.1254124767812641
    Molecular point group: c1
  Basis Set: CC-PVTZ
  Basis Set:

  -Total Gradient:
     Atom            X                  Y                   Z
    ------   -----------------  -----------------  -----------------
       1        0.000025515372    -0.000009321215    -0.000007137894
       2       -0.000565170968    -0.002070434970     0.000982941345
       3        0.000457938760     0.003336253231    -0.000809069733
       4       -0.000021051526    -0.000002203328     0.000010200671
       5       -0.000025049583     0.000018908690     0.000001913736
       6        0.001516607074    -0.002697149266    -0.002353471378
       7       -0.001376401667     0.001424355802     0.002176801598
       8       -0.000017787435     0.000002278886    -0.000004212142
       9        0.000005399973    -0.000002687828     0.000002033798

  **** Optimization is complete! (in 4 steps) ****
    Final optimized geometry and variables:
    Molecular point group: c1

    Geometry (in Angstrom), charge = 0, multiplicity = 1:

    H            1.955186019953    -0.341679827412     0.531888193754
    C            1.115432151756    -0.405000979324    -0.145044770644
    O            0.029678736127     0.208014526555     0.467671006465
    H            1.383855464649     0.087016898026    -1.077939752499
    H            0.912983122219    -1.452684879751    -0.354908920696
    C           -1.141738319799     0.215122172048    -0.283651255958
    H           -1.203738760556     1.103834477784    -0.906599927183
    H           -1.979296326993     0.230260526140     0.400986105447
    H           -1.226789562723    -0.667234254746    -0.911293805779

  Mulliken Charges: (a.u.)
   Center  Symbol    Alpha    Beta     Spin     Total
       1     H     0.44920  0.44920  0.00000  0.10161
       2     C     3.02143  3.02143  0.00000 -0.04286
       3     O     4.16991  4.16991  0.00000 -0.33983
       4     H     0.47372  0.47372  0.00000  0.05255
       5     H     0.47216  0.47216  0.00000  0.05568
       6     C     3.01939  3.01939  0.00000 -0.03879
       7     H     0.46687  0.46687  0.00000  0.06626
       8     H     0.45219  0.45219  0.00000  0.09562
       9     H     0.47512  0.47512  0.00000  0.04975

   Total alpha = 13.00000, Total beta = 13.00000, Total charge = -0.00000
