  ==> Input File <==

--------------------------------------------------------------------------
set {
	reference rhf
	basis 6-31G*
}

set_num_threads( 1 )
memory 2 gb

molecule MOL {
0 1

H	 3.522913	 -0.855391	 1.446744
O	 2.704283	 -1.113607	 1.034525
C	 1.947878	 -0.024539	 0.899631
C	 0.624473	 -0.343591	 0.253101
O	 2.313554	 1.046730	 1.259743
C	 -0.265902	 0.883932	 0.072916
H	 0.842571	 -0.831830	 -0.691053
H	 0.137737	 -1.094559	 0.870262
C	 -1.728698	 0.646073	 0.462102
H	 -0.209144	 1.219470	 -0.958188
H	 0.135059	 1.692851	 0.673903
C	 -2.482460	 -0.343073	 -0.431425
H	 -2.245265	 1.602650	 0.432430
H	 -1.779332	 0.308348	 1.496285
C	 -3.960546	 -0.461025	 -0.060175
H	 -2.395034	 -0.026811	 -1.468912
H	 -2.024850	 -1.327147	 -0.371646
H	 -4.472726	 -1.168004	 -0.705284
H	 -4.465146	 0.496508	 -0.151489
H	 -4.081218	 -0.800940	 0.964585

	symmetry c1
}
set optking {
	frozen_dihedral = ("
		16 12 9 6,
		12 9 6 10,
		5 3 4 7,
		1 2 3 5
	")
}

ee = energy('scf')
oeprop('DIPOLE', 'QUADRUPOLE', 'MULLIKEN_CHARGES')
f=open( 'psi4out.xyz', 'w' )
f.write( "20  " )
f.write( str(ee) + "\n" )
f.write( MOL.save_string_xyz() )
f.close()
--------------------------------------------------------------------------

    Molecular point group: c1

    Geometry (in Angstrom), charge = 0, multiplicity = 1:

       Center              X                  Y                   Z               Mass
    ------------   -----------------  -----------------  -----------------  -----------------
           H          3.585720385961    -0.876346870278     0.993622016380     1.007825032070
           O          2.767090385961    -1.134562870278     0.581403016380    15.994914619560
           C          2.010685385961    -0.045494870278     0.446509016380    12.000000000000
           C          0.687280385961    -0.364546870278    -0.200020983620    12.000000000000
           O          2.376361385961     1.025774129722     0.806621016380    15.994914619560
           C         -0.203094614039     0.862976129722    -0.380205983620    12.000000000000
           H          0.905378385961    -0.852785870278    -1.144174983620     1.007825032070
           H          0.200544385961    -1.115514870278     0.417140016380     1.007825032070
           C         -1.665890614039     0.625117129722     0.008980016380    12.000000000000
           H         -0.146336614039     1.198514129722    -1.411309983620     1.007825032070
           H          0.197866385961     1.671895129722     0.220781016380     1.007825032070
           C         -2.419652614039    -0.364028870278    -0.884546983620    12.000000000000
           H         -2.182457614039     1.581694129722    -0.020691983620     1.007825032070
           H         -1.716524614039     0.287392129722     1.043163016380     1.007825032070
           C         -3.897738614039    -0.481980870278    -0.513296983620    12.000000000000
           H         -2.332226614039    -0.047766870278    -1.922033983620     1.007825032070
           H         -1.962042614039    -1.348102870278    -0.824767983620     1.007825032070
           H         -4.409918614039    -1.188959870278    -1.158405983620     1.007825032070
           H         -4.402338614039     0.475552129722    -0.604610983620     1.007825032070
           H         -4.018410614039    -0.821895870278     0.511463016380     1.007825032070

  Charge       = 0
  Multiplicity = 1
  Basis Set: 6-31G*
  Basis Set:

    Orbital Energies (a.u.)
    -----------------------

    Doubly Occupied:

       1A    -20.613263     2A    -20.552543     3A    -11.381859
       4A    -11.239341     5A    -11.219751     6A    -11.219340
       7A    -11.218764     8A    -11.211796     9A     -1.475375
      10A     -1.366723    11A     -1.095293    12A     -1.040379
      13A     -0.960173    14A     -0.868825    15A     -0.816036
      16A     -0.775623    17A     -0.701045    18A     -0.692755
      19A     -0.663915    20A     -0.635481    21A     -0.599682
      22A     -0.594360    23A     -0.574145    24A     -0.550313
      25A     -0.545555    26A     -0.508729    27A     -0.497412
      28A     -0.480049    29A     -0.467151    30A     -0.465861
      31A     -0.455094    32A     -0.446544

  @DF-RHF Final Energy:  -383.94518886705907

   => Energetics <=

    Nuclear Repulsion Energy =            376.6724612333657660
    One-Electron Energy =               -1269.3688930854468708
    Two-Electron Energy =                 508.7512429850214630
    DFT Exchange-Correlation Energy =       0.0000000000000000
    Empirical Dispersion Energy =           0.0000000000000000
    PCM Polarization Energy =               0.0000000000000000
    EFP Energy =                            0.0000000000000000
    Total Energy =                       -383.9451888670596418

  Mulliken Charges: (a.u.)
   Center  Symbol    Alpha    Beta     Spin     Total
       1     H     0.26765  0.26765  0.00000  0.46470
       2     O     4.35025  4.35025  0.00000 -0.70050
       3     C     2.62766  2.62766  0.00000  0.74468
       4     C     3.21320  3.21320  0.00000 -0.42640
       5     O     4.27814  4.27814  0.00000 -0.55627
       6     C     3.16340  3.16340  0.00000 -0.32681
       7     H     0.39528  0.39528  0.00000  0.20943
       8     H     0.39684  0.39684  0.00000  0.20633
       9     C     3.15690  3.15690  0.00000 -0.31381
      10     H     0.41757  0.41757  0.00000  0.16486
      11     H     0.39225  0.39225  0.00000  0.21550
      12     C     3.15394  3.15394  0.00000 -0.30788
      13     H     0.41893  0.41893  0.00000  0.16214
      14     H     0.42276  0.42276  0.00000  0.15449
      15     C     3.23930  3.23930  0.00000 -0.47860
      16     H     0.42239  0.42239  0.00000  0.15523
      17     H     0.42294  0.42294  0.00000  0.15412
      18     H     0.41862  0.41862  0.00000  0.16276
      19     H     0.42061  0.42061  0.00000  0.15878
      20     H     0.42138  0.42138  0.00000  0.15724

   Total alpha = 32.00000, Total beta = 32.00000, Total charge = -0.00000
