  ==> Input File <==

--------------------------------------------------------------------------
set {
	reference rhf
	basis 6-31G*
}

set_num_threads( 4 )
memory 2 gb

molecule MOL {
0 1

H	 -2.756942	 0.444779	 -0.357678
C	 -2.133477	 0.758575	 -1.186031
C	 -0.855026	 -0.068456	 -1.251917
H	 -1.909712	 1.809223	 -1.046923
H	 -2.702031	 0.648080	 -2.103534
C	 -0.000005	 0.033229	 -0.000001
H	 -0.243734	 0.232936	 -2.100375
H	 -1.083516	 -1.119577	 -1.417243
C	 1.290528	 -0.768786	 0.000276
O	 -0.323848	 0.705450	 0.930821
C	 2.545731	 0.095645	 -0.000061
H	 1.275672	 -1.427874	 -0.865626
H	 1.275566	 -1.427086	 0.866768
H	 2.577157	 0.734767	 -0.874036
H	 3.433520	 -0.528139	 0.000137
H	 2.577172	 0.735117	 0.873581

	symmetry c1
}
set optking {
	frozen_dihedral = ("
		3 6 9 12
	")
}

ee = optimize('scf')
oeprop('DIPOLE', 'QUADRUPOLE', 'MULLIKEN_CHARGES')
f=open( 'psi4out.xyz', 'w' )
f.write( "16  " )
f.write( str(ee) + "\n" )
f.write( MOL.save_string_xyz() )
f.close()
--------------------------------------------------------------------------

    Molecular point group: c1
  Charge       = 0
  Multiplicity = 1
  Basis Set: 6-31G*
  Basis Set:
  @DF-RHF Final Energy:  -270.03069332012706
    Total Energy =                       -270.0306933201270567
    Molecular point group: c1
  Basis Set: 6-31G*
  Basis Set:
  Basis Set: 6-31G*
  Basis Set:
  @DF-RHF Final Energy:  -270.03079987168371
    Total Energy =                       -270.0307998716838256
  Basis Set: 6-31G*
  Basis Set:
  Basis Set: 6-31G*
  Basis Set:
  @DF-RHF Final Energy:  -270.03128123986750
    Total Energy =                       -270.0312812398674396
  Basis Set: 6-31G*
  Basis Set:
  Basis Set: 6-31G*
  Basis Set:
  @DF-RHF Final Energy:  -270.03142952392977
    Total Energy =                       -270.0314295239298303
  Basis Set: 6-31G*
  Basis Set:
  Basis Set: 6-31G*
  Basis Set:
  @DF-RHF Final Energy:  -270.03143484144505
    Total Energy =                       -270.0314348414449341
  Basis Set: 6-31G*
  Basis Set:
  Charge       = 0
  Multiplicity = 1
  Basis Set: 6-31G*
  Basis Set:

    Orbital Energies (a.u.)
    -----------------------

    Doubly Occupied:

       1A    -20.548536     2A    -11.323172     3A    -11.234488
       4A    -11.232158     5A    -11.223824     6A    -11.213298
       7A     -1.394560     8A     -1.069473     9A     -1.036974
      10A     -0.913182    11A     -0.852327    12A     -0.726168
      13A     -0.665223    14A     -0.642336    15A     -0.623352
      16A     -0.600418    17A     -0.566412    18A     -0.536991
      19A     -0.529092    20A     -0.511926    21A     -0.502703
      22A     -0.497273    23A     -0.476629    24A     -0.396467

  @DF-RHF Final Energy:  -270.03143725213090

   => Energetics <=

    Nuclear Repulsion Energy =            240.2760941429786499
    One-Electron Energy =                -841.9810988540547214
    Two-Electron Energy =                 331.6735674589452856
    DFT Exchange-Correlation Energy =       0.0000000000000000
    Empirical Dispersion Energy =           0.0000000000000000
    PCM Polarization Energy =               0.0000000000000000
    EFP Energy =                            0.0000000000000000
    Total Energy =                       -270.0314372521307860
    Molecular point group: c1
  Basis Set: 6-31G*
  Basis Set:

  -Total Gradient:
     Atom            X                  Y                   Z
    ------   -----------------  -----------------  -----------------
       1       -0.000009602787    -0.000002073270     0.000005841403
       2        0.000017432349     0.000011066919    -0.000006721914
       3        0.000070222719     0.000116987305    -0.000034855173
       4        0.000001924204    -0.000010702448     0.000000895256
       5       -0.000001758130    -0.000002189388     0.000004079336
       6       -0.000176529660    -0.000273018336     0.000093732178
       7        0.000024173131     0.000008625022     0.000003861335
       8       -0.000002242129     0.000019678687    -0.000016299313
       9        0.000286234101     0.000360182813    -0.000256259980
      10       -0.000012622192     0.000003135449     0.000021158075
      11       -0.000041288636    -0.000000739070     0.000030367377
      12       -0.000157267225    -0.000228498524     0.000157203132
      13       -0.000007488509    -0.000000612119    -0.000010781699
      14       -0.000007171490    -0.000009407989     0.000007596558
      15       -0.000002391077    -0.000013762408     0.000000540902
      16        0.000018375332     0.000021327356    -0.000000357472

  **** Optimization is complete! (in 6 steps) ****
    Final optimized geometry and variables:
    Molecular point group: c1

    Geometry (in Angstrom), charge = 0, multiplicity = 1:

    H           -2.828205441692     0.383163096156    -0.093538166314
    C           -2.201437833948     0.666706579723    -0.930154156315
    C           -0.956885438520    -0.208596809893    -0.999510663718
    H           -1.935971253016     1.709019748017    -0.800765858020
    H           -2.782580614656     0.572055086094    -1.841522707404
    C           -0.088991913680    -0.138318148840     0.241213273667
    H           -0.336144602667     0.060056611206    -1.853177218139
    H           -1.223246871002    -1.253010429180    -1.155029597364
    C            1.209157144544    -0.931480746782     0.231640438907
    O           -0.389248028931     0.520444105345     1.190296909800
    C            2.426366717844    -0.000054923774     0.247598289969
    H            1.248897768609    -1.592659683011    -0.628103834364
    H            1.215342697921    -1.550663410709     1.122973188741
    H            2.460430323638     0.621744893536    -0.642121257608
    H            3.344877665516    -0.575434978999     0.285250651781
    H            2.391914815328     0.649835034544     1.113048922960

  Mulliken Charges: (a.u.)
   Center  Symbol    Alpha    Beta     Spin     Total
       1     H     0.40980  0.40980  0.00000  0.18040
       2     C     3.23536  3.23536  0.00000 -0.47073
       3     C     3.20957  3.20957  0.00000 -0.41915
       4     H     0.41100  0.41100  0.00000  0.17799
       5     H     0.42003  0.42003  0.00000  0.15994
       6     C     2.73466  2.73466  0.00000  0.53068
       7     H     0.40925  0.40925  0.00000  0.18149
       8     H     0.40797  0.40797  0.00000  0.18407
       9     C     3.19799  3.19799  0.00000 -0.39599
      10     O     4.26634  4.26634  0.00000 -0.53268
      11     C     3.24561  3.24561  0.00000 -0.49123
      12     H     0.41552  0.41552  0.00000  0.16896
      13     H     0.40135  0.40135  0.00000  0.19730
      14     H     0.41896  0.41896  0.00000  0.16208
      15     H     0.41408  0.41408  0.00000  0.17184
      16     H     0.40249  0.40249  0.00000  0.19501

   Total alpha = 24.00000, Total beta = 24.00000, Total charge =  0.00000
