  ==> Input File <==

--------------------------------------------------------------------------
set {
	reference rhf
	basis 6-31G*
}

set_num_threads( 1 )
memory 2 gb

molecule MOL {
0 1

H	 -3.630439	 -0.355287	 -0.500362
O	 -2.796262	 -0.007506	 -0.781384
C	 -2.026376	 0.340750	 0.341611
C	 -0.673256	 0.843270	 -0.132153
H	 -2.525561	 1.118142	 0.917296
H	 -1.894964	 -0.519679	 0.996627
C	 0.486613	 -0.083066	 0.235839
H	 -0.715586	 0.970948	 -1.210718
H	 -0.508072	 1.829858	 0.297090
C	 1.840406	 0.433480	 -0.254303
H	 0.300215	 -1.068318	 -0.178947
H	 0.519509	 -0.203625	 1.318070
C	 3.000220	 -0.489290	 0.118523
H	 1.809207	 0.553576	 -1.335192
H	 2.021860	 1.424500	 0.157276
H	 2.864959	 -1.479103	 -0.307933
H	 3.946603	 -0.099227	 -0.243630
H	 3.080049	 -0.602997	 1.196117

	symmetry c1
}
set optking {
	frozen_dihedral = ("
		14 10 7 11,
		10 7 4 8,
		1 2 3 4
	")
}

ee = energy('scf')
oeprop('DIPOLE', 'QUADRUPOLE', 'MULLIKEN_CHARGES')
f=open( 'psi4out.xyz', 'w' )
f.write( "18  " )
f.write( str(ee) + "\n" )
f.write( MOL.save_string_xyz() )
f.close()
--------------------------------------------------------------------------

    Molecular point group: c1

    Geometry (in Angstrom), charge = 0, multiplicity = 1:

       Center              X                  Y                   Z               Mass
    ------------   -----------------  -----------------  -----------------  -----------------
           H         -3.540919264764    -0.514248543376    -0.413295097423     1.007825032070
           O         -2.706742264764    -0.166467543376    -0.694317097423    15.994914619560
           C         -1.936856264764     0.181788456624     0.428677902577    12.000000000000
           C         -0.583736264764     0.684308456624    -0.045086097423    12.000000000000
           H         -2.436041264764     0.959180456624     1.004362902577     1.007825032070
           H         -1.805444264764    -0.678640543376     1.083693902577     1.007825032070
           C          0.576132735236    -0.242027543376     0.322905902577    12.000000000000
           H         -0.626066264764     0.811986456624    -1.123651097423     1.007825032070
           H         -0.418552264764     1.670896456624     0.384156902577     1.007825032070
           C          1.929925735236     0.274518456624    -0.167236097423    12.000000000000
           H          0.389734735236    -1.227279543376    -0.091880097423     1.007825032070
           H          0.609028735236    -0.362586543376     1.405136902577     1.007825032070
           C          3.089739735236    -0.648251543376     0.205589902577    12.000000000000
           H          1.898726735236     0.394614456624    -1.248125097423     1.007825032070
           H          2.111379735236     1.265538456624     0.244342902577     1.007825032070
           H          2.954478735236    -1.638064543376    -0.220866097423     1.007825032070
           H          4.036122735236    -0.258188543376    -0.156563097423     1.007825032070
           H          3.169568735236    -0.761958543376     1.283183902577     1.007825032070

  Charge       = 0
  Multiplicity = 1
  Basis Set: 6-31G*
  Basis Set:

    Orbital Energies (a.u.)
    -----------------------

    Doubly Occupied:

       1A    -20.551479     2A    -11.266124     3A    -11.213691
       4A    -11.212824     5A    -11.209430     6A    -11.207210
       7A     -1.358196     8A     -1.078433     9A     -1.009998
      10A     -0.913224    11A     -0.818666    12A     -0.790325
      13A     -0.702407    14A     -0.642111    15A     -0.628836
      16A     -0.580352    17A     -0.571255    18A     -0.560060
      19A     -0.525978    20A     -0.496425    21A     -0.489553
      22A     -0.469355    23A     -0.462973    24A     -0.453121
      25A     -0.424789

  @DF-RHF Final Energy:  -271.17381196852887

   => Energetics <=

    Nuclear Repulsion Energy =            246.5501714766791963
    One-Electron Energy =                -856.1744171753216506
    Two-Electron Energy =                 338.4504337301132182
    DFT Exchange-Correlation Energy =       0.0000000000000000
    Empirical Dispersion Energy =           0.0000000000000000
    PCM Polarization Energy =               0.0000000000000000
    EFP Energy =                            0.0000000000000000
    Total Energy =                       -271.1738119685292077

  Mulliken Charges: (a.u.)
   Center  Symbol    Alpha    Beta     Spin     Total
       1     H     0.28205  0.28205  0.00000  0.43591
       2     O     4.37079  4.37079  0.00000 -0.74158
       3     C     2.99556  2.99556  0.00000  0.00888
       4     C     3.16423  3.16423  0.00000 -0.32845
       5     H     0.43057  0.43057  0.00000  0.13886
       6     H     0.42989  0.42989  0.00000  0.14021
       7     C     3.15746  3.15746  0.00000 -0.31491
       8     H     0.40370  0.40370  0.00000  0.19261
       9     H     0.42211  0.42211  0.00000  0.15578
      10     C     3.15232  3.15232  0.00000 -0.30465
      11     H     0.41829  0.41829  0.00000  0.16343
      12     H     0.42591  0.42591  0.00000  0.14818
      13     C     3.23924  3.23924  0.00000 -0.47848
      14     H     0.42118  0.42118  0.00000  0.15764
      15     H     0.42335  0.42335  0.00000  0.15330
      16     H     0.42137  0.42137  0.00000  0.15725
      17     H     0.41944  0.41944  0.00000  0.16113
      18     H     0.42255  0.42255  0.00000  0.15489

   Total alpha = 25.00000, Total beta = 25.00000, Total charge = -0.00000
