  ==> Input File <==

--------------------------------------------------------------------------
set {
	reference rhf
	basis 6-31G*
}

set_num_threads( 4 )
memory 2 gb

molecule MOL {
0 1

O	 0.749854	 1.307668	 -0.000040
C	 0.576249	 0.131685	 -0.000108
C	 -0.766779	 -0.556801	 -0.000461
O	 1.568443	 -0.749345	 -0.000005
C	 -1.945214	 0.412366	 0.000161
H	 -0.796911	 -1.211249	 -0.867467
H	 -0.796854	 -1.212390	 0.865687
C	 -3.287791	 -0.317055	 0.000105
H	 -1.876087	 1.060580	 -0.866812
H	 -1.875822	 1.059691	 0.867761
H	 -3.394745	 -0.949193	 -0.877058
H	 -4.111778	 0.388953	 0.000015
H	 -3.394954	 -0.949187	 0.877259
C	 2.836353	 -0.289423	 -0.431380
H	 2.786013	 0.061954	 -1.451940
H	 3.497973	 -1.138594	 -0.360434
H	 3.186081	 0.511971	 0.203416

	symmetry c1
}
set optking {
	frozen_dihedral = ("
		14 4 2 1
	")
}

ee = optimize('scf')
oeprop('DIPOLE', 'QUADRUPOLE', 'MULLIKEN_CHARGES')
f=open( 'psi4out.xyz', 'w' )
f.write( "17  " )
f.write( str(ee) + "\n" )
f.write( MOL.save_string_xyz() )
f.close()
--------------------------------------------------------------------------

    Molecular point group: c1
  Charge       = 0
  Multiplicity = 1
  Basis Set: 6-31G*
  Basis Set:
  @DF-RHF Final Energy:  -344.90435476691363
    Total Energy =                       -344.9043547669139116
    Molecular point group: c1
  Basis Set: 6-31G*
  Basis Set:
  Basis Set: 6-31G*
  Basis Set:
  @DF-RHF Final Energy:  -344.90100068981423
    Total Energy =                       -344.9010006898143956
  Basis Set: 6-31G*
  Basis Set:
  Basis Set: 6-31G*
  Basis Set:
  @DF-RHF Final Energy:  -344.90458611841723
    Total Energy =                       -344.9045861184173418
  Basis Set: 6-31G*
  Basis Set:
  Basis Set: 6-31G*
  Basis Set:
  @DF-RHF Final Energy:  -344.90463653969579
    Total Energy =                       -344.9046365396956730
  Basis Set: 6-31G*
  Basis Set:
  @DF-RHF Final Energy:  -344.90464321283616
    Total Energy =                       -344.9046432128361062
  @DF-RHF Final Energy:  -344.90464589653919
    Total Energy =                       -344.9046458965392503
  @DF-RHF Final Energy:  -344.90464834346994
    Total Energy =                       -344.9046483434694323
  @DF-RHF Final Energy:  -344.90377752695775
    Total Energy =                       -344.9037775269581516
  Basis Set: 6-31G*
  Basis Set:
  @DF-RHF Final Energy:  -344.90448193192981
    Total Energy =                       -344.9044819319297517
  Basis Set: 6-31G*
  Basis Set:
  Basis Set: 6-31G*
  Basis Set:
  @DF-RHF Final Energy:  -344.90459853852815
    Total Energy =                       -344.9045985385280346
  Basis Set: 6-31G*
  Basis Set:
  Basis Set: 6-31G*
  Basis Set:
  @DF-RHF Final Energy:  -344.90464650620214
    Total Energy =                       -344.9046465062019706
  Basis Set: 6-31G*
  Basis Set:
  Charge       = 0
  Multiplicity = 1
  Basis Set: 6-31G*
  Basis Set:

    Orbital Energies (a.u.)
    -----------------------

    Doubly Occupied:

       1A    -20.602041     2A    -20.546966     3A    -11.373030
       4A    -11.282158     5A    -11.236218     6A    -11.222083
       7A    -11.214690     8A     -1.468319     9A     -1.363637
      10A     -1.080589    11A     -1.000795    12A     -0.940516
      13A     -0.827841    14A     -0.767123    15A     -0.700069
      16A     -0.682436    17A     -0.672414    18A     -0.636756
      19A     -0.597285    20A     -0.575517    21A     -0.567943
      22A     -0.528189    23A     -0.522788    24A     -0.498416
      25A     -0.487173    26A     -0.478816    27A     -0.455784
      28A     -0.437668

  @DF-RHF Final Energy:  -344.90464846129635

   => Energetics <=

    Nuclear Repulsion Energy =            312.3260448247228851
    One-Electron Energy =               -1088.9268704130499827
    Two-Electron Energy =                 431.6961771270311488
    DFT Exchange-Correlation Energy =       0.0000000000000000
    Empirical Dispersion Energy =           0.0000000000000000
    PCM Polarization Energy =               0.0000000000000000
    EFP Energy =                            0.0000000000000000
    Total Energy =                       -344.9046484612959489
    Molecular point group: c1
  Basis Set: 6-31G*
  Basis Set:

  -Total Gradient:
     Atom            X                  Y                   Z
    ------   -----------------  -----------------  -----------------
       1       -0.000329263984     0.000237214728     0.006544600320
       2       -0.000100597239    -0.001134340320    -0.012134867675
       3       -0.000011232137     0.000080754281     0.000104361213
       4        0.001348155452     0.002519663229     0.010307342670
       5        0.000003020770    -0.000069093226    -0.000026251817
       6        0.000014556276    -0.000012939414    -0.000018321856
       7        0.000019052509    -0.000009144877    -0.000014590761
       8       -0.000006738194     0.000021949669    -0.000002004965
       9       -0.000003359283     0.000006818854     0.000001024543
      10       -0.000000559132     0.000001542798     0.000010803445
      11        0.000003654124     0.000000999324     0.000001221157
      12       -0.000008766967    -0.000002672200    -0.000001143815
      13        0.000006234540     0.000002780723     0.000000047748
      14       -0.000994706948    -0.001691458863    -0.004823791216
      15        0.000016729415     0.000013451127     0.000024827976
      16        0.000018331637     0.000005301368     0.000012088967
      17        0.000025489159     0.000029172801     0.000014654066

  **** Optimization is complete! (in 12 steps) ****
    Final optimized geometry and variables:
    Molecular point group: c1

    Geometry (in Angstrom), charge = 0, multiplicity = 1:

    O            0.748407904294     1.318444078750    -0.068468611971
    C            0.579604408660     0.144649307774     0.002123267040
    C           -0.760851474577    -0.546678850257     0.044024809389
    O            1.576795599025    -0.728143624652     0.111933587837
    C           -1.941779151899     0.417874423553     0.095567440887
    H           -0.818815887226    -1.188955815724    -0.831591015508
    H           -0.757998742100    -1.215332553594     0.900018240984
    C           -3.281620080774    -0.315882100268     0.125413962096
    H           -1.900802929897     1.080032335623    -0.762323843142
    H           -1.848040218155     1.051538064113     0.971319821620
    H           -3.414049766697    -0.933719103031    -0.758472067032
    H           -4.107264739832     0.387169330173     0.162717216329
    H           -3.359446016420    -0.962870418866     0.994735054961
    C            2.863159650596    -0.288471087154    -0.285128739999
    H            2.838562008392     0.079166703136    -1.301699285820
    H            3.505597038882    -1.152604470130    -0.217941497094
    H            3.220638416326     0.494346933939     0.367730778194

  Mulliken Charges: (a.u.)
   Center  Symbol    Alpha    Beta     Spin     Total
       1     O     4.28280  4.28280  0.00000 -0.56560
       2     C     2.60591  2.60591  0.00000  0.78817
       3     C     3.20699  3.20699  0.00000 -0.41398
       4     O     4.30806  4.30806  0.00000 -0.61613
       5     C     3.15213  3.15213  0.00000 -0.30427
       6     H     0.40238  0.40238  0.00000  0.19524
       7     H     0.39979  0.39979  0.00000  0.20043
       8     C     3.24273  3.24273  0.00000 -0.48546
       9     H     0.41009  0.41009  0.00000  0.17983
      10     H     0.41160  0.41160  0.00000  0.17680
      11     H     0.42152  0.42152  0.00000  0.15697
      12     H     0.41509  0.41509  0.00000  0.16982
      13     H     0.42117  0.42117  0.00000  0.15766
      14     C     3.09277  3.09277  0.00000 -0.18553
      15     H     0.41274  0.41274  0.00000  0.17452
      16     H     0.40794  0.40794  0.00000  0.18412
      17     H     0.40629  0.40629  0.00000  0.18742

   Total alpha = 28.00000, Total beta = 28.00000, Total charge = -0.00000
