  ==> Input File <==

--------------------------------------------------------------------------
set {
	reference rhf
	basis 6-31G*
}

set_num_threads( 1 )
memory 2 gb

molecule MOL {
0 1

H	 -0.244668	 3.342711	 -2.303229
O	 -0.727070	 2.528098	 -2.312268
C	 -0.432176	 1.792098	 -1.155406
C	 0.950776	 1.170231	 -1.235362
H	 -0.506656	 2.403986	 -0.260753
H	 -1.175497	 1.010700	 -1.082320
O	 1.171513	 0.459272	 -0.058250
H	 1.705267	 1.949462	 -1.359959
H	 1.008597	 0.518651	 -2.105238
C	 2.397842	 -0.198080	 -0.002151
H	 2.508049	 -0.905315	 -0.822092
H	 3.173794	 0.550865	 -0.078850
H	 2.517602	 -0.735921	 0.936026

	symmetry c1
}
set optking {
	frozen_dihedral = ("
		8 4 3 5,
		1 2 3 5,
		10 7 4 8
	")
}

ee = energy('scf')
oeprop('DIPOLE', 'QUADRUPOLE', 'MULLIKEN_CHARGES')
f=open( 'psi4out.xyz', 'w' )
f.write( "13  " )
f.write( str(ee) + "\n" )
f.write( MOL.save_string_xyz() )
f.close()
--------------------------------------------------------------------------

    Molecular point group: c1

    Geometry (in Angstrom), charge = 0, multiplicity = 1:

       Center              X                  Y                   Z               Mass
    ------------   -----------------  -----------------  -----------------  -----------------
           H         -0.917400478559     2.170460311866    -1.333331658422     1.007825032070
           O         -1.399802478559     1.355847311866    -1.342370658422    15.994914619560
           C         -1.104908478559     0.619847311866    -0.185508658422    12.000000000000
           C          0.278043521441    -0.002019688134    -0.265464658422    12.000000000000
           H         -1.179388478559     1.231735311866     0.709144341578     1.007825032070
           H         -1.848229478559    -0.161550688134    -0.112422658422     1.007825032070
           O          0.498780521441    -0.712978688134     0.911647341578    15.994914619560
           H          1.032534521441     0.777211311866    -0.390061658422     1.007825032070
           H          0.335864521441    -0.653599688134    -1.135340658422     1.007825032070
           C          1.725109521441    -1.370330688134     0.967746341578    12.000000000000
           H          1.835316521441    -2.077565688134     0.147805341578     1.007825032070
           H          2.501061521441    -0.621385688134     0.891047341578     1.007825032070
           H          1.844869521441    -1.908171688134     1.905923341578     1.007825032070

  Charge       = 0
  Multiplicity = 1
  Basis Set: 6-31G*
  Basis Set:

    Orbital Energies (a.u.)
    -----------------------

    Doubly Occupied:

       1A    -20.561380     2A    -20.560351     3A    -11.271456
       4A    -11.270677     5A    -11.269204     6A     -1.388651
       7A     -1.365361     8A     -1.018290     9A     -0.913347
      10A     -0.842310    11A     -0.709717    12A     -0.675636
      13A     -0.658811    14A     -0.637572    15A     -0.597140
      16A     -0.570626    17A     -0.545325    18A     -0.488661
      19A     -0.481253    20A     -0.438699    21A     -0.421492

  @DF-RHF Final Energy:  -267.94950244317306

   => Energetics <=

    Nuclear Repulsion Energy =            190.2937635974786019
    One-Electron Energy =                -743.1146345273982661
    Two-Electron Energy =                 284.8713684867465190
    DFT Exchange-Correlation Energy =       0.0000000000000000
    Empirical Dispersion Energy =           0.0000000000000000
    PCM Polarization Energy =               0.0000000000000000
    EFP Energy =                            0.0000000000000000
    Total Energy =                       -267.9495024431731736

  Mulliken Charges: (a.u.)
   Center  Symbol    Alpha    Beta     Spin     Total
       1     H     0.28123  0.28123  0.00000  0.43753
       2     O     4.37083  4.37083  0.00000 -0.74165
       3     C     3.00460  3.00460  0.00000 -0.00920
       4     C     2.99639  2.99639  0.00000  0.00722
       5     H     0.42219  0.42219  0.00000  0.15563
       6     H     0.40826  0.40826  0.00000  0.18347
       7     O     4.30833  4.30833  0.00000 -0.61665
       8     H     0.43780  0.43780  0.00000  0.12441
       9     H     0.42307  0.42307  0.00000  0.15385
      10     C     3.07961  3.07961  0.00000 -0.15923
      11     H     0.42796  0.42796  0.00000  0.14407
      12     H     0.42903  0.42903  0.00000  0.14195
      13     H     0.41070  0.41070  0.00000  0.17861

   Total alpha = 21.00000, Total beta = 21.00000, Total charge =  0.00000
