                              Psi4 1.0.54 Driver

  ==> Input File <==

--------------------------------------------------------------------------
set {
	reference rhf
	basis cc-pvtz
}

set_num_threads( 4 )
memory 2 gb

molecule MOL {
0 1

H	 -2.644180	 -0.653737	 1.272255
C	 -2.092774	 -0.380414	 0.391915
O	 -0.808934	 -0.154049	 0.752536
F	 -2.163230	 -1.351640	 -0.507133
F	 -2.627232	 0.691260	 -0.169301
C	 -0.563075	 0.673312	 1.826932
C	 0.584403	 1.601621	 1.436016
Cl	 -0.125723	 -0.261290	 3.269423
H	 -1.412830	 1.281341	 2.083573
F	 0.859133	 2.427290	 2.413674
F	 0.221996	 2.313720	 0.395396
F	 1.668200	 0.945071	 1.125248

	symmetry c1
}
set optking {
	frozen_dihedral = ("
		6 3 2 4
	")
}

ee,wfn = optimize('scf', return_wfn=True)
oeprop( wfn, 'DIPOLE', 'QUADRUPOLE', 'MULLIKEN_CHARGES')
f=open( 'psi4out.xyz', 'w' )
f.write( "12  " )
f.write( str(ee) + "\n" )
f.write( MOL.save_string_xyz() )
f.close()
--------------------------------------------------------------------------

    Molecular point group: c1
  Charge       = 0
  Multiplicity = 1
  Basis Set: CC-PVTZ
  Basis Set:
  @DF-RHF Final Energy: -1146.61539623824933
    Total Energy =                      -1146.6153962382491045
    Molecular point group: c1
  Basis Set: CC-PVTZ
  Basis Set:
  Basis Set: CC-PVTZ
  Basis Set:
  @DF-RHF Final Energy: -1146.61773856879267
    Total Energy =                      -1146.6177385687929018
  Basis Set: CC-PVTZ
  Basis Set:
  Basis Set: CC-PVTZ
  Basis Set:
  @DF-RHF Final Energy: -1146.61781091842886
    Total Energy =                      -1146.6178109184281766
  Basis Set: CC-PVTZ
  Basis Set:
  Basis Set: CC-PVTZ
  Basis Set:
  @DF-RHF Final Energy: -1146.61841004921553
    Total Energy =                      -1146.6184100492150719
  Basis Set: CC-PVTZ
  Basis Set:
  @DF-RHF Final Energy: -1146.61875855904782
    Total Energy =                      -1146.6187585590482740
  @DF-RHF Final Energy: -1146.61922495993485
    Total Energy =                      -1146.6192249599341721
  @DF-RHF Final Energy: -1146.61945030876473
    Total Energy =                      -1146.6194503087644989
  Basis Set: CC-PVTZ
  Basis Set:
  @DF-RHF Final Energy: -1146.61948812541505
    Total Energy =                      -1146.6194881254141364
  Basis Set: CC-PVTZ
  Basis Set:
  Basis Set: CC-PVTZ
  Basis Set:
  @DF-RHF Final Energy: -1146.61948557914866
    Total Energy =                      -1146.6194855791491136
  Basis Set: CC-PVTZ
  Basis Set:
  Basis Set: CC-PVTZ
  Basis Set:
  @DF-RHF Final Energy: -1146.61949688192612
    Total Energy =                      -1146.6194968819256701
  Basis Set: CC-PVTZ
  Basis Set:
  Charge       = 0
  Multiplicity = 1
  Basis Set: CC-PVTZ
  Basis Set:

    Orbital Energies (a.u.)
    -----------------------

    Doubly Occupied:

       1A   -104.866297     2A    -26.358811     3A    -26.357011
       4A    -26.356696     5A    -26.342685     6A    -26.341560
       7A    -20.643125     8A    -11.525268     9A    -11.483407
      10A    -11.407968    11A    -10.591833    12A     -8.058591
      13A     -8.056690    14A     -8.056597    15A     -1.771880
      16A     -1.724085    17A     -1.666747    18A     -1.665024
      19A     -1.646342    20A     -1.491549    21A     -1.180683
      22A     -1.061651    23A     -0.988020    24A     -0.931281
      25A     -0.867373    26A     -0.861909    27A     -0.855887
      28A     -0.831714    29A     -0.820481    30A     -0.795325
      31A     -0.737510    32A     -0.734595    33A     -0.706436
      34A     -0.696847    35A     -0.693028    36A     -0.682811
      37A     -0.673238    38A     -0.667466    39A     -0.665722
      40A     -0.643366    41A     -0.604027    42A     -0.573942
      43A     -0.522722    44A     -0.489914    45A     -0.479587

  @DF-RHF Final Energy: -1146.61949713335116

   => Energetics <=

    Nuclear Repulsion Energy =            728.5290435706955350
    One-Electron Energy =               -3039.9416804375086940
    Two-Electron Energy =                1164.7931397334614303
    DFT Exchange-Correlation Energy =       0.0000000000000000
    Empirical Dispersion Energy =           0.0000000000000000
    PCM Polarization Energy =               0.0000000000000000
    EFP Energy =                            0.0000000000000000
    Total Energy =                      -1146.6194971333516150
    Molecular point group: c1
  Basis Set: CC-PVTZ
  Basis Set:

  -Total Gradient:
     Atom            X                  Y                   Z
    ------   -----------------  -----------------  -----------------
       1       -0.000012311487     0.000011707138     0.000003778843
       2       -0.000285434245     0.000678988667    -0.000693180989
       3       -0.000505174201     0.001392619143    -0.000672323779
       4        0.000333291539    -0.000942015894     0.000753660789
       5        0.000075826000    -0.000027995275     0.000011384317
       6        0.000392262269    -0.001116257261     0.000544619396
       7        0.000010669143     0.000001406231     0.000007276236
       8        0.000018614632     0.000001585477     0.000037720561
       9        0.000018823233     0.000015421076     0.000001098496
      10       -0.000007803913    -0.000019709378    -0.000007658215
      11       -0.000005384762    -0.000009575840     0.000007792975
      12       -0.000033378223     0.000013825899     0.000005831449

  **** Optimization is complete! (in 10 steps) ****
    Final optimized geometry and variables:
    Molecular point group: c1

    Geometry (in Angstrom), charge = 0, multiplicity = 1:

    H           -1.932658177687    -1.574669582123     0.061527481220
    C           -1.622165067067    -1.033869640125    -0.817714969212
    O           -0.375180762028    -0.504450543617    -0.699277080382
    F           -1.596923134007    -1.835387045962    -1.851939829840
    F           -2.499912892039    -0.069427910489    -1.056610828529
    C           -0.093824180537     0.205537798736     0.435104776201
    C            1.169621604673     1.015987165683     0.154822054497
    CL           0.161200051986    -0.857723350437     1.845718992226
    H           -0.880439310290     0.892456651704     0.701328034515
    F            1.485845989416     1.735567083171     1.201693624130
    F            0.940987125965     1.832829904431    -0.843725368318
    F            2.183494757926     0.257523222007    -0.154548389324

  Mulliken Charges: (a.u.)
   Center  Symbol    Alpha    Beta     Spin     Total
       1     H     0.47627  0.47627  0.00000  0.04746
       2     C     2.74065  2.74065  0.00000  0.51871
       3     O     4.13920  4.13920  0.00000 -0.27840
       4     F     4.59838  4.59838  0.00000 -0.19675
       5     F     4.61641  4.61641  0.00000 -0.23282
       6     C     2.94733  2.94733  0.00000  0.10535
       7     C     2.66866  2.66866  0.00000  0.66268
       8    CL     8.58075  8.58075  0.00000 -0.16149
       9     H     0.42923  0.42923  0.00000  0.14153
      10     F     4.60234  4.60234  0.00000 -0.20469
      11     F     4.60207  4.60207  0.00000 -0.20414
      12     F     4.59872  4.59872  0.00000 -0.19744

   Total alpha = 45.00000, Total beta = 45.00000, Total charge = -0.00000

*** Psi4 exiting successfully. Buy a developer a beer!
