  ==> Input File <==

--------------------------------------------------------------------------
set {
	reference rhf
	basis cc-pvtz
}

set_num_threads( 4 )
memory 2 gb

molecule MOL {
0 1

H	 -2.467058	 -0.129991	 0.657984
N	 -1.851927	 0.161443	 -0.071573
C	 -0.561396	 -0.500007	 0.035200
H	 -1.752163	 1.152141	 0.005248
C	 0.575129	 0.507849	 -0.048832
H	 -0.478089	 -1.200753	 -0.788956
H	 -0.456191	 -1.081816	 0.952176
C	 1.951750	 -0.141983	 0.035101
H	 0.478254	 1.061643	 -0.975981
H	 0.467676	 1.231891	 0.755499
H	 2.101550	 -0.848142	 -0.774949
H	 2.738260	 0.600794	 -0.026526
H	 2.078939	 -0.679792	 0.968824

	symmetry c1
}
set optking {
	frozen_dihedral = ("
		1 2 3 6
	")
}

ee = optimize('scf')
oeprop('DIPOLE', 'QUADRUPOLE', 'MULLIKEN_CHARGES')
f=open( 'psi4out.xyz', 'w' )
f.write( "13  " )
f.write( str(ee) + "\n" )
f.write( MOL.save_string_xyz() )
f.close()
--------------------------------------------------------------------------

    Molecular point group: c1
  Charge       = 0
  Multiplicity = 1
  Basis Set: CC-PVTZ
  Basis Set:
  @DF-RHF Final Energy:  -173.34849664736683
    Total Energy =                       -173.3484966473667441
    Molecular point group: c1
  Basis Set: CC-PVTZ
  Basis Set:
  Basis Set: CC-PVTZ
  Basis Set:
  @DF-RHF Final Energy:  -173.34889032002152
    Total Energy =                       -173.3488903200214963
  Basis Set: CC-PVTZ
  Basis Set:
  Basis Set: CC-PVTZ
  Basis Set:
  @DF-RHF Final Energy:  -173.34895512149308
    Total Energy =                       -173.3489551214932192
  Basis Set: CC-PVTZ
  Basis Set:
  Basis Set: CC-PVTZ
  Basis Set:
  @DF-RHF Final Energy:  -173.34895712990723
    Total Energy =                       -173.3489571299071770
  Basis Set: CC-PVTZ
  Basis Set:
  Charge       = 0
  Multiplicity = 1
  Basis Set: CC-PVTZ
  Basis Set:

    Orbital Energies (a.u.)
    -----------------------

    Doubly Occupied:

       1A    -15.524042     2A    -11.238161     3A    -11.216578
       4A    -11.210159     5A     -1.175961     6A     -1.039048
       7A     -0.900615     8A     -0.807112     9A     -0.659361
      10A     -0.631520    11A     -0.605616    12A     -0.554462
      13A     -0.547189    14A     -0.498077    15A     -0.481701
      16A     -0.470798    17A     -0.380050

  @DF-RHF Final Energy:  -173.34895759945047

   => Energetics <=

    Nuclear Repulsion Energy =            131.9823372885010997
    One-Electron Energy =                -494.7816893071385493
    Two-Electron Energy =                 189.4503944191870062
    DFT Exchange-Correlation Energy =       0.0000000000000000
    Empirical Dispersion Energy =           0.0000000000000000
    PCM Polarization Energy =               0.0000000000000000
    EFP Energy =                            0.0000000000000000
    Total Energy =                       -173.3489575994504719
    Molecular point group: c1
  Basis Set: CC-PVTZ
  Basis Set:

  -Total Gradient:
     Atom            X                  Y                   Z
    ------   -----------------  -----------------  -----------------
       1        0.000438211214     0.001076974192     0.000815383087
       2       -0.000465312307    -0.001129921471    -0.001246702025
       3       -0.000508991549    -0.000867011786     0.001177677640
       4        0.000001904989     0.000020385571     0.000003021709
       5       -0.000013776965    -0.000008790098     0.000010675502
       6        0.000506009748     0.000927131419    -0.000743766342
       7        0.000032311428    -0.000005238775    -0.000007518528
       8        0.000008072637    -0.000002781700    -0.000012681032
       9       -0.000006163792    -0.000005282326     0.000005556612
      10       -0.000009242667    -0.000003757848    -0.000006323787
      11        0.000001332978    -0.000003129801     0.000007593613
      12        0.000013486311    -0.000001089774    -0.000000726500
      13        0.000002157976     0.000002512398    -0.000002189950

  **** Optimization is complete! (in 5 steps) ****
    Final optimized geometry and variables:
    Molecular point group: c1

    Geometry (in Angstrom), charge = 0, multiplicity = 1:

    H           -2.498088458241    -0.142376590008     0.635721371505
    N           -1.873143377157     0.135180597369    -0.088578350080
    C           -0.565656521489    -0.501710059821     0.049607570741
    H           -1.797717436236     1.128356912546    -0.042005744424
    C            0.577797448994     0.501263786255    -0.027131471370
    H           -0.438867384012    -1.227343283957    -0.748307605217
    H           -0.495016812490    -1.048454178579     0.986090509866
    C            1.951366286213    -0.158154327808     0.016839578417
    H            0.478707820147     1.073313485709    -0.945794351371
    H            0.485823387310     1.209400173840     0.792423273279
    H            2.081801839284    -0.846391741154    -0.811114760986
    H            2.741455695510     0.581137098874    -0.040644542224
    H            2.088867520818    -0.717458256910     0.936245431765

  Mulliken Charges: (a.u.)
   Center  Symbol    Alpha    Beta     Spin     Total
       1     H     0.42874  0.42874  0.00000  0.14251
       2     N     3.69303  3.69303  0.00000 -0.38606
       3     C     3.01319  3.01319  0.00000 -0.02639
       4     H     0.43014  0.43014  0.00000  0.13972
       5     C     3.08609  3.08609  0.00000 -0.17218
       6     H     0.46427  0.46427  0.00000  0.07145
       7     H     0.46538  0.46538  0.00000  0.06924
       8     C     3.15219  3.15219  0.00000 -0.30437
       9     H     0.45189  0.45189  0.00000  0.09622
      10     H     0.45778  0.45778  0.00000  0.08445
      11     H     0.45367  0.45367  0.00000  0.09265
      12     H     0.44789  0.44789  0.00000  0.10422
      13     H     0.45573  0.45573  0.00000  0.08854

   Total alpha = 17.00000, Total beta = 17.00000, Total charge = -0.00000
