  ==> Input File <==

--------------------------------------------------------------------------
set {
	reference rhf
	basis 6-31G*
}

set_num_threads( 1 )
memory 2 gb

molecule MOL {
0 1

O	 1.992598	 1.029908	 0.705464
C	 1.705091	 0.115954	 0.001797
C	 0.381791	 -0.609817	 0.001258
O	 2.533316	 -0.393981	 -0.901057
C	 -0.823008	 0.326187	 0.001381
H	 0.371250	 -1.265087	 -0.865474
H	 0.370908	 -1.265746	 0.867490
C	 -2.149452	 -0.435131	 -0.000098
H	 -0.770201	 0.977095	 -0.865636
H	 -0.771220	 0.975655	 0.869608
C	 -3.368779	 0.488503	 -0.000883
H	 -2.193746	 -1.087250	 -0.871175
H	 -2.195311	 -1.087803	 0.870418
C	 -4.693822	 -0.272754	 -0.001129
H	 -3.325798	 1.139422	 -0.871284
H	 -3.326423	 1.139959	 0.869145
H	 -4.781274	 -0.907928	 -0.878124
H	 -5.538651	 0.408946	 -0.001420
H	 -4.781694	 -0.907783	 0.875984
C	 3.814570	 0.199662	 -1.005609
H	 3.729333	 1.242697	 -1.274572
H	 4.330065	 -0.345537	 -1.780786
H	 4.349378	 0.116674	 -0.070409

	symmetry c1
}
set optking {
	frozen_dihedral = ("
		15 11 8 12,
		9 5 8 12,
		9 5 3 6,
		1 2 4 20
	")
}

ee = energy('scf')
oeprop('DIPOLE', 'QUADRUPOLE', 'MULLIKEN_CHARGES')
f=open( 'psi4out.xyz', 'w' )
f.write( "23  " )
f.write( str(ee) + "\n" )
f.write( MOL.save_string_xyz() )
f.close()
--------------------------------------------------------------------------

    Molecular point group: c1

    Geometry (in Angstrom), charge = 0, multiplicity = 1:

       Center              X                  Y                   Z               Mass
    ------------   -----------------  -----------------  -----------------  -----------------
           O          2.022258465712     0.975723435551     0.846268570077    15.994914619560
           C          1.734751465712     0.061769435551     0.142601570077    12.000000000000
           C          0.411451465712    -0.664001564449     0.142062570077    12.000000000000
           O          2.562976465712    -0.448165564449    -0.760252429923    15.994914619560
           C         -0.793347534288     0.272002435551     0.142185570077    12.000000000000
           H          0.400910465712    -1.319271564449    -0.724669429923     1.007825032070
           H          0.400568465712    -1.319930564449     1.008294570077     1.007825032070
           C         -2.119791534288    -0.489315564449     0.140706570077    12.000000000000
           H         -0.740540534288     0.922910435551    -0.724831429923     1.007825032070
           H         -0.741559534288     0.921470435551     1.010412570077     1.007825032070
           C         -3.339118534288     0.434318435551     0.139921570077    12.000000000000
           H         -2.164085534288    -1.141434564449    -0.730370429923     1.007825032070
           H         -2.165650534288    -1.141987564449     1.011222570077     1.007825032070
           C         -4.664161534288    -0.326938564449     0.139675570077    12.000000000000
           H         -3.296137534288     1.085237435551    -0.730479429923     1.007825032070
           H         -3.296762534288     1.085774435551     1.009949570077     1.007825032070
           H         -4.751613534288    -0.962112564449    -0.737319429923     1.007825032070
           H         -5.508990534288     0.354761435551     0.139384570077     1.007825032070
           H         -4.752033534288    -0.961967564449     1.016788570077     1.007825032070
           C          3.844230465712     0.145477435551    -0.864804429923    12.000000000000
           H          3.758993465712     1.188512435551    -1.133767429923     1.007825032070
           H          4.359725465712    -0.399721564449    -1.639981429923     1.007825032070
           H          4.379038465712     0.062489435551     0.070395570077     1.007825032070

  Charge       = 0
  Multiplicity = 1
  Basis Set: 6-31G*
  Basis Set:

    Orbital Energies (a.u.)
    -----------------------

    Doubly Occupied:

       1A    -20.605017     2A    -20.543660     3A    -11.371788
       4A    -11.280421     5A    -11.233868     6A    -11.224295
       7A    -11.219990     8A    -11.218125     9A    -11.210807
      10A     -1.469283    11A     -1.362045    12A     -1.095158
      13A     -1.044478    14A     -0.987129    15A     -0.932857
      16A     -0.845424    17A     -0.796940    18A     -0.770094
      19A     -0.694957    20A     -0.681873    21A     -0.671706
      22A     -0.652541    23A     -0.606890    24A     -0.599221
      25A     -0.575160    26A     -0.568753    27A     -0.547250
      28A     -0.527513    29A     -0.523478    30A     -0.508410
      31A     -0.484908    32A     -0.473515    33A     -0.467254
      34A     -0.464206    35A     -0.454721    36A     -0.431788

  @DF-RHF Final Energy:  -422.97468386397287

   => Energetics <=

    Nuclear Repulsion Energy =            452.3803503091616562
    One-Electron Energy =               -1472.4191974248610677
    Two-Electron Energy =                 597.0641632517260859
    DFT Exchange-Correlation Energy =       0.0000000000000000
    Empirical Dispersion Energy =           0.0000000000000000
    PCM Polarization Energy =               0.0000000000000000
    EFP Energy =                            0.0000000000000000
    Total Energy =                       -422.9746838639732687

  Mulliken Charges: (a.u.)
   Center  Symbol    Alpha    Beta     Spin     Total
       1     O     4.28620  4.28620  0.00000 -0.57241
       2     C     2.60567  2.60567  0.00000  0.78865
       3     C     3.20884  3.20884  0.00000 -0.41769
       4     O     4.30471  4.30471  0.00000 -0.60941
       5     C     3.15878  3.15878  0.00000 -0.31757
       6     H     0.40016  0.40016  0.00000  0.19969
       7     H     0.40070  0.40070  0.00000  0.19860
       8     C     3.15291  3.15291  0.00000 -0.30583
       9     H     0.41655  0.41655  0.00000  0.16690
      10     H     0.40514  0.40514  0.00000  0.18973
      11     C     3.15212  3.15212  0.00000 -0.30423
      12     H     0.42284  0.42284  0.00000  0.15432
      13     H     0.42229  0.42229  0.00000  0.15542
      14     C     3.23976  3.23976  0.00000 -0.47951
      15     H     0.42191  0.42191  0.00000  0.15617
      16     H     0.42066  0.42066  0.00000  0.15868
      17     H     0.42164  0.42164  0.00000  0.15672
      18     H     0.41824  0.41824  0.00000  0.16352
      19     H     0.42133  0.42133  0.00000  0.15733
      20     C     3.09340  3.09340  0.00000 -0.18681
      21     H     0.40877  0.40877  0.00000  0.18245
      22     H     0.40847  0.40847  0.00000  0.18306
      23     H     0.40890  0.40890  0.00000  0.18220

   Total alpha = 36.00000, Total beta = 36.00000, Total charge = -0.00000
