                              Psi4 1.0.54 Driver

  ==> Input File <==

--------------------------------------------------------------------------
set {
	reference rhf
	basis cc-pvtz
}

set_num_threads( 4 )
memory 2 gb

molecule MOL {
0 1

H	 2.322238	 -2.160049	 1.307884
C	 1.820648	 -1.629955	 0.505269
C	 0.732594	 -0.727122	 1.070543
H	 1.390035	 -2.357769	 -0.171326
H	 2.573456	 -1.073836	 -0.039474
N	 0.000297	 0.000045	 0.046090
H	 0.033511	 -1.346523	 1.615283
H	 1.163744	 -0.040617	 1.804541
C	 -1.359159	 0.315706	 0.454404
C	 0.722793	 1.169561	 -0.427994
C	 -2.416729	 -0.286720	 -0.460525
H	 -1.478729	 1.390261	 0.442008
H	 -1.539692	 0.003361	 1.486761
C	 0.378685	 1.547976	 -1.862159
H	 1.782231	 0.958410	 -0.382552
H	 0.556615	 2.025613	 0.231910
H	 -2.285276	 0.073129	 -1.473515
H	 -2.371743	 -1.368476	 -0.483209
H	 -3.408658	 -0.007405	 -0.121593
H	 0.606099	 0.727411	 -2.531385
H	 -0.669155	 1.794073	 -1.981507
H	 0.955336	 2.413722	 -2.170003

	symmetry c1
}
set optking {
	frozen_dihedral = ("
		3 6 9 11
	")
}

ee,wfn = optimize('scf', return_wfn=True)
oeprop( wfn, 'DIPOLE', 'QUADRUPOLE', 'MULLIKEN_CHARGES')
f=open( 'psi4out.xyz', 'w' )
f.write( "22  " )
f.write( str(ee) + "\n" )
f.write( MOL.save_string_xyz() )
f.close()
--------------------------------------------------------------------------

    Molecular point group: c1
  Charge       = 0
  Multiplicity = 1
  Basis Set: CC-PVTZ
  Basis Set:
  @DF-RHF Final Energy:  -290.47240909165470
    Total Energy =                       -290.4724090916545833
    Molecular point group: c1
  Basis Set: CC-PVTZ
  Basis Set:
  Basis Set: CC-PVTZ
  Basis Set:
  @DF-RHF Final Energy:  -290.47299744566089
    Total Energy =                       -290.4729974456612354
  Basis Set: CC-PVTZ
  Basis Set:
  Basis Set: CC-PVTZ
  Basis Set:
  @DF-RHF Final Energy:  -290.47365061681109
    Total Energy =                       -290.4736506168109145
  Basis Set: CC-PVTZ
  Basis Set:
  Basis Set: CC-PVTZ
  Basis Set:
  @DF-RHF Final Energy:  -290.47372340203498
    Total Energy =                       -290.4737234020350343
  Basis Set: CC-PVTZ
  Basis Set:
  Basis Set: CC-PVTZ
  Basis Set:
  @DF-RHF Final Energy:  -290.47376267844345
    Total Energy =                       -290.4737626784439044
  Basis Set: CC-PVTZ
  Basis Set:
  Basis Set: CC-PVTZ
  Basis Set:
  @DF-RHF Final Energy:  -290.47376857911564
    Total Energy =                       -290.4737685791155855
  Basis Set: CC-PVTZ
  Basis Set:
  Basis Set: CC-PVTZ
  Basis Set:
  @DF-RHF Final Energy:  -290.47376994773163
    Total Energy =                       -290.4737699477317392
  Basis Set: CC-PVTZ
  Basis Set:
  Charge       = 0
  Multiplicity = 1
  Basis Set: CC-PVTZ
  Basis Set:

    Orbital Energies (a.u.)
    -----------------------

    Doubly Occupied:

       1A    -15.532410     2A    -11.239893     3A    -11.238288
       4A    -11.238068     5A    -11.204667     6A    -11.204100
       7A    -11.200947     8A     -1.223943     9A     -1.026934
      10A     -1.021212    11A     -0.957971    12A     -0.853170
      13A     -0.837963    14A     -0.773972    15A     -0.657875
      16A     -0.638122    17A     -0.617406    18A     -0.598939
      19A     -0.575899    20A     -0.556398    21A     -0.538225
      22A     -0.523985    23A     -0.517223    24A     -0.499124
      25A     -0.491600    26A     -0.481444    27A     -0.465081
      28A     -0.459975    29A     -0.341650

  @DF-RHF Final Energy:  -290.47377010497536

   => Energetics <=

    Nuclear Repulsion Energy =            338.1097105733040848
    One-Electron Energy =               -1062.1340061901032641
    Two-Electron Energy =                 433.5505255118237073
    DFT Exchange-Correlation Energy =       0.0000000000000000
    Empirical Dispersion Energy =           0.0000000000000000
    PCM Polarization Energy =               0.0000000000000000
    EFP Energy =                            0.0000000000000000
    Total Energy =                       -290.4737701049755287
    Molecular point group: c1
  Basis Set: CC-PVTZ
  Basis Set:

  -Total Gradient:
     Atom            X                  Y                   Z
    ------   -----------------  -----------------  -----------------
       1       -0.000003954130     0.000000096384    -0.000000519604
       2       -0.000002064756    -0.000004664999     0.000003265396
       3        0.000374411140     0.001050622223     0.000383726755
       4        0.000004513745     0.000003926981     0.000001483791
       5       -0.000007358239    -0.000002554964     0.000002287370
       6       -0.000484295160    -0.001050513095    -0.000854084456
       7       -0.000003437909    -0.000002655542     0.000001824068
       8        0.000004292494     0.000004014648     0.000006954893
       9        0.000085390118    -0.000889761252     0.001107001663
      10       -0.000018795633    -0.000010182466     0.000020933282
      11        0.000063038776     0.000913464544    -0.000671481615
      12       -0.000005057465     0.000000382263     0.000005497053
      13       -0.000006598634    -0.000000128957    -0.000000720594
      14       -0.000006641259    -0.000007220254    -0.000017202343
      15       -0.000004746052     0.000011253505    -0.000000983546
      16        0.000009921495     0.000000723417     0.000002447035
      17       -0.000002271389    -0.000004443015     0.000002176018
      18       -0.000002826793    -0.000003371920    -0.000000412923
      19       -0.000002172244     0.000001147662     0.000000478053
      20       -0.000007381357     0.000005900025    -0.000000989400
      21        0.000020210199    -0.000003764288     0.000000385211
      22       -0.000004176946    -0.000012270900     0.000007933893

  **** Optimization is complete! (in 8 steps) ****
    Final optimized geometry and variables:
    Molecular point group: c1

    Geometry (in Angstrom), charge = 0, multiplicity = 1:

    H            2.305018470402    -2.206926238842     1.541621139857
    C            1.897630729791    -1.632732465794     0.716487080871
    C            0.731100408160    -0.784695025112     1.207613116323
    H            1.563752676246    -2.322002798729    -0.049475690026
    H            2.705485584090    -1.040008025031     0.307597844051
    N            0.026468014257    -0.081889735329     0.147915217112
    H            0.023692734263    -1.450567158916     1.684527697063
    H            1.079789352370    -0.095979841284     1.983827703722
    C           -1.342798337452     0.276795538532     0.511262786486
    C            0.787069284680     1.034216502846    -0.385300492209
    C           -2.384788703808    -0.342956990771    -0.411854713137
    H           -1.460817120284     1.357244711554     0.511842428327
    H           -1.545508523631    -0.038213759193     1.528523348822
    C            0.292213028256     1.524469789410    -1.738979447359
    H            1.814139221057     0.720540368162    -0.502405667572
    H            0.798978245249     1.871366537367     0.320100834472
    H           -2.239438794884    -0.027739006623    -1.436770193688
    H           -2.318639013557    -1.424452429793    -0.387148847984
    H           -3.386208044618    -0.056337863750    -0.105619577752
    H            0.297626375146     0.716951912238    -2.460931941362
    H           -0.712367784000     1.925233265587    -1.688106451037
    H            0.939800148449     2.314523722842    -2.102897464215

  Mulliken Charges: (a.u.)
   Center  Symbol    Alpha    Beta     Spin     Total
       1     H     0.45170  0.45170  0.00000  0.09659
       2     C     3.14518  3.14518  0.00000 -0.29035
       3     C     3.03785  3.03785  0.00000 -0.07571
       4     H     0.45095  0.45095  0.00000  0.09811
       5     H     0.45565  0.45565  0.00000  0.08871
       6     N     3.61812  3.61812  0.00000 -0.23625
       7     H     0.45359  0.45359  0.00000  0.09282
       8     H     0.46744  0.46744  0.00000  0.06513
       9     C     3.05498  3.05498  0.00000 -0.10997
      10     C     3.04088  3.04088  0.00000 -0.08175
      11     C     3.12933  3.12933  0.00000 -0.25867
      12     H     0.45585  0.45585  0.00000  0.08829
      13     H     0.45189  0.45189  0.00000  0.09621
      14     C     3.15287  3.15287  0.00000 -0.30575
      15     H     0.45164  0.45164  0.00000  0.09671
      16     H     0.46666  0.46666  0.00000  0.06668
      17     H     0.45307  0.45307  0.00000  0.09387
      18     H     0.45467  0.45467  0.00000  0.09067
      19     H     0.45731  0.45731  0.00000  0.08538
      20     H     0.44954  0.44954  0.00000  0.10091
      21     H     0.45325  0.45325  0.00000  0.09349
      22     H     0.44757  0.44757  0.00000  0.10486

   Total alpha = 29.00000, Total beta = 29.00000, Total charge = -0.00000

*** Psi4 exiting successfully. Buy a developer a beer!
