  ==> Input File <==

--------------------------------------------------------------------------
set {
	reference rhf
	basis 6-31G*
}

set_num_threads( 4 )
memory 2 gb

molecule MOL {
0 1

O	 -0.291596	 1.323697	 -0.022537
C	 -0.449640	 0.146302	 -0.010681
C	 -1.783272	 -0.549393	 -0.010510
O	 0.550821	 -0.724572	 0.000672
H	 -1.860297	 -1.193395	 -0.878850
H	 -2.574629	 0.185114	 -0.022633
H	 -1.869631	 -1.174435	 0.870651
C	 1.863949	 -0.193559	 -0.000319
H	 2.028859	 0.409284	 -0.881648
H	 2.526261	 -1.045082	 -0.000003
H	 2.029520	 0.410555	 0.880008

	symmetry c1
}
set optking {
	frozen_dihedral = ("
		2 4 8 9
	")
}

ee = optimize('scf')
oeprop('DIPOLE', 'QUADRUPOLE', 'MULLIKEN_CHARGES')
f=open( 'psi4out.xyz', 'w' )
f.write( "11  " )
f.write( str(ee) + "\n" )
f.write( MOL.save_string_xyz() )
f.close()
--------------------------------------------------------------------------

    Molecular point group: c1
  Charge       = 0
  Multiplicity = 1
  Basis Set: 6-31G*
  Basis Set:
  @DF-RHF Final Energy:  -266.83644180054455
    Total Energy =                       -266.8364418005447760
    Molecular point group: c1
  Basis Set: 6-31G*
  Basis Set:
  Basis Set: 6-31G*
  Basis Set:
  @DF-RHF Final Energy:  -266.83640675664878
    Total Energy =                       -266.8364067566487847
  Basis Set: 6-31G*
  Basis Set:
  Charge       = 0
  Multiplicity = 1
  Basis Set: 6-31G*
  Basis Set:

    Orbital Energies (a.u.)
    -----------------------

    Doubly Occupied:

       1A    -20.605925     2A    -20.546563     3A    -11.376487
       4A    -11.282149     5A    -11.234772     6A     -1.471287
       7A     -1.364551     8A     -1.035979     9A     -0.952963
      10A     -0.778266    11A     -0.695818    12A     -0.681189
      13A     -0.677231    14A     -0.595181    15A     -0.592032
      16A     -0.560764    17A     -0.524673    18A     -0.524031
      19A     -0.458032    20A     -0.442424

  @DF-RHF Final Energy:  -266.83644242827967

   => Energetics <=

    Nuclear Repulsion Energy =            183.3350290778623162
    One-Electron Energy =                -727.5423054326683996
    Two-Electron Energy =                 277.3708339265264158
    DFT Exchange-Correlation Energy =       0.0000000000000000
    Empirical Dispersion Energy =           0.0000000000000000
    PCM Polarization Energy =               0.0000000000000000
    EFP Energy =                            0.0000000000000000
    Total Energy =                       -266.8364424282796108
    Molecular point group: c1
  Basis Set: 6-31G*
  Basis Set:

  -Total Gradient:
     Atom            X                  Y                   Z
    ------   -----------------  -----------------  -----------------
       1        0.000002109986     0.000006965179     0.000006887062
       2        0.000006913872    -0.000011002750    -0.000052069770
       3       -0.000005403714     0.000001477373    -0.000003996989
       4       -0.000012943523     0.000023522514     0.000095553563
       5       -0.000002781056    -0.000000629684    -0.000000349925
       6        0.000001590298    -0.000002531206    -0.000001547726
       7       -0.000000689654    -0.000000088958     0.000002735148
       8        0.000026613210    -0.000058951768    -0.000078293000
       9       -0.000010834861     0.000045365985     0.000030357646
      10        0.000009694245     0.000000198661     0.000001702425
      11       -0.000014268805    -0.000004325348    -0.000000978434

  **** Optimization is complete! (in 3 steps) ****
    Final optimized geometry and variables:
    Molecular point group: c1

    Geometry (in Angstrom), charge = 0, multiplicity = 1:

    O           -0.291460900957     1.323776020619    -0.013089500414
    C           -0.449638911121     0.146360178949    -0.002957099107
    C           -1.783350990528    -0.549243095503    -0.001876065357
    O            0.550762545212    -0.724620599638     0.009184298882
    H           -1.861145130108    -1.192776978797    -0.870504466008
    H           -2.574692449247     0.185194179929    -0.012865552685
    H           -1.868904820484    -1.174800058045     0.879088138019
    C            1.863878529542    -0.193574531699     0.008293404164
    H            2.029238634594     0.408800378699    -0.873220601823
    H            2.526382034880    -1.044949444501     0.010065343584
    H            2.028762338356     0.411417248848     0.888215039850

  Mulliken Charges: (a.u.)
   Center  Symbol    Alpha    Beta     Spin     Total
       1     O     4.28203  4.28203  0.00000 -0.56406
       2     C     2.62257  2.62257  0.00000  0.75486
       3     C     3.28175  3.28175  0.00000 -0.56349
       4     O     4.29930  4.29930  0.00000 -0.59860
       5     H     0.39990  0.39990  0.00000  0.20020
       6     H     0.39656  0.39656  0.00000  0.20689
       7     H     0.39988  0.39988  0.00000  0.20023
       8     C     3.09252  3.09252  0.00000 -0.18503
       9     H     0.40846  0.40846  0.00000  0.18309
      10     H     0.40834  0.40834  0.00000  0.18331
      11     H     0.40870  0.40870  0.00000  0.18259

   Total alpha = 20.00000, Total beta = 20.00000, Total charge =  0.00000
