  ==> Input File <==

--------------------------------------------------------------------------
set {
	reference rhf
	basis cc-pvtz
}

set_num_threads( 4 )
memory 2 gb

molecule MOL {
0 1

O	 2.459897	 1.985301	 -0.379335
C	 1.585673	 2.108322	 -1.173506
C	 0.329841	 1.261467	 -1.134075
C	 1.670006	 3.128302	 -2.286499
C	 0.288398	 0.247429	 0.000314
H	 -0.519719	 1.938290	 -1.077288
H	 0.238975	 0.765582	 -2.097842
C	 -0.993089	 -0.581367	 -0.000217
H	 0.390444	 0.767524	 0.945936
H	 1.149927	 -0.406144	 -0.075479
C	 -2.258482	 0.271340	 0.000669
H	 -1.002280	 -1.233920	 -0.870484
H	 -1.002061	 -1.235367	 0.868958
C	 -3.544441	 -0.550271	 -0.000253
H	 -2.250545	 0.925250	 -0.867923
H	 -2.250598	 0.923423	 0.870642
C	 -4.804551	 0.308747	 0.000556
H	 -3.553737	 -1.201524	 -0.870151
H	 -3.553831	 -1.203282	 0.868313
H	 -4.842050	 0.949078	 -0.874436
H	 -5.698404	 -0.304480	 -0.000254
H	 -4.842277	 0.947103	 0.876982
H	 0.837658	 3.820585	 -2.223345
H	 2.600086	 3.670890	 -2.216201
H	 1.606718	 2.635707	 -3.250546

	symmetry c1
}
set optking {
	frozen_dihedral = ("
		9 5 8 12
	")
}

ee = optimize('scf')
oeprop('DIPOLE', 'QUADRUPOLE', 'MULLIKEN_CHARGES')
f=open( 'psi4out.xyz', 'w' )
f.write( "25  " )
f.write( str(ee) + "\n" )
f.write( MOL.save_string_xyz() )
f.close()
--------------------------------------------------------------------------

    Molecular point group: c1
  Charge       = 0
  Multiplicity = 1
  Basis Set: CC-PVTZ
  Basis Set:
  @DF-RHF Final Energy:  -387.27082157424752
    Total Energy =                       -387.2708215742472930
    Molecular point group: c1
  Basis Set: CC-PVTZ
  Basis Set:
  Basis Set: CC-PVTZ
  Basis Set:
  @DF-RHF Final Energy:  -387.27173870536171
    Total Energy =                       -387.2717387053615994
  Basis Set: CC-PVTZ
  Basis Set:
  Basis Set: CC-PVTZ
  Basis Set:
  @DF-RHF Final Energy:  -387.27250861125276
    Total Energy =                       -387.2725086112519648
  Basis Set: CC-PVTZ
  Basis Set:
  Basis Set: CC-PVTZ
  Basis Set:
  @DF-RHF Final Energy:  -387.27240787090278
    Total Energy =                       -387.2724078709024980
  Basis Set: CC-PVTZ
  Basis Set:
  Basis Set: CC-PVTZ
  Basis Set:
  @DF-RHF Final Energy:  -387.27253604086837
    Total Energy =                       -387.2725360408686583
  Basis Set: CC-PVTZ
  Basis Set:
  Basis Set: CC-PVTZ
  Basis Set:
  @DF-RHF Final Energy:  -387.27258088698886
    Total Energy =                       -387.2725808869886350
  Basis Set: CC-PVTZ
  Basis Set:
  Basis Set: CC-PVTZ
  Basis Set:
  @DF-RHF Final Energy:  -387.27258467047233
    Total Energy =                       -387.2725846704724972
  Basis Set: CC-PVTZ
  Basis Set:
  Charge       = 0
  Multiplicity = 1
  Basis Set: CC-PVTZ
  Basis Set:

    Orbital Energies (a.u.)
    -----------------------

    Doubly Occupied:

       1A    -20.538776     2A    -11.320439     3A    -11.229670
       4A    -11.226495     5A    -11.215591     6A    -11.215412
       7A    -11.214864     8A    -11.214314     9A    -11.208794
      10A     -1.398881    11A     -1.096052    12A     -1.057134
      13A     -1.015619    14A     -0.969033    15A     -0.899523
      16A     -0.816880    17A     -0.787882    18A     -0.731541
      19A     -0.660311    20A     -0.653045    21A     -0.637854
      22A     -0.623807    23A     -0.598293    24A     -0.581688
      25A     -0.568564    26A     -0.566051    27A     -0.544293
      28A     -0.529629    29A     -0.517624    30A     -0.495662
      31A     -0.490430    32A     -0.477295    33A     -0.462431
      34A     -0.459882    35A     -0.448389    36A     -0.402826

  @DF-RHF Final Energy:  -387.27258476961669

   => Energetics <=

    Nuclear Repulsion Energy =            445.5175501819738315
    One-Electron Energy =               -1407.8303153774127168
    Two-Electron Energy =                 575.0401804258222000
    DFT Exchange-Correlation Energy =       0.0000000000000000
    Empirical Dispersion Energy =           0.0000000000000000
    PCM Polarization Energy =               0.0000000000000000
    EFP Energy =                            0.0000000000000000
    Total Energy =                       -387.2725847696167421
    Molecular point group: c1
  Basis Set: CC-PVTZ
  Basis Set:

  -Total Gradient:
     Atom            X                  Y                   Z
    ------   -----------------  -----------------  -----------------
       1       -0.000006842830    -0.000002285846     0.000002616965
       2        0.000011088071    -0.000007415074    -0.000005929567
       3        0.000001890873     0.000015358642     0.000011262200
       4       -0.000006010944     0.000007442166     0.000002479299
       5       -0.000991583652     0.001549968036    -0.000670480673
       6       -0.000003067917     0.000002393463    -0.000000795393
       7        0.000004546787    -0.000003176400     0.000006922777
       8       -0.000858614910     0.001355048760    -0.001084140941
       9        0.000978627952    -0.001516830964     0.000718406965
      10       -0.000000563481     0.000003030815     0.000004467911
      11       -0.000009837311    -0.000000045900    -0.000005459861
      12        0.000870353611    -0.001390640856     0.001026946219
      13       -0.000001804722    -0.000004364596    -0.000001465695
      14       -0.000004152164    -0.000005868719     0.000010563505
      15        0.000001550052     0.000004523819    -0.000002873929
      16        0.000002989040    -0.000007243336    -0.000000269145
      17        0.000005478852     0.000001335584    -0.000010734754
      18       -0.000002086452     0.000000038816     0.000000173965
      19        0.000005299806     0.000001451637     0.000002051670
      20       -0.000002042690     0.000003542100    -0.000000652254
      21        0.000004652729    -0.000001290269    -0.000001946532
      22        0.000000327746    -0.000001511692     0.000003711559
      23       -0.000000182783     0.000000636512    -0.000002566564
      24       -0.000000820051    -0.000002903687     0.000000598482
      25        0.000000804398    -0.000001193012    -0.000002886208

  **** Optimization is complete! (in 8 steps) ****
    Final optimized geometry and variables:
    Molecular point group: c1

    Geometry (in Angstrom), charge = 0, multiplicity = 1:

    O            3.125280337144     0.978447588836     0.180325544833
    C            2.273758163826     1.180024381149    -0.622212499577
    C            0.947031408855     0.447121601922    -0.601791573940
    C            2.458370712047     2.194588251703    -1.728315421207
    C            0.816582081819    -0.571481587284     0.522740606563
    H            0.166876782454     1.200547542454    -0.549995509235
    H            0.823366687738    -0.032393453019    -1.570722035509
    C           -0.460605158304    -1.412417370874     0.474871931816
    H            0.890232223041    -0.068965173330     1.480935465230
    H            1.670579441620    -1.236850260218     0.482619636382
    C           -1.769711807824    -0.627684314176     0.519792767263
    H           -0.442712810998    -2.048201098936    -0.407682755225
    H           -0.437095229806    -2.092375843858     1.321938130921
    C           -3.000215797889    -1.525248344885     0.622123245770
    H           -1.864631149415    -0.006049625924    -0.365886542367
    H           -1.751484873912     0.051697416619     1.369479399305
    C           -4.310691928584    -0.746014717338     0.653576468728
    H           -3.011466339542    -2.214698327312    -0.217796530445
    H           -2.923739230981    -2.137246888435     1.516402253961
    H           -4.435098257604    -0.151689724953    -0.245692909329
    H           -5.162263880189    -1.412373758637     0.728902017047
    H           -4.343916186439    -0.070318894375     1.501827237478
    H            1.689698721984     2.957190173228    -1.668403848407
    H            3.431834247702     2.652943625293    -1.646171370249
    H            2.361389259358     1.714591000985    -2.695910422259

  Mulliken Charges: (a.u.)
   Center  Symbol    Alpha    Beta     Spin     Total
       1     O     4.17030  4.17030  0.00000 -0.34061
       2     C     2.86133  2.86133  0.00000  0.27735
       3     C     3.11525  3.11525  0.00000 -0.23049
       4     C     3.15087  3.15087  0.00000 -0.30174
       5     C     3.09298  3.09298  0.00000 -0.18597
       6     H     0.44308  0.44308  0.00000  0.11385
       7     H     0.44489  0.44489  0.00000  0.11021
       8     C     3.10093  3.10093  0.00000 -0.20185
       9     H     0.44533  0.44533  0.00000  0.10935
      10     H     0.44023  0.44023  0.00000  0.11954
      11     C     3.09069  3.09069  0.00000 -0.18139
      12     H     0.45291  0.45291  0.00000  0.09419
      13     H     0.44685  0.44685  0.00000  0.10630
      14     C     3.08424  3.08424  0.00000 -0.16847
      15     H     0.45488  0.45488  0.00000  0.09024
      16     H     0.45318  0.45318  0.00000  0.09364
      17     C     3.14976  3.14976  0.00000 -0.29952
      18     H     0.45456  0.45456  0.00000  0.09087
      19     H     0.45271  0.45271  0.00000  0.09458
      20     H     0.45606  0.45606  0.00000  0.08788
      21     H     0.44787  0.44787  0.00000  0.10427
      22     H     0.45479  0.45479  0.00000  0.09043
      23     H     0.45059  0.45059  0.00000  0.09883
      24     H     0.43520  0.43520  0.00000  0.12960
      25     H     0.45054  0.45054  0.00000  0.09893

   Total alpha = 36.00000, Total beta = 36.00000, Total charge = -0.00000
