  ==> Input File <==

--------------------------------------------------------------------------
set {
	reference rhf
	basis cc-pvtz
}

set_num_threads( 4 )
memory 2 gb

molecule MOL {
0 1

H	 3.284061	 -0.484643	 0.013670
C	 2.228455	 -0.290604	 0.010427
C	 1.756564	 0.946119	 -0.403299
C	 1.348712	 -1.273193	 0.417963
H	 2.446490	 1.704663	 -0.718588
C	 0.403144	 1.199144	 -0.408979
H	 1.716609	 -2.228742	 0.737420
C	 -0.010257	 -1.017587	 0.411707
H	 0.019180	 2.148477	 -0.725198
C	 -0.486398	 0.214248	 0.000000
H	 -0.700571	 -1.777753	 0.727602
C	 -1.946525	 0.470130	 0.000000
O	 -2.779618	 -0.371226	 0.000000
H	 -2.227127	 1.528393	 0.000000

	symmetry c1
}
set optking {
	frozen_dihedral = ("
		8 10 12 14
	")
}

ee = optimize('scf')
oeprop('DIPOLE', 'QUADRUPOLE', 'MULLIKEN_CHARGES')
f=open( 'psi4out.xyz', 'w' )
f.write( "14  " )
f.write( str(ee) + "\n" )
f.write( MOL.save_string_xyz() )
f.close()
--------------------------------------------------------------------------

    Molecular point group: c1
  Charge       = 0
  Multiplicity = 1
  Basis Set: CC-PVTZ
  Basis Set:
  @DF-RHF Final Energy:  -343.54845026814706
    Total Energy =                       -343.5484502681473487
    Molecular point group: c1
  Basis Set: CC-PVTZ
  Basis Set:
  Basis Set: CC-PVTZ
  Basis Set:
  @DF-RHF Final Energy:  -343.54692024941659
    Total Energy =                       -343.5469202494163596
  Basis Set: CC-PVTZ
  Basis Set:
  Basis Set: CC-PVTZ
  Basis Set:
  @DF-RHF Final Energy:  -343.54879385056074
    Total Energy =                       -343.5487938505607417
  Basis Set: CC-PVTZ
  Basis Set:
  Basis Set: CC-PVTZ
  Basis Set:
  @DF-RHF Final Energy:  -343.54889237898919
    Total Energy =                       -343.5488923789888531
  Basis Set: CC-PVTZ
  Basis Set:
  Basis Set: CC-PVTZ
  Basis Set:
  @DF-RHF Final Energy:  -343.54889691594070
    Total Energy =                       -343.5488969159405315
  Basis Set: CC-PVTZ
  Basis Set:
  Charge       = 0
  Multiplicity = 1
  Basis Set: CC-PVTZ
  Basis Set:

    Orbital Energies (a.u.)
    -----------------------

    Doubly Occupied:

       1A    -20.553564     2A    -11.327377     3A    -11.252173
       4A    -11.249556     5A    -11.246857     6A    -11.245620
       7A    -11.243827     8A    -11.242242     9A     -1.409319
      10A     -1.176980    11A     -1.051620    12A     -1.036027
      13A     -0.892552    14A     -0.848217    15A     -0.794789
      16A     -0.725593    17A     -0.682246    18A     -0.656737
      19A     -0.624645    20A     -0.622288    21A     -0.606161
      22A     -0.559616    23A     -0.530357    24A     -0.510197
      25A     -0.508643    26A     -0.425778    27A     -0.355420
      28A     -0.352558

  @DF-RHF Final Energy:  -343.54889819046002

   => Energetics <=

    Nuclear Repulsion Energy =            323.9088596461306224
    One-Electron Energy =               -1107.4535953666133992
    Two-Electron Energy =                 439.9958375300229818
    DFT Exchange-Correlation Energy =       0.0000000000000000
    Empirical Dispersion Energy =           0.0000000000000000
    PCM Polarization Energy =               0.0000000000000000
    EFP Energy =                            0.0000000000000000
    Total Energy =                       -343.5488981904597949
    Molecular point group: c1
  Basis Set: CC-PVTZ
  Basis Set:

  -Total Gradient:
     Atom            X                  Y                   Z
    ------   -----------------  -----------------  -----------------
       1       -0.000000850836     0.000000997668     0.000009373933
       2       -0.000030783137    -0.000085465566     0.000019282831
       3       -0.000068618955     0.000048038292    -0.000028762386
       4        0.000088506311     0.000038489619    -0.000016668589
       5        0.000002365643    -0.000005625672     0.000007442619
       6        0.000082165137     0.000052754463    -0.000016274569
       7       -0.000003434618    -0.000005772667    -0.000003487335
       8        0.000188211463     0.001161804269     0.002790792202
       9        0.000002529978    -0.000020914655     0.000014945911
      10       -0.000363011648    -0.001632116160    -0.002997816253
      11       -0.000010184074    -0.000016404031     0.000016700568
      12        0.000026566273     0.000401599777    -0.003409067863
      13        0.000013562521     0.000014142644    -0.000013943494
      14        0.000072975938     0.000048472018     0.003627482426

  **** Optimization is complete! (in 6 steps) ****
    Final optimized geometry and variables:
    Molecular point group: c1

    Geometry (in Angstrom), charge = 0, multiplicity = 1:

    H            3.292456710447    -0.451810429230     0.016362508944
    C            2.235901838858    -0.263257103283     0.003781472653
    C            1.762194718384     0.965891525609    -0.410196800751
    C            1.354653093775    -1.252957098786     0.410722063077
    H            2.446320987809     1.731798229117    -0.720005796672
    C            0.400876692357     1.207357964065    -0.413373845181
    H            1.730024558308    -2.202098988970     0.741103180627
    C           -0.002284905191    -1.016254751879     0.392639621762
    H            0.026929534331     2.166949734871    -0.719587681496
    C           -0.483921180276     0.214998435119    -0.030347795750
    H           -0.698596532023    -1.771252438897     0.699533862361
    C           -1.940612111716     0.496845059831    -0.017156521150
    O           -2.785330660456    -0.329658231394     0.048800271708
    H           -2.203651072993     1.559695329412    -0.030676745618

  Mulliken Charges: (a.u.)
   Center  Symbol    Alpha    Beta     Spin     Total
       1     H     0.41962  0.41962  0.00000  0.16076
       2     C     3.07104  3.07104  0.00000 -0.14207
       3     C     3.07288  3.07288  0.00000 -0.14575
       4     C     3.07151  3.07151  0.00000 -0.14302
       5     H     0.42057  0.42057  0.00000  0.15885
       6     C     3.08863  3.08863  0.00000 -0.17727
       7     H     0.41965  0.41965  0.00000  0.16070
       8     C     3.08257  3.08257  0.00000 -0.16513
       9     H     0.42315  0.42315  0.00000  0.15370
      10     C     2.97840  2.97840  0.00000  0.04320
      11     H     0.40928  0.40928  0.00000  0.18143
      12     C     2.91266  2.91266  0.00000  0.17469
      13     O     4.17169  4.17169  0.00000 -0.34339
      14     H     0.45835  0.45835  0.00000  0.08331

   Total alpha = 28.00000, Total beta = 28.00000, Total charge = -0.00000
