                              Psi4 1.0.54 Driver

  ==> Input File <==

--------------------------------------------------------------------------
set {
	reference rhf
	basis cc-pvtz
}

set_num_threads( 4 )
memory 2 gb

molecule MOL {
0 1

H	 -1.544020	 -1.218085	 0.464993
O	 -1.432053	 -0.565244	 -0.200812
C	 -0.727158	 0.534527	 0.310686
C	 0.680222	 0.664433	 -0.252229
H	 -1.306802	 1.408001	 0.044211
H	 -0.690821	 0.490158	 1.397609
C	 1.605391	 -0.489360	 0.123098
H	 0.615089	 0.745647	 -1.332226
H	 1.101414	 1.597893	 0.110950
H	 1.247627	 -1.432485	 -0.275204
H	 2.601435	 -0.332816	 -0.273062
H	 1.691776	 -0.589902	 1.200774

	symmetry c1
}
set optking {
	frozen_dihedral = ("
		1 2 3 4
	")
}

ee,wfn = optimize('scf', return_wfn=True)
oeprop( wfn, 'DIPOLE', 'QUADRUPOLE', 'MULLIKEN_CHARGES')
f=open( 'psi4out.xyz', 'w' )
f.write( "12  " )
f.write( str(ee) + "\n" )
f.write( MOL.save_string_xyz() )
f.close()
--------------------------------------------------------------------------

    Molecular point group: c1
  Charge       = 0
  Multiplicity = 1
  Basis Set: CC-PVTZ
  Basis Set:
  @DF-RHF Final Energy:  -193.18952530709515
    Total Energy =                       -193.1895253070951526
    Molecular point group: c1
  Basis Set: CC-PVTZ
  Basis Set:
  Basis Set: CC-PVTZ
  Basis Set:
  @DF-RHF Final Energy:  -193.18662482976410
    Total Energy =                       -193.1866248297640141
  Basis Set: CC-PVTZ
  Basis Set:
  Basis Set: CC-PVTZ
  Basis Set:
  @DF-RHF Final Energy:  -193.18981370991690
    Total Energy =                       -193.1898137099169617
  Basis Set: CC-PVTZ
  Basis Set:
  Basis Set: CC-PVTZ
  Basis Set:
  @DF-RHF Final Energy:  -193.18984036715520
    Total Energy =                       -193.1898403671550568
  Basis Set: CC-PVTZ
  Basis Set:
  Basis Set: CC-PVTZ
  Basis Set:
  @DF-RHF Final Energy:  -193.18984225734548
    Total Energy =                       -193.1898422573454184
  Basis Set: CC-PVTZ
  Basis Set:
  Charge       = 0
  Multiplicity = 1
  Basis Set: CC-PVTZ
  Basis Set:

    Orbital Energies (a.u.)
    -----------------------

    Doubly Occupied:

       1A    -20.545754     2A    -11.266617     3A    -11.213434
       4A    -11.207505     5A     -1.363283     6A     -1.049406
       7A     -0.924068     8A     -0.803541     9A     -0.706961
      10A     -0.637637    11A     -0.595696    12A     -0.587280
      13A     -0.525112    14A     -0.515528    15A     -0.489036
      16A     -0.468503    17A     -0.431727

  @DF-RHF Final Energy:  -193.18984339910074

   => Energetics <=

    Nuclear Repulsion Energy =            133.1713063446005947
    One-Electron Energy =                -526.0601208350952902
    Two-Electron Energy =                 199.6989710913937870
    DFT Exchange-Correlation Energy =       0.0000000000000000
    Empirical Dispersion Energy =           0.0000000000000000
    PCM Polarization Energy =               0.0000000000000000
    EFP Energy =                            0.0000000000000000
    Total Energy =                       -193.1898433991009369
    Molecular point group: c1
  Basis Set: CC-PVTZ
  Basis Set:

  -Total Gradient:
     Atom            X                  Y                   Z
    ------   -----------------  -----------------  -----------------
       1       -0.000450972648     0.000155727523     0.000159434900
       2        0.000524330481    -0.000094207409    -0.000261288346
       3        0.000056470028    -0.000246957127     0.000316940154
       4       -0.000117354674     0.000180356398    -0.000225132570
       5       -0.000004338552     0.000006040618    -0.000002228016
       6       -0.000002194651    -0.000009748111     0.000004808451
       7       -0.000000171606     0.000007961752     0.000010714889
       8       -0.000001138019     0.000005940440    -0.000006649672
       9       -0.000005389073     0.000005536251     0.000002485202
      10       -0.000001920382    -0.000004092880    -0.000005664226
      11       -0.000001966471     0.000002779999     0.000000751789
      12        0.000004645564    -0.000009337452     0.000005827446

  **** Optimization is complete! (in 6 steps) ****
    Final optimized geometry and variables:
    Molecular point group: c1

    Geometry (in Angstrom), charge = 0, multiplicity = 1:

    H           -1.438060822499    -1.365990283812     0.270471040774
    O           -1.364856470900    -0.624650408838    -0.298622207086
    C           -0.754908019554     0.454687473526     0.366124925689
    C            0.640488502349     0.727773987222    -0.169829383872
    H           -1.379216065153     1.327637659961     0.215513331225
    H           -0.713754243637     0.269512898022     1.436298812917
    C            1.625012936745    -0.408474991247     0.082688220265
    H            0.565576348488     0.918393961834    -1.235436025878
    H            1.006521920454     1.642290976617     0.289324965198
    H            1.289322620891    -1.324105217133    -0.388222554280
    H            2.604224711919    -0.171323867777    -0.316156823614
    H            1.740271117476    -0.598485137660     1.145746524268

  Mulliken Charges: (a.u.)
   Center  Symbol    Alpha    Beta     Spin     Total
       1     H     0.39025  0.39025  0.00000  0.21949
       2     O     4.20844  4.20844  0.00000 -0.41689
       3     C     2.97793  2.97793  0.00000  0.04415
       4     C     3.07444  3.07444  0.00000 -0.14887
       5     H     0.45455  0.45455  0.00000  0.09089
       6     H     0.47083  0.47083  0.00000  0.05833
       7     C     3.15778  3.15778  0.00000 -0.31556
       8     H     0.45294  0.45294  0.00000  0.09413
       9     H     0.45683  0.45683  0.00000  0.08634
      10     H     0.45009  0.45009  0.00000  0.09982
      11     H     0.44755  0.44755  0.00000  0.10489
      12     H     0.45836  0.45836  0.00000  0.08328

   Total alpha = 17.00000, Total beta = 17.00000, Total charge =  0.00000

*** Psi4 exiting successfully. Buy a developer a beer!
