  ==> Input File <==

--------------------------------------------------------------------------
set {
	reference rhf
	basis cc-pvtz
}

set_num_threads( 4 )
memory 2 gb

molecule MOL {
0 1

H	 2.090593	 0.067655	 0.368348
C	 1.189514	 -0.484961	 0.209589
C	 1.182031	 -1.865061	 0.208244
C	 0.000000	 0.179985	 0.000046
H	 2.096652	 -2.400808	 0.369360
C	 -0.000001	 -2.552036	 -0.000007
N	 0.000000	 1.644631	 0.000076
C	 -1.189514	 -0.484952	 -0.209525
H	 -0.000000	 -3.625035	 -0.000032
C	 -1.182032	 -1.865052	 -0.208234
O	 1.050559	 2.194174	 -0.000073
O	 -1.050559	 2.194174	 -0.000074
H	 -2.090595	 0.067670	 -0.368253
H	 -2.096652	 -2.400793	 -0.369375

	symmetry c1
}
set optking {
	frozen_dihedral = ("
		2 4 7 11
	")
}

ee = optimize('scf')
oeprop('DIPOLE', 'QUADRUPOLE', 'MULLIKEN_CHARGES')
f=open( 'psi4out.xyz', 'w' )
f.write( "14  " )
f.write( str(ee) + "\n" )
f.write( MOL.save_string_xyz() )
f.close()
--------------------------------------------------------------------------

    Molecular point group: c1
  Charge       = 0
  Multiplicity = 1
  Basis Set: CC-PVTZ
  Basis Set:
  @DF-RHF Final Energy:  -434.32992158166502
    Total Energy =                       -434.3299215816649621
    Molecular point group: c1
  Basis Set: CC-PVTZ
  Basis Set:
  Basis Set: CC-PVTZ
  Basis Set:
  @DF-RHF Final Energy:  -434.32847518006190
    Total Energy =                       -434.3284751800617869
  Basis Set: CC-PVTZ
  Basis Set:
  Basis Set: CC-PVTZ
  Basis Set:
  @DF-RHF Final Energy:  -434.32992487879858
    Total Energy =                       -434.3299248787985789
  Basis Set: CC-PVTZ
  Basis Set:
  Charge       = 0
  Multiplicity = 1
  Basis Set: CC-PVTZ
  Basis Set:

    Orbital Energies (a.u.)
    -----------------------

    Doubly Occupied:

       1A    -20.591838     2A    -20.591781     3A    -15.847736
       4A    -11.302502     5A    -11.267251     6A    -11.267209
       7A    -11.264740     8A    -11.258270     9A    -11.258133
      10A     -1.641232    11A     -1.423594    12A     -1.204607
      13A     -1.095752    14A     -1.055097    15A     -0.959473
      16A     -0.867262    17A     -0.829007    18A     -0.789380
      19A     -0.740755    20A     -0.735314    21A     -0.711717
      22A     -0.659648    23A     -0.651971    24A     -0.626431
      25A     -0.555417    26A     -0.541046    27A     -0.531380
      28A     -0.492379    29A     -0.491618    30A     -0.457586
      31A     -0.377589    32A     -0.369338

  @DF-RHF Final Energy:  -434.32993629443820

   => Energetics <=

    Nuclear Repulsion Energy =            418.2257102264308060
    One-Electron Energy =               -1420.1971886926664865
    Two-Electron Energy =                 567.6415421717972549
    DFT Exchange-Correlation Energy =       0.0000000000000000
    Empirical Dispersion Energy =           0.0000000000000000
    PCM Polarization Energy =               0.0000000000000000
    EFP Energy =                            0.0000000000000000
    Total Energy =                       -434.3299362944384256
    Molecular point group: c1
  Basis Set: CC-PVTZ
  Basis Set:

  -Total Gradient:
     Atom            X                  Y                   Z
    ------   -----------------  -----------------  -----------------
       1        0.000007753694     0.000002441007    -0.000002270783
       2       -0.000155955198    -0.000003192881     0.000772659982
       3        0.000001951858     0.000005899116    -0.000034574870
       4        0.000204481387    -0.000005942546    -0.001462440114
       5       -0.000000892290     0.000001772301     0.000008950588
       6       -0.000011979032    -0.000002684740     0.000048231595
       7       -0.000059762112    -0.000042403354     0.001637942945
       8        0.000010567308    -0.000004889208    -0.000020085662
       9        0.000002730205     0.000001845369    -0.000008335985
      10        0.000009459373    -0.000003887821    -0.000018544593
      11       -0.000030230905     0.000013250704    -0.000917423062
      12        0.000024535316     0.000040229650    -0.000015581769
      13       -0.000002343238    -0.000003730461     0.000011794178
      14       -0.000000316368     0.000001292867    -0.000000322450

  **** Optimization is complete! (in 4 steps) ****
    Final optimized geometry and variables:
    Molecular point group: c1

    Geometry (in Angstrom), charge = 0, multiplicity = 1:

    H            2.091620820787     0.068628077206     0.361621942827
    C            1.190088576272    -0.484351817515     0.206020086477
    C            1.181762248938    -1.864421014942     0.209529672563
    C            0.000767289246     0.179944341666    -0.004743607384
    H            2.095514847013    -2.400241372102     0.375167643613
    C           -0.000076207775    -2.551290645341     0.000189851998
    N           -0.000060737501     1.644046336256     0.002128100647
    C           -1.189881842598    -0.484329310648    -0.208028442788
    H           -0.000264910643    -3.624252656454     0.001250470032
    C           -1.181814216241    -1.864407014146    -0.209754853833
    O            1.050628053099     2.193493562436     0.008336038373
    O           -1.051136869712     2.192709213214    -0.005420510646
    H           -2.091875704225     0.068592549994    -0.360985113404
    H           -2.096147221295    -2.400252327393    -0.372079925032

  Mulliken Charges: (a.u.)
   Center  Symbol    Alpha    Beta     Spin     Total
       1     H     0.39947  0.39947  0.00000  0.20107
       2     C     3.07743  3.07743  0.00000 -0.15487
       3     C     3.07219  3.07219  0.00000 -0.14438
       4     C     2.97884  2.97884  0.00000  0.04232
       5     H     0.41694  0.41694  0.00000  0.16612
       6     C     3.06468  3.06468  0.00000 -0.12937
       7     N     3.25407  3.25407  0.00000  0.49187
       8     C     3.07736  3.07736  0.00000 -0.15471
       9     H     0.41709  0.41709  0.00000  0.16582
      10     C     3.07213  3.07213  0.00000 -0.14426
      11     O     4.17666  4.17666  0.00000 -0.35332
      12     O     4.17671  4.17671  0.00000 -0.35343
      13     H     0.39948  0.39948  0.00000  0.20103
      14     H     0.41694  0.41694  0.00000  0.16611

   Total alpha = 32.00000, Total beta = 32.00000, Total charge = -0.00000
