                              Psi4 1.0.54 Driver

  ==> Input File <==

--------------------------------------------------------------------------
set {
	reference rhf
	basis cc-pvtz
}

set_num_threads( 4 )
memory 2 gb

molecule MOL {
0 1

O	 -2.337050	 -0.405158	 -1.050105
C	 -1.922978	 0.063265	 -0.045005
C	 -2.779312	 0.619796	 1.057455
O	 -0.637375	 0.157174	 0.243149
H	 -2.533028	 1.661520	 1.218312
H	 -3.819213	 0.521253	 0.791877
H	 -2.577301	 0.088378	 1.978518
C	 0.162530	 -1.009518	 0.097799
C	 1.587210	 -0.664190	 0.477086
H	 0.096803	 -1.356267	 -0.924704
H	 -0.233803	 -1.785900	 0.736810
C	 2.256770	 0.342732	 -0.454344
H	 2.154716	 -1.590834	 0.479041
H	 1.598751	 -0.289614	 1.496104
C	 3.698146	 0.643205	 -0.057145
H	 2.235038	 -0.042575	 -1.470299
H	 1.683491	 1.262594	 -0.461300
H	 4.150202	 1.356548	 -0.736242
H	 4.305463	 -0.255904	 -0.069842
H	 3.749130	 1.061068	 0.942759

	symmetry c1
}
set optking {
	frozen_dihedral = ("
		1 2 4 8
	")
}

ee,wfn = optimize('scf', return_wfn=True)
oeprop( wfn, 'DIPOLE', 'QUADRUPOLE', 'MULLIKEN_CHARGES')
f=open( 'psi4out.xyz', 'w' )
f.write( "20  " )
f.write( str(ee) + "\n" )
f.write( MOL.save_string_xyz() )
f.close()
--------------------------------------------------------------------------

    Molecular point group: c1
  Charge       = 0
  Multiplicity = 1
  Basis Set: CC-PVTZ
  Basis Set:
  @DF-RHF Final Energy:  -384.07642993394029
    Total Energy =                       -384.0764299339400623
    Molecular point group: c1
  Basis Set: CC-PVTZ
  Basis Set:
  Basis Set: CC-PVTZ
  Basis Set:
  @DF-RHF Final Energy:  -383.95954396459456
    Total Energy =                       -383.9595439645944452
  Basis Set: CC-PVTZ
  Basis Set:
  Basis Set: CC-PVTZ
  Basis Set:
  @DF-RHF Final Energy:  -384.05114789788053
    Total Energy =                       -384.0511478978805258
  Basis Set: CC-PVTZ
  Basis Set:
  Basis Set: CC-PVTZ
  Basis Set:
  @DF-RHF Final Energy:  -384.07475109355636
    Total Energy =                       -384.0747510935567561
  Basis Set: CC-PVTZ
  Basis Set:
  @DF-RHF Final Energy:  -384.04696661385128
    Total Energy =                       -384.0469666138513958
  @DF-RHF Final Energy:  -384.07306521932594
    Total Energy =                       -384.0730652193261676
  @DF-RHF Final Energy:  -384.07699540154408
    Total Energy =                       -384.0769954015438543
  @DF-RHF Final Energy:  -384.07632525376692
    Total Energy =                       -384.0763252537673225
  Basis Set: CC-PVTZ
  Basis Set:
  @DF-RHF Final Energy:  -384.07727457389592
    Total Energy =                       -384.0772745738955791
  Basis Set: CC-PVTZ
  Basis Set:
  Basis Set: CC-PVTZ
  Basis Set:
  @DF-RHF Final Energy:  -384.07728579146925
    Total Energy =                       -384.0772857914691940
  Basis Set: CC-PVTZ
  Basis Set:
  Basis Set: CC-PVTZ
  Basis Set:
  @DF-RHF Final Energy:  -384.07728817664002
    Total Energy =                       -384.0772881766399678
  Basis Set: CC-PVTZ
  Basis Set:
  Charge       = 0
  Multiplicity = 1
  Basis Set: CC-PVTZ
  Basis Set:

    Orbital Energies (a.u.)
    -----------------------

    Doubly Occupied:

       1A    -20.583212     2A    -20.538905     3A    -11.368671
       4A    -11.284434     5A    -11.233056     6A    -11.223960
       7A    -11.216939     8A    -11.210329     9A     -1.464033
      10A     -1.366842    11A     -1.085504    12A     -1.026264
      13A     -0.984199    14A     -0.880733    15A     -0.809745
      16A     -0.776309    17A     -0.696611    18A     -0.683188
      19A     -0.662686    20A     -0.631488    21A     -0.609009
      22A     -0.593303    23A     -0.576242    24A     -0.554641
      25A     -0.542395    26A     -0.535876    27A     -0.505138
      28A     -0.484724    29A     -0.477816    30A     -0.473933
      31A     -0.450142    32A     -0.438181

  @DF-RHF Final Energy:  -384.07728912470571

   => Energetics <=

    Nuclear Repulsion Energy =            384.8166440918554940
    One-Electron Energy =               -1285.8508496212079990
    Two-Electron Energy =                 516.9569164046471315
    DFT Exchange-Correlation Energy =       0.0000000000000000
    Empirical Dispersion Energy =           0.0000000000000000
    PCM Polarization Energy =               0.0000000000000000
    EFP Energy =                            0.0000000000000000
    Total Energy =                       -384.0772891247053167
    Molecular point group: c1
  Basis Set: CC-PVTZ
  Basis Set:

  -Total Gradient:
     Atom            X                  Y                   Z
    ------   -----------------  -----------------  -----------------
       1        0.001742798548     0.007827029407    -0.004389511767
       2       -0.003462755010    -0.012231743146     0.009811385233
       3       -0.000032426931    -0.000006618224     0.000003595870
       4        0.003166835856     0.005500304356    -0.012355228087
       5        0.000043608390     0.000061817354    -0.000000425722
       6       -0.000020490810     0.000010479409    -0.000007520994
       7        0.000023115693    -0.000000605416     0.000068808548
       8       -0.001494291610    -0.001145050570     0.006849923632
       9       -0.000020632185    -0.000049594145    -0.000001030515
      10        0.000014358563     0.000012008057    -0.000030175322
      11        0.000003857863    -0.000014444482     0.000046785930
      12        0.000037805527     0.000042153947    -0.000003989100
      13        0.000009133011    -0.000013582558     0.000009359431
      14        0.000004589352     0.000018688450     0.000014356832
      15       -0.000022327641    -0.000014145571    -0.000010719078
      16       -0.000006310433    -0.000012117050    -0.000009793069
      17       -0.000006682313     0.000013960552     0.000007752774
      18        0.000016078140     0.000006543608    -0.000021799746
      19        0.000009215757    -0.000018024730     0.000001775736
      20       -0.000005479777     0.000012940750     0.000016449416

  **** Optimization is complete! (in 12 steps) ****
    Final optimized geometry and variables:
    Molecular point group: c1

    Geometry (in Angstrom), charge = 0, multiplicity = 1:

    O           -2.383915164251     0.001458386375    -0.935176799352
    C           -1.872575459214     0.432242197026     0.037019716379
    C           -2.567652671237     1.280988957978     1.062266672124
    O           -0.568793018633     0.299106834970     0.296532288888
    H           -2.031732601091     2.214234106878     1.178331219921
    H           -3.585876964809     1.466728190766     0.760932755260
    H           -2.548775713652     0.774528209018     2.020041246663
    C           -0.000432400154    -1.000712738047     0.192079790015
    C            1.493076413725    -0.899212012959     0.417870787490
    H           -0.223187180539    -1.412464962339    -0.782488212621
    H           -0.455762547601    -1.634160393158     0.945061292911
    C            2.231114147430    -0.113819917863    -0.662709436780
    H            1.884039985562    -1.912100726701     0.464893736878
    H            1.671408589007    -0.449359753607     1.389729352186
    C            3.733516253143    -0.040824729196    -0.412446697177
    H            2.046808587597    -0.576749287403    -1.628139885522
    H            1.822850845823     0.888312221363    -0.719289750137
    H            4.232769888000     0.518202991078    -1.195108841618
    H            4.176053354410    -1.031102755543    -0.379874659740
    H            3.949572116476     0.447999965413     0.531771740951

  Mulliken Charges: (a.u.)
   Center  Symbol    Alpha    Beta     Spin     Total
       1     O     4.18344  4.18344  0.00000 -0.36689
       2     C     2.80615  2.80615  0.00000  0.38771
       3     C     3.13796  3.13796  0.00000 -0.27593
       4     O     4.16732  4.16732  0.00000 -0.33464
       5     H     0.44414  0.44414  0.00000  0.11172
       6     H     0.43813  0.43813  0.00000  0.12374
       7     H     0.44983  0.44983  0.00000  0.10033
       8     C     2.98884  2.98884  0.00000  0.02232
       9     C     3.08699  3.08699  0.00000 -0.17397
      10     H     0.44462  0.44462  0.00000  0.11076
      11     H     0.45525  0.45525  0.00000  0.08950
      12     C     3.08521  3.08521  0.00000 -0.17041
      13     H     0.45287  0.45287  0.00000  0.09426
      14     H     0.45223  0.45223  0.00000  0.09555
      15     C     3.15016  3.15016  0.00000 -0.30031
      16     H     0.45348  0.45348  0.00000  0.09303
      17     H     0.44567  0.44567  0.00000  0.10866
      18     H     0.44694  0.44694  0.00000  0.10613
      19     H     0.45599  0.45599  0.00000  0.08801
      20     H     0.45479  0.45479  0.00000  0.09042

   Total alpha = 32.00000, Total beta = 32.00000, Total charge = -0.00000

*** Psi4 exiting successfully. Buy a developer a beer!
