  ==> Input File <==

--------------------------------------------------------------------------
set {
	reference rhf
	basis 6-31G*
}

set_num_threads( 4 )
memory 2 gb

molecule MOL {
0 1

H	 2.866480	 -0.465706	 0.876907
C	 2.405773	 -0.024801	 0.000000
N	 0.988830	 -0.304158	 0.000000
H	 2.866480	 -0.465706	 -0.876907
H	 2.629928	 1.045948	 0.000000
C	 0.190393	 0.885042	 -0.232960
C	 0.558323	 -0.981162	 1.209255
H	 0.343468	 1.632900	 0.551753
H	 0.486547	 1.331893	 -1.176815
C	 -1.282066	 0.512331	 -0.287209
H	 1.123893	 -1.900829	 1.321455
H	 0.738210	 -0.369293	 2.099062
C	 -0.923892	 -1.304383	 1.116760
H	 -1.898498	 1.397741	 -0.371340
H	 -1.466134	 -0.122468	 -1.152148
O	 -1.675238	 -0.146267	 0.883951
H	 -1.281976	 -1.729356	 2.045303
H	 -1.091108	 -2.024656	 0.317876

	symmetry c1
}
set optking {
	frozen_dihedral = ("
		6 3 2 5
	")
}

ee = optimize('scf')
oeprop('DIPOLE', 'QUADRUPOLE', 'MULLIKEN_CHARGES')
f=open( 'psi4out.xyz', 'w' )
f.write( "18  " )
f.write( str(ee) + "\n" )
f.write( MOL.save_string_xyz() )
f.close()
--------------------------------------------------------------------------

    Molecular point group: c1
  Charge       = 0
  Multiplicity = 1
  Basis Set: 6-31G*
  Basis Set:
  @DF-RHF Final Energy:  -325.02188005058986
    Total Energy =                       -325.0218800505896297
    Molecular point group: c1
  Basis Set: 6-31G*
  Basis Set:
  Basis Set: 6-31G*
  Basis Set:
  @DF-RHF Final Energy:  -325.02233961631038
    Total Energy =                       -325.0223396163107168
  Basis Set: 6-31G*
  Basis Set:
  Basis Set: 6-31G*
  Basis Set:
  @DF-RHF Final Energy:  -325.02245885515401
    Total Energy =                       -325.0224588551539568
  Basis Set: 6-31G*
  Basis Set:
  Basis Set: 6-31G*
  Basis Set:
  @DF-RHF Final Energy:  -325.02246151599263
    Total Energy =                       -325.0224615159926316
  Basis Set: 6-31G*
  Basis Set:
  Charge       = 0
  Multiplicity = 1
  Basis Set: 6-31G*
  Basis Set:

    Orbital Energies (a.u.)
    -----------------------

    Doubly Occupied:

       1A    -20.553191     2A    -15.546103     3A    -11.265222
       4A    -11.265188     5A    -11.243835     6A    -11.243784
       7A    -11.240764     8A     -1.382563     9A     -1.226944
      10A     -1.037744    11A     -0.980008    12A     -0.881913
      13A     -0.869875    14A     -0.773932    15A     -0.682586
      16A     -0.643362    17A     -0.642608    18A     -0.630602
      19A     -0.625698    20A     -0.569766    21A     -0.558529
      22A     -0.546439    23A     -0.527239    24A     -0.500055
      25A     -0.483347    26A     -0.451450    27A     -0.406758
      28A     -0.347236

  @DF-RHF Final Energy:  -325.02246186904262

   => Energetics <=

    Nuclear Repulsion Energy =            340.9192320566542662
    One-Electron Energy =               -1117.6299051795997457
    Two-Electron Energy =                 451.6882112539029777
    DFT Exchange-Correlation Energy =       0.0000000000000000
    Empirical Dispersion Energy =           0.0000000000000000
    PCM Polarization Energy =               0.0000000000000000
    EFP Energy =                            0.0000000000000000
    Total Energy =                       -325.0224618690425586
    Molecular point group: c1
  Basis Set: 6-31G*
  Basis Set:

  -Total Gradient:
     Atom            X                  Y                   Z
    ------   -----------------  -----------------  -----------------
       1       -0.000011252968    -0.000008737834    -0.000005951355
       2        0.000087467874     0.000166510463     0.002434969262
       3        0.000017243007    -0.000356754401    -0.002073260923
       4       -0.000018646886    -0.000001894995     0.000006928482
       5       -0.000041660747    -0.000036166954    -0.001541629301
       6       -0.000021967514     0.000253617399     0.001158421065
       7       -0.000003983285     0.000000879964     0.000018001404
       8        0.000009172936    -0.000006072618    -0.000000682718
       9       -0.000002905860    -0.000006990162     0.000002223438
      10       -0.000003626010    -0.000010986840    -0.000011936330
      11       -0.000005648742     0.000004764969    -0.000004501975
      12       -0.000000391179    -0.000002867908    -0.000005339079
      13       -0.000012253082    -0.000005951043     0.000011149827
      14       -0.000005681582    -0.000000789418     0.000004637589
      15        0.000003590909     0.000004004784    -0.000004714042
      16        0.000011992552     0.000006563725     0.000006138474
      17       -0.000012282859    -0.000000319466     0.000002531512
      18        0.000010833438     0.000001190334     0.000003014672

  **** Optimization is complete! (in 5 steps) ****
    Final optimized geometry and variables:
    Molecular point group: c1

    Geometry (in Angstrom), charge = 0, multiplicity = 1:

    H            2.883744597224    -0.255250304068     0.464979652168
    C            2.386992918034     0.154348631777    -0.407971504931
    N            0.953929041328    -0.100610333554    -0.368816484375
    H            2.835513817731    -0.296587330937    -1.288331685697
    H            2.605024933912     1.218680937703    -0.438980935629
    C            0.150305224422     1.082980001875    -0.610549701961
    C            0.513369642049    -0.786730966658     0.832053565887
    H            0.289340387641     1.833659235944     0.173811110697
    H            0.450828390852     1.530513983882    -1.552619729654
    C           -1.318881680059     0.701431203663    -0.682612792761
    H            1.077747708245    -1.706808406201     0.943038290288
    H            0.678441994791    -0.183478009019     1.730412426746
    C           -0.965608253902    -1.117658562695     0.719078666264
    H           -1.940038522432     1.583231028260    -0.771684679393
    H           -1.488320110034     0.067689854439    -1.551240256501
    O           -1.721335416283     0.036636930481     0.481798563884
    H           -1.333169457962    -1.550034815797     1.640655503306
    H           -1.117244180233    -1.834397001421    -0.086021771245

  Mulliken Charges: (a.u.)
   Center  Symbol    Alpha    Beta     Spin     Total
       1     H     0.42047  0.42047  0.00000  0.15907
       2     C     3.13990  3.13990  0.00000 -0.27980
       3     N     3.79230  3.79230  0.00000 -0.58460
       4     H     0.41513  0.41513  0.00000  0.16974
       5     H     0.42298  0.42298  0.00000  0.15404
       6     C     3.06831  3.06831  0.00000 -0.13663
       7     C     3.06813  3.06813  0.00000 -0.13625
       8     H     0.42844  0.42844  0.00000  0.14311
       9     H     0.41642  0.41642  0.00000  0.16717
      10     C     2.99742  2.99742  0.00000  0.00515
      11     H     0.41649  0.41649  0.00000  0.16701
      12     H     0.42864  0.42864  0.00000  0.14271
      13     C     2.99752  2.99752  0.00000  0.00495
      14     H     0.41366  0.41366  0.00000  0.17269
      15     H     0.42416  0.42416  0.00000  0.15168
      16     O     4.31218  4.31218  0.00000 -0.62435
      17     H     0.41367  0.41367  0.00000  0.17267
      18     H     0.42418  0.42418  0.00000  0.15164

   Total alpha = 28.00000, Total beta = 28.00000, Total charge = -0.00000
