  ==> Input File <==

--------------------------------------------------------------------------
set {
	reference rhf
	basis 6-31G*
}

set_num_threads( 1 )
memory 2 gb

molecule MOL {
0 1

O	 3.746631	 -0.095608	 -0.734588
C	 2.843464	 0.164689	 -0.000222
C	 1.546494	 -0.624492	 -0.000609
C	 2.934747	 1.309506	 0.987814
C	 0.291004	 0.242674	 0.000989
H	 1.557904	 -1.283758	 -0.867573
H	 1.558622	 -1.285963	 0.864672
C	 -0.994322	 -0.586602	 0.000262
H	 0.309117	 0.896430	 -0.865270
H	 0.309661	 0.894078	 0.869017
C	 -2.259874	 0.272531	 0.000494
H	 -1.004862	 -1.240012	 -0.870939
H	 -1.005220	 -1.241071	 0.870675
C	 -3.549786	 -0.549746	 -0.000374
H	 -2.250389	 0.926680	 -0.869574
H	 -2.250838	 0.925513	 0.871430
C	 -4.809590	 0.315458	 -0.000369
H	 -3.560515	 -1.202009	 -0.871156
H	 -3.561123	 -1.202955	 0.869711
H	 -4.844746	 0.956611	 -0.876632
H	 -5.706986	 -0.295590	 -0.001609
H	 -4.845960	 0.954827	 0.877144
H	 2.805164	 0.945383	 2.002822
H	 3.897521	 1.793063	 0.897956
H	 2.146760	 2.033578	 0.802255

	symmetry c1
}
set optking {
	frozen_dihedral = ("
		9 5 8 12,
		15 11 8 12,
		15 11 14 18,
		9 5 3 6
	")
}

ee = energy('scf')
oeprop('DIPOLE', 'QUADRUPOLE', 'MULLIKEN_CHARGES')
f=open( 'psi4out.xyz', 'w' )
f.write( "25  " )
f.write( str(ee) + "\n" )
f.write( MOL.save_string_xyz() )
f.close()
--------------------------------------------------------------------------

    Molecular point group: c1

    Geometry (in Angstrom), charge = 0, multiplicity = 1:

       Center              X                  Y                   Z               Mass
    ------------   -----------------  -----------------  -----------------  -----------------
           O          3.782705683947    -0.154879934988    -0.764544671469    15.994914619560
           C          2.879538683947     0.105417065012    -0.030178671469    12.000000000000
           C          1.582568683947    -0.683763934988    -0.030565671469    12.000000000000
           C          2.970821683947     1.250234065012     0.957857328531    12.000000000000
           C          0.327078683947     0.183402065012    -0.028967671469    12.000000000000
           H          1.593978683947    -1.343029934988    -0.897529671469     1.007825032070
           H          1.594696683947    -1.345234934988     0.834715328531     1.007825032070
           C         -0.958247316053    -0.645873934988    -0.029694671469    12.000000000000
           H          0.345191683947     0.837158065012    -0.895226671469     1.007825032070
           H          0.345735683947     0.834806065012     0.839060328531     1.007825032070
           C         -2.223799316053     0.213259065012    -0.029462671469    12.000000000000
           H         -0.968787316053    -1.299283934988    -0.900895671469     1.007825032070
           H         -0.969145316053    -1.300342934988     0.840718328531     1.007825032070
           C         -3.513711316053    -0.609017934988    -0.030330671469    12.000000000000
           H         -2.214314316053     0.867408065012    -0.899530671469     1.007825032070
           H         -2.214763316053     0.866241065012     0.841473328531     1.007825032070
           C         -4.773515316053     0.256186065012    -0.030325671469    12.000000000000
           H         -3.524440316053    -1.261280934988    -0.901112671469     1.007825032070
           H         -3.525048316053    -1.262226934988     0.839754328531     1.007825032070
           H         -4.808671316053     0.897339065012    -0.906588671469     1.007825032070
           H         -5.670911316053    -0.354861934988    -0.031565671469     1.007825032070
           H         -4.809885316053     0.895555065012     0.847187328531     1.007825032070
           H          2.841238683947     0.886111065012     1.972865328531     1.007825032070
           H          3.933595683947     1.733791065012     0.867999328531     1.007825032070
           H          2.182834683947     1.974306065012     0.772298328531     1.007825032070

  Charge       = 0
  Multiplicity = 1
  Basis Set: 6-31G*
  Basis Set:

    Orbital Energies (a.u.)
    -----------------------

    Doubly Occupied:

       1A    -20.548391     2A    -11.324757     3A    -11.231767
       4A    -11.229815     5A    -11.226438     6A    -11.224872
       7A    -11.220761     8A    -11.220131     9A    -11.212666
      10A     -1.393273    11A     -1.103292    12A     -1.063180
      13A     -1.011001    14A     -0.970401    15A     -0.897656
      16A     -0.822999    17A     -0.798006    18A     -0.732337
      19A     -0.668144    20A     -0.649424    21A     -0.637317
      22A     -0.618926    23A     -0.603157    24A     -0.589408
      25A     -0.564523    26A     -0.559491    27A     -0.546015
      28A     -0.535156    29A     -0.514172    30A     -0.501036
      31A     -0.486942    32A     -0.478803    33A     -0.470137
      34A     -0.468981    35A     -0.458460    36A     -0.395907

  @DF-RHF Final Energy:  -387.13252732491384

   => Energetics <=

    Nuclear Repulsion Energy =            439.8699301665616872
    One-Electron Energy =               -1396.0493360137909349
    Two-Electron Energy =                 569.0468785223156374
    DFT Exchange-Correlation Energy =       0.0000000000000000
    Empirical Dispersion Energy =           0.0000000000000000
    PCM Polarization Energy =               0.0000000000000000
    EFP Energy =                            0.0000000000000000
    Total Energy =                       -387.1325273249135535

  Mulliken Charges: (a.u.)
   Center  Symbol    Alpha    Beta     Spin     Total
       1     O     4.26165  4.26165  0.00000 -0.52330
       2     C     2.72942  2.72942  0.00000  0.54115
       3     C     3.20718  3.20718  0.00000 -0.41435
       4     C     3.29379  3.29379  0.00000 -0.58757
       5     C     3.16603  3.16603  0.00000 -0.33207
       6     H     0.40000  0.40000  0.00000  0.20000
       7     H     0.40926  0.40926  0.00000  0.18147
       8     C     3.15202  3.15202  0.00000 -0.30404
       9     H     0.41478  0.41478  0.00000  0.17044
      10     H     0.41825  0.41825  0.00000  0.16351
      11     C     3.15139  3.15139  0.00000 -0.30278
      12     H     0.41940  0.41940  0.00000  0.16121
      13     H     0.42188  0.42188  0.00000  0.15623
      14     C     3.15205  3.15205  0.00000 -0.30409
      15     H     0.42253  0.42253  0.00000  0.15494
      16     H     0.42376  0.42376  0.00000  0.15247
      17     C     3.23958  3.23958  0.00000 -0.47915
      18     H     0.42193  0.42193  0.00000  0.15614
      19     H     0.42266  0.42266  0.00000  0.15468
      20     H     0.42116  0.42116  0.00000  0.15768
      21     H     0.41833  0.41833  0.00000  0.16334
      22     H     0.42164  0.42164  0.00000  0.15673
      23     H     0.40925  0.40925  0.00000  0.18151
      24     H     0.39631  0.39631  0.00000  0.20739
      25     H     0.40577  0.40577  0.00000  0.18847

   Total alpha = 36.00000, Total beta = 36.00000, Total charge = -0.00000
