                              Psi4 1.0.54 Driver

  ==> Input File <==

--------------------------------------------------------------------------
set {
	reference rhf
	basis cc-pvtz
}

set_num_threads( 4 )
memory 2 gb

molecule MOL {
0 1

H	 1.805800	 -1.306525	 0.305385
C	 1.948180	 -0.217873	 0.320185
C	 0.692262	 0.592428	 0.156232
O	 3.031994	 0.234949	 0.454099
C	 -0.554654	 -0.292621	 0.086567
H	 0.791858	 1.203694	 -0.731051
H	 0.617379	 1.254358	 1.016534
C	 -1.846385	 0.513195	 -0.016346
H	 -0.473986	 -0.956115	 -0.769708
H	 -0.597929	 -0.929215	 0.966651
C	 -3.089953	 -0.365049	 -0.098564
H	 -1.798267	 1.154820	 -0.891143
H	 -1.925398	 1.173265	 0.842889
H	 -3.055079	 -1.012299	 -0.968245
H	 -3.988403	 0.236438	 -0.170014
H	 -3.183055	 -0.995885	 0.779079

	symmetry c1
}
set optking {
	frozen_dihedral = ("
		4 2 3 6
	")
}

ee,wfn = optimize('scf', return_wfn=True)
oeprop( wfn, 'DIPOLE', 'QUADRUPOLE', 'MULLIKEN_CHARGES')
f=open( 'psi4out.xyz', 'w' )
f.write( "16  " )
f.write( str(ee) + "\n" )
f.write( MOL.save_string_xyz() )
f.close()
--------------------------------------------------------------------------

    Molecular point group: c1
  Charge       = 0
  Multiplicity = 1
  Basis Set: CC-PVTZ
  Basis Set:
  @DF-RHF Final Energy:  -270.11736464291153
    Total Energy =                       -270.1173646429115820
    Molecular point group: c1
  Basis Set: CC-PVTZ
  Basis Set:
  Basis Set: CC-PVTZ
  Basis Set:
  @DF-RHF Final Energy:  -270.11771646446505
    Total Energy =                       -270.1177164644648769
  Basis Set: CC-PVTZ
  Basis Set:
  Basis Set: CC-PVTZ
  Basis Set:
  @DF-RHF Final Energy:  -270.11695018392777
    Total Energy =                       -270.1169501839278837
  Basis Set: CC-PVTZ
  Basis Set:
  Basis Set: CC-PVTZ
  Basis Set:
  @DF-RHF Final Energy:  -270.11779435075448
    Total Energy =                       -270.1177943507546502
  Basis Set: CC-PVTZ
  Basis Set:
  Basis Set: CC-PVTZ
  Basis Set:
  @DF-RHF Final Energy:  -270.11782048065925
    Total Energy =                       -270.1178204806592476
  Basis Set: CC-PVTZ
  Basis Set:
  Basis Set: CC-PVTZ
  Basis Set:
  @DF-RHF Final Energy:  -270.11781887744132
    Total Energy =                       -270.1178188774412661
  Basis Set: CC-PVTZ
  Basis Set:
  Basis Set: CC-PVTZ
  Basis Set:
  @DF-RHF Final Energy:  -270.11782191506273
    Total Energy =                       -270.1178219150625637
  Basis Set: CC-PVTZ
  Basis Set:
  Charge       = 0
  Multiplicity = 1
  Basis Set: CC-PVTZ
  Basis Set:

    Orbital Energies (a.u.)
    -----------------------

    Doubly Occupied:

       1A    -20.551337     2A    -11.322648     3A    -11.234312
       4A    -11.232170     5A    -11.227371     6A    -11.216879
       7A     -1.407238     8A     -1.097879     9A     -1.019475
      10A     -0.905330    11A     -0.812546    12A     -0.797661
      13A     -0.665008    14A     -0.662774    15A     -0.634864
      16A     -0.603158    17A     -0.591765    18A     -0.542344
      19A     -0.540353    20A     -0.496658    21A     -0.492451
      22A     -0.486474    23A     -0.478331    24A     -0.411977

  @DF-RHF Final Energy:  -270.11782192422550

   => Energetics <=

    Nuclear Repulsion Energy =            228.4987196454227956
    One-Electron Energy =                -818.3710759323275852
    Two-Electron Energy =                 319.7545343626793510
    DFT Exchange-Correlation Energy =       0.0000000000000000
    Empirical Dispersion Energy =           0.0000000000000000
    PCM Polarization Energy =               0.0000000000000000
    EFP Energy =                            0.0000000000000000
    Total Energy =                       -270.1178219242253817
    Molecular point group: c1
  Basis Set: CC-PVTZ
  Basis Set:

  -Total Gradient:
     Atom            X                  Y                   Z
    ------   -----------------  -----------------  -----------------
       1       -0.000001404031    -0.000004252455    -0.000000775474
       2        0.000002666741     0.000023197791     0.000317903863
       3       -0.000088600684    -0.000166104305    -0.000225541783
       4        0.000012698536     0.000004051489    -0.000204725104
       5       -0.000001031262     0.000002454761     0.000000847968
       6        0.000073963188     0.000143807373     0.000110367597
       7       -0.000000268765    -0.000001212132    -0.000003199928
       8       -0.000000850125     0.000000340759     0.000009417152
       9       -0.000000840397    -0.000002354890     0.000000686992
      10        0.000000277458     0.000001464413     0.000001036825
      11        0.000001418174    -0.000001514311    -0.000007741949
      12        0.000000471234     0.000000267552     0.000001681950
      13        0.000000173319    -0.000000402008     0.000001850533
      14       -0.000001348958    -0.000002904848    -0.000000111338
      15        0.000001905027     0.000000378762    -0.000002042246
      16        0.000000770539     0.000002782049     0.000000344942

  **** Optimization is complete! (in 8 steps) ****
    Final optimized geometry and variables:
    Molecular point group: c1

    Geometry (in Angstrom), charge = 0, multiplicity = 1:

    H            1.882981835085    -1.342515115423     0.077368122676
    C            1.951155944397    -0.248157473503     0.128245880928
    C            0.645429476315     0.506788898457     0.031533814775
    O            3.004977133900     0.273181959303     0.247297185354
    C           -0.582635074207    -0.392604011579    -0.044039438968
    H            0.712698043038     1.147204031549    -0.842542085950
    H            0.593389393044     1.169463327489     0.889075696458
    C           -1.889410983001     0.388073983104    -0.143789288021
    H           -0.493779970200    -1.054298495725    -0.902282387365
    H           -0.614649742562    -1.035017741905     0.832698161259
    C           -3.117723827798    -0.511868483401    -0.220099105432
    H           -1.856459702217     1.029882861921    -1.019634484018
    H           -1.977827435661     1.048500328859     0.714132254725
    H           -3.074311904952    -1.161046344260    -1.088142283617
    H           -4.026994529089     0.073231005114    -0.290302708363
    H           -3.196879124610    -1.141811250731     0.659501275568

  Mulliken Charges: (a.u.)
   Center  Symbol    Alpha    Beta     Spin     Total
       1     H     0.46137  0.46137  0.00000  0.07726
       2     C     2.91569  2.91569  0.00000  0.16861
       3     C     3.08168  3.08168  0.00000 -0.16336
       4     O     4.16493  4.16493  0.00000 -0.32987
       5     C     3.10338  3.10338  0.00000 -0.20676
       6     H     0.43953  0.43953  0.00000  0.12093
       7     H     0.43899  0.43899  0.00000  0.12203
       8     C     3.08447  3.08447  0.00000 -0.16894
       9     H     0.45114  0.45114  0.00000  0.09772
      10     H     0.45058  0.45058  0.00000  0.09885
      11     C     3.14911  3.14911  0.00000 -0.29823
      12     H     0.45224  0.45224  0.00000  0.09551
      13     H     0.45202  0.45202  0.00000  0.09595
      14     H     0.45425  0.45425  0.00000  0.09150
      15     H     0.44645  0.44645  0.00000  0.10710
      16     H     0.45416  0.45416  0.00000  0.09167

   Total alpha = 24.00000, Total beta = 24.00000, Total charge =  0.00000

*** Psi4 exiting successfully. Buy a developer a beer!
