                              Psi4 1.0.54 Driver

  ==> Input File <==

--------------------------------------------------------------------------
set {
	reference rhf
	basis cc-pvtz
}

set_num_threads( 4 )
memory 2 gb

molecule MOL {
0 1

H	 -4.247784	 0.327780	 0.456229
O	 -3.531862	 -0.227944	 0.209608
C	 -2.311553	 0.420869	 0.451073
C	 -1.183940	 -0.504920	 0.041772
H	 -2.254421	 1.347651	 -0.116011
H	 -2.217733	 0.675459	 1.504739
C	 0.196029	 0.106276	 0.266738
H	 -1.311910	 -0.760309	 -1.005424
H	 -1.278191	 -1.429887	 0.601657
C	 1.330220	 -0.826136	 -0.155230
H	 0.264354	 1.042053	 -0.279492
H	 0.314599	 0.356302	 1.318884
C	 2.719700	 -0.407669	 0.328325
H	 1.339388	 -0.911200	 -1.239363
H	 1.119001	 -1.821953	 0.224128
C	 3.241564	 0.893452	 -0.276737
H	 3.418299	 -1.204729	 0.093035
H	 2.711776	 -0.323368	 1.411960
H	 3.254204	 0.841071	 -1.360784
H	 2.634460	 1.745075	 0.005842
H	 4.254264	 1.092401	 0.054971

	symmetry c1
}
set optking {
	frozen_dihedral = ("
		4 7 10 14
	")
}

ee,wfn = optimize('scf', return_wfn=True)
oeprop( wfn, 'DIPOLE', 'QUADRUPOLE', 'MULLIKEN_CHARGES')
f=open( 'psi4out.xyz', 'w' )
f.write( "21  " )
f.write( str(ee) + "\n" )
f.write( MOL.save_string_xyz() )
f.close()
--------------------------------------------------------------------------

    Molecular point group: c1
  Charge       = 0
  Multiplicity = 1
  Basis Set: CC-PVTZ
  Basis Set:
  @DF-RHF Final Energy:  -310.33272587431821
    Total Energy =                       -310.3327258743177026
    Molecular point group: c1
  Basis Set: CC-PVTZ
  Basis Set:
  Basis Set: CC-PVTZ
  Basis Set:
  @DF-RHF Final Energy:  -310.33264268772632
    Total Energy =                       -310.3326426877263202
  Basis Set: CC-PVTZ
  Basis Set:
  Basis Set: CC-PVTZ
  Basis Set:
  @DF-RHF Final Energy:  -310.33278490850478
    Total Energy =                       -310.3327849085046637
  Basis Set: CC-PVTZ
  Basis Set:
  Basis Set: CC-PVTZ
  Basis Set:
  @DF-RHF Final Energy:  -310.33278841824659
    Total Energy =                       -310.3327884182464800
  Basis Set: CC-PVTZ
  Basis Set:
  Charge       = 0
  Multiplicity = 1
  Basis Set: CC-PVTZ
  Basis Set:

    Orbital Energies (a.u.)
    -----------------------

    Doubly Occupied:

       1A    -20.545402     2A    -11.264974     3A    -11.213250
       4A    -11.212933     5A    -11.211247     6A    -11.209018
       7A    -11.206108     8A     -1.363246     9A     -1.087461
      10A     -1.034460    11A     -0.955155    12A     -0.876583
      13A     -0.808034    14A     -0.778757    15A     -0.696174
      16A     -0.662597    17A     -0.624945    18A     -0.606183
      19A     -0.588035    20A     -0.572913    21A     -0.536579
      22A     -0.520661    23A     -0.512809    24A     -0.487461
      25A     -0.480317    26A     -0.459939    27A     -0.456551
      28A     -0.444100    29A     -0.437419

  @DF-RHF Final Energy:  -310.33278939225499

   => Energetics <=

    Nuclear Repulsion Energy =            312.9929176334755994
    One-Electron Energy =               -1040.9447995212503884
    Two-Electron Energy =                 417.6190924955198511
    DFT Exchange-Correlation Energy =       0.0000000000000000
    Empirical Dispersion Energy =           0.0000000000000000
    PCM Polarization Energy =               0.0000000000000000
    EFP Energy =                            0.0000000000000000
    Total Energy =                       -310.3327893922549379
    Molecular point group: c1
  Basis Set: CC-PVTZ
  Basis Set:

  -Total Gradient:
     Atom            X                  Y                   Z
    ------   -----------------  -----------------  -----------------
       1       -0.000005351969     0.000006729273     0.000003824806
       2        0.000011304370    -0.000006855997    -0.000008066364
       3       -0.000003925765     0.000012428199     0.000004772503
       4        0.000029074390    -0.000482969509     0.001122353717
       5       -0.000006540438     0.000010621086    -0.000005657377
       6       -0.000003386153     0.000000315152     0.000007643829
       7        0.000203171528     0.000953411104    -0.001574068792
       8        0.000010732398    -0.000003019451    -0.000004468889
       9        0.000001184486    -0.000006752429     0.000003906085
      10       -0.001234808626    -0.001763050925     0.000572748327
      11       -0.000000426746     0.000003161079     0.000002999304
      12        0.000001329175    -0.000004389196    -0.000008418440
      13       -0.000008988618    -0.000028736381    -0.000009331231
      14        0.001040838216     0.001299865602    -0.000083406325
      15        0.000002421374    -0.000001980429    -0.000006186117
      16       -0.000007127967     0.000025150306    -0.000013695915
      17       -0.000006835509    -0.000009825338     0.000009701066
      18       -0.000012697377    -0.000006133765    -0.000007578590
      19        0.000001274339     0.000006639477    -0.000007523778
      20       -0.000001054714     0.000007150971    -0.000004169244
      21       -0.000010186401    -0.000011758827     0.000004621426

  **** Optimization is complete! (in 5 steps) ****
    Final optimized geometry and variables:
    Molecular point group: c1

    Geometry (in Angstrom), charge = 0, multiplicity = 1:

    H           -4.235317928446     0.415867447432     0.313301717723
    O           -3.522514556253    -0.149978670077     0.081225348577
    C           -2.298476379089     0.496403873567     0.309848158200
    C           -1.176011478553    -0.445909966614    -0.075061967371
    H           -2.234269730416     1.409184622932    -0.278738114311
    H           -2.204983911126     0.775128377515     1.357484517036
    C            0.207675892144     0.157095439390     0.148917717871
    H           -1.300262136972    -0.720570345423    -1.118054911622
    H           -1.280073925464    -1.359029086840     0.501853571334
    C            1.337432517881    -0.780699823143    -0.277219946463
    H            0.284896245417     1.096851151165    -0.389068904309
    H            0.324120762240     0.397842300171     1.203578687944
    C            2.729890804089    -0.353371573092     0.190152287095
    H            1.343547756563    -0.862472159838    -1.361523499863
    H            1.134097295290    -1.775375161658     0.107894348170
    C            3.218340437738     0.969023058542    -0.395991215864
    H            3.435937526588    -1.134468586135    -0.074746975842
    H            2.740044515012    -0.291584249996     1.275204481680
    H            3.212051300740     0.940202083615    -1.481031355307
    H            2.600246931003     1.802527501643    -0.084172315261
    H            4.233047714326     1.179637934350    -0.078083907702

  Mulliken Charges: (a.u.)
   Center  Symbol    Alpha    Beta     Spin     Total
       1     H     0.39761  0.39761  0.00000  0.20479
       2     O     4.19420  4.19420  0.00000 -0.38839
       3     C     2.96348  2.96348  0.00000  0.07305
       4     C     3.08353  3.08353  0.00000 -0.16707
       5     H     0.47486  0.47486  0.00000  0.05029
       6     H     0.47509  0.47509  0.00000  0.04983
       7     C     3.10489  3.10489  0.00000 -0.20978
       8     H     0.45105  0.45105  0.00000  0.09791
       9     H     0.45047  0.45047  0.00000  0.09905
      10     C     3.09388  3.09388  0.00000 -0.18776
      11     H     0.45279  0.45279  0.00000  0.09442
      12     H     0.45545  0.45545  0.00000  0.08909
      13     C     3.08975  3.08975  0.00000 -0.17949
      14     H     0.45300  0.45300  0.00000  0.09400
      15     H     0.44870  0.44870  0.00000  0.10260
      16     C     3.15256  3.15256  0.00000 -0.30512
      17     H     0.44870  0.44870  0.00000  0.10259
      18     H     0.45498  0.45498  0.00000  0.09004
      19     H     0.45481  0.45481  0.00000  0.09038
      20     H     0.45383  0.45383  0.00000  0.09234
      21     H     0.44638  0.44638  0.00000  0.10723

   Total alpha = 29.00000, Total beta = 29.00000, Total charge = -0.00000

*** Psi4 exiting successfully. Buy a developer a beer!
