  ==> Input File <==

--------------------------------------------------------------------------
set {
	reference rhf
	basis cc-pvtz
}

set_num_threads( 4 )
memory 2 gb

molecule MOL {
0 1

H	 -2.698799	 -0.000846	 0.036018
C	 -1.694291	 -0.000483	 0.434279
O	 -0.828718	 -0.000608	 -0.655022
H	 -1.576855	 0.881100	 1.056504
H	 -1.576401	 -0.881658	 1.057001
C	 0.557892	 0.000078	 -0.420099
C	 1.119054	 -1.403573	 -0.222279
C	 1.329668	 0.789180	 -1.471731
H	 0.649135	 0.527650	 0.521156
H	 0.525687	 -1.948163	 0.501873
H	 2.136268	 -1.343945	 0.147134
H	 1.140025	 -1.970562	 -1.145679
H	 0.882421	 1.765279	 -1.614017
H	 2.354584	 0.928438	 -1.147806
H	 1.356128	 0.280427	 -2.428294

	symmetry c1
}
set optking {
	frozen_dihedral = ("
		9 6 3 2
	")
}

ee = optimize('scf')
oeprop('DIPOLE', 'QUADRUPOLE', 'MULLIKEN_CHARGES')
f=open( 'psi4out.xyz', 'w' )
f.write( "15  " )
f.write( str(ee) + "\n" )
f.write( MOL.save_string_xyz() )
f.close()
--------------------------------------------------------------------------

    Molecular point group: c1
  Charge       = 0
  Multiplicity = 1
  Basis Set: CC-PVTZ
  Basis Set:
  @DF-RHF Final Energy:  -232.22592073499246
    Total Energy =                       -232.2259207349925987
    Molecular point group: c1
  Basis Set: CC-PVTZ
  Basis Set:
  Basis Set: CC-PVTZ
  Basis Set:
  @DF-RHF Final Energy:  -232.22914920772277
    Total Energy =                       -232.2291492077227986
  Basis Set: CC-PVTZ
  Basis Set:
  Basis Set: CC-PVTZ
  Basis Set:
  @DF-RHF Final Energy:  -232.22979104322084
    Total Energy =                       -232.2297910432208710
  Basis Set: CC-PVTZ
  Basis Set:
  Basis Set: CC-PVTZ
  Basis Set:
  @DF-RHF Final Energy:  -232.22981440257942
    Total Energy =                       -232.2298144025795636
  Basis Set: CC-PVTZ
  Basis Set:
  Basis Set: CC-PVTZ
  Basis Set:
  @DF-RHF Final Energy:  -232.22981745204277
    Total Energy =                       -232.2298174520428233
  Basis Set: CC-PVTZ
  Basis Set:
  Charge       = 0
  Multiplicity = 1
  Basis Set: CC-PVTZ
  Basis Set:

    Orbital Energies (a.u.)
    -----------------------

    Doubly Occupied:

       1A    -20.543591     2A    -11.272659     3A    -11.261427
       4A    -11.206614     5A    -11.204913     6A     -1.377985
       7A     -1.053659     8A     -0.939554     9A     -0.917441
      10A     -0.795076    11A     -0.672692    12A     -0.642088
      13A     -0.638314    14A     -0.585058    15A     -0.550967
      16A     -0.541667    17A     -0.533497    18A     -0.498854
      19A     -0.490016    20A     -0.457691    21A     -0.409399

  @DF-RHF Final Energy:  -232.22981756968636

   => Energetics <=

    Nuclear Repulsion Energy =            197.4117685178371175
    One-Electron Energy =                -706.0968469243887284
    Two-Electron Energy =                 276.4552608368650795
    DFT Exchange-Correlation Energy =       0.0000000000000000
    Empirical Dispersion Energy =           0.0000000000000000
    PCM Polarization Energy =               0.0000000000000000
    EFP Energy =                            0.0000000000000000
    Total Energy =                       -232.2298175696865314
    Molecular point group: c1
  Basis Set: CC-PVTZ
  Basis Set:

  -Total Gradient:
     Atom            X                  Y                   Z
    ------   -----------------  -----------------  -----------------
       1        0.000009771884     0.000000535184    -0.000009930886
       2       -0.000018826942     0.000836103066     0.000004350403
       3        0.000019736274    -0.001427704363     0.000158282281
       4        0.000000230075    -0.000003590153    -0.000004630468
       5        0.000002644659     0.000001583291    -0.000005561463
       6        0.000084866161     0.001468891779    -0.000624990165
       7        0.000009734180     0.000002483683    -0.000004938222
       8        0.000020104812    -0.000005440596    -0.000007001025
       9       -0.000104128690    -0.000875130182     0.000506096532
      10       -0.000005071780     0.000003545494     0.000003685657
      11       -0.000009180511     0.000004955345    -0.000006490460
      12        0.000002268696    -0.000002629164    -0.000002057020
      13       -0.000000010759     0.000003660640     0.000004306023
      14       -0.000016297188    -0.000006736473    -0.000000531900
      15        0.000004159127    -0.000000527552    -0.000010589288

  **** Optimization is complete! (in 6 steps) ****
    Final optimized geometry and variables:
    Molecular point group: c1

    Geometry (in Angstrom), charge = 0, multiplicity = 1:

    H           -2.766011463244     0.082293450565     0.407284107882
    C           -1.768265500132     0.108009321139     0.821538245581
    O           -0.872060687378     0.113165762688    -0.239873123794
    H           -1.667764166904     1.003591944881     1.430462678044
    H           -1.642059150366    -0.759506693515     1.464154572927
    C            0.490480733945     0.143937192103     0.099822795043
    C            1.036287986008    -1.268976309522     0.264252575035
    C            1.215913206100     0.913410604961    -0.989018990349
    H            0.607557816889     0.672373572030     1.044616869659
    H            0.497792800687    -1.812413725690     1.031090987211
    H            2.083063440377    -1.245240099882     0.545991124563
    H            0.942575888855    -1.816289465093    -0.666467101885
    H            0.825189226728     1.920095207786    -1.065447788454
    H            2.277963704640     0.968950412163    -0.779275631369
    H            1.079718399843     0.423898579905    -1.946267796032

  Mulliken Charges: (a.u.)
   Center  Symbol    Alpha    Beta     Spin     Total
       1     H     0.44775  0.44775  0.00000  0.10449
       2     C     3.03417  3.03417  0.00000 -0.06833
       3     O     4.18530  4.18530  0.00000 -0.37059
       4     H     0.47017  0.47017  0.00000  0.05967
       5     H     0.47225  0.47225  0.00000  0.05550
       6     C     2.91970  2.91970  0.00000  0.16060
       7     C     3.14399  3.14399  0.00000 -0.28797
       8     C     3.13990  3.13990  0.00000 -0.27980
       9     H     0.46936  0.46936  0.00000  0.06128
      10     H     0.45173  0.45173  0.00000  0.09654
      11     H     0.45379  0.45379  0.00000  0.09242
      12     H     0.45253  0.45253  0.00000  0.09495
      13     H     0.44872  0.44872  0.00000  0.10255
      14     H     0.45851  0.45851  0.00000  0.08298
      15     H     0.45214  0.45214  0.00000  0.09571

   Total alpha = 21.00000, Total beta = 21.00000, Total charge = -0.00000
