  ==> Input File <==

--------------------------------------------------------------------------
set {
	reference rhf
	basis 6-31G*
}

set_num_threads( 4 )
memory 2 gb

molecule MOL {
0 1

H	 -1.010156	 -0.943943	 0.874177
N	 -0.626943	 -0.667432	 -0.000092
C	 -1.270011	 -1.135152	 -1.206913
C	 0.469286	 0.129090	 0.000148
H	 -1.265628	 -2.219004	 -1.254357
H	 -0.725382	 -0.745676	 -2.051552
H	 -2.296734	 -0.788641	 -1.259839
C	 1.788933	 -0.616240	 -0.000037
O	 0.411098	 1.327768	 -0.000049
H	 1.872803	 -1.245775	 -0.880381
H	 2.595421	 0.101576	 0.003713
H	 1.870096	 -1.252171	 0.875943

	symmetry c1
}
set optking {
	frozen_dihedral = ("
		3 2 4 9
	")
}

ee = optimize('scf')
oeprop('DIPOLE', 'QUADRUPOLE', 'MULLIKEN_CHARGES')
f=open( 'psi4out.xyz', 'w' )
f.write( "12  " )
f.write( str(ee) + "\n" )
f.write( MOL.save_string_xyz() )
f.close()
--------------------------------------------------------------------------

    Molecular point group: c1
  Charge       = 0
  Multiplicity = 1
  Basis Set: 6-31G*
  Basis Set:
  @DF-RHF Final Energy:  -246.96293473201985
    Total Energy =                       -246.9629347320197894
    Molecular point group: c1
  Basis Set: 6-31G*
  Basis Set:
  Basis Set: 6-31G*
  Basis Set:
  @DF-RHF Final Energy:  -246.96650621360766
    Total Energy =                       -246.9665062136076017
  Basis Set: 6-31G*
  Basis Set:
  Basis Set: 6-31G*
  Basis Set:
  @DF-RHF Final Energy:  -246.96752147059360
    Total Energy =                       -246.9675214705937378
  Basis Set: 6-31G*
  Basis Set:
  Basis Set: 6-31G*
  Basis Set:
  @DF-RHF Final Energy:  -246.97013650703133
    Total Energy =                       -246.9701365070312704
  Basis Set: 6-31G*
  Basis Set:
  @DF-RHF Final Energy:  -246.96993261306270
    Total Energy =                       -246.9699326130626105
  @DF-RHF Final Energy:  -246.96857011803797
    Total Energy =                       -246.9685701180378601
  @DF-RHF Final Energy:  -246.97092625986676
    Total Energy =                       -246.9709262598670421
  @DF-RHF Final Energy:  -246.97092946663602
    Total Energy =                       -246.9709294666359938
  @DF-RHF Final Energy:  -246.97092516055898
    Total Energy =                       -246.9709251605588634
  @DF-RHF Final Energy:  -246.96890782847669
    Total Energy =                       -246.9689078284768016
  @DF-RHF Final Energy:  -246.97092953820462
    Total Energy =                       -246.9709295382044729
  @DF-RHF Final Energy:  -246.95634242918476
    Total Energy =                       -246.9563424291847014
  @DF-RHF Final Energy:  -246.95109407861983
    Total Energy =                       -246.9510940786198034
  @DF-RHF Final Energy:  -246.96650161455904
    Total Energy =                       -246.9665016145593199
  @DF-RHF Final Energy:  -246.96477655417698
    Total Energy =                       -246.9647765541770923
  @DF-RHF Final Energy:  -246.97099790591284
    Total Energy =                       -246.9709979059130092
  @DF-RHF Final Energy:  -246.97102878771875
    Total Energy =                       -246.9710287877186374
  @DF-RHF Final Energy:  -246.97103033705739
    Total Energy =                       -246.9710303370576412
  @DF-RHF Final Energy:  -246.96448562809246
    Total Energy =                       -246.9644856280925183
  @DF-RHF Final Energy:  -246.95808204488117
    Total Energy =                       -246.9580820448810528
  @DF-RHF Final Energy:  -246.96978053892954
    Total Energy =                       -246.9697805389296263
  @DF-RHF Final Energy:  -246.96721959951810
    Total Energy =                       -246.9672195995180459
  @DF-RHF Final Energy:  -246.97032811493938
    Total Energy =                       -246.9703281149396616
  @DF-RHF Final Energy:  -246.96879913604562
    Total Energy =                       -246.9687991360456181
  @DF-RHF Final Energy:  -246.97094015324325
    Total Energy =                       -246.9709401532430775
  @DF-RHF Final Energy:  -246.97093458907048
    Total Energy =                       -246.9709345890705663
  @DF-RHF Final Energy:  -246.97090490188808
    Total Energy =                       -246.9709049018881615
  @DF-RHF Final Energy:  -246.93020712704305
    Total Energy =                       -246.9302071270428769
  @DF-RHF Final Energy:  -246.87128160145858
    Total Energy =                       -246.8712816014585201
  @DF-RHF Final Energy:  -246.83984937233799
    Total Energy =                       -246.8398493723378806
  @DF-RHF Final Energy:  -246.87518098499666
    Total Energy =                       -246.8751809849966321
  @DF-RHF Final Energy:  -246.94429288453384
    Total Energy =                       -246.9442928845336382
  @DF-RHF Final Energy:  -246.96744854321082
    Total Energy =                       -246.9674485432107645
  @DF-RHF Final Energy:  -246.97022738941698
    Total Energy =                       -246.9702273894168911
  @DF-RHF Final Energy:  -246.97049225634703
    Total Energy =                       -246.9704922563470859
  @DF-RHF Final Energy:  -246.97056108517069
    Total Energy =                       -246.9705610851709707
  Basis Set: 6-31G*
  Basis Set:
  @DF-RHF Final Energy:  -246.97109264596071
    Total Energy =                       -246.9710926459606526
  Basis Set: 6-31G*
  Basis Set:
  Basis Set: 6-31G*
  Basis Set:
  @DF-RHF Final Energy:  -246.97114928468275
    Total Energy =                       -246.9711492846827241
  Basis Set: 6-31G*
  Basis Set:
  Basis Set: 6-31G*
  Basis Set:
  @DF-RHF Final Energy:  -246.97119169734691
    Total Energy =                       -246.9711916973467964
  Basis Set: 6-31G*
  Basis Set:
  Charge       = 0
  Multiplicity = 1
  Basis Set: 6-31G*
  Basis Set:

    Orbital Energies (a.u.)
    -----------------------

    Doubly Occupied:

       1A    -20.556847     2A    -15.544477     3A    -11.353613
       4A    -11.256890     5A    -11.229503     6A     -1.415996
       7A     -1.204344     8A     -1.011374     9A     -0.925155
      10A     -0.769806    11A     -0.684552    12A     -0.652461
      13A     -0.639148    14A     -0.594560    15A     -0.580949
      16A     -0.565990    17A     -0.543614    18A     -0.500860
      19A     -0.429130    20A     -0.370568

  @DF-RHF Final Energy:  -246.97120853874989

   => Energetics <=

    Nuclear Repulsion Energy =            180.5287652577166284
    One-Electron Energy =                -693.3402779373477642
    Two-Electron Energy =                 265.8403041408813579
    DFT Exchange-Correlation Energy =       0.0000000000000000
    Empirical Dispersion Energy =           0.0000000000000000
    PCM Polarization Energy =               0.0000000000000000
    EFP Energy =                            0.0000000000000000
    Total Energy =                       -246.9712085387498064
    Molecular point group: c1
  Basis Set: 6-31G*
  Basis Set:

  -Total Gradient:
     Atom            X                  Y                   Z
    ------   -----------------  -----------------  -----------------
       1        0.010191003717    -0.007896129953     0.001718278007
       2       -0.029383444705     0.003378976618    -0.009914048907
       3        0.008641383097     0.000966881837     0.010405741064
       4        0.028837240829     0.026596511143     0.002604299786
       5        0.001476314037    -0.002854549678    -0.000980049767
       6        0.000495555345     0.001092908198    -0.001576350445
       7       -0.000854694317     0.002115268804     0.000808717274
       8       -0.005462153199     0.000687372483     0.003138135909
       9       -0.007673661324    -0.012872130513    -0.005223618914
      10        0.001952818829    -0.005969556312    -0.001684200778
      11       -0.009269152325     0.000829041597     0.000451220496
      12        0.001048790014    -0.006074594223     0.000251876274

    Molecular point group: c1

    Geometry (in Angstrom), charge = 0, multiplicity = 1:

    H           -1.326422854097    -0.531220830711     1.085549770752
    N           -0.769371521674    -0.561632339376     0.266484366359
    C           -1.368478965633    -0.923174629528    -0.979706832621
    C            0.344367276151     0.351715508457     0.262870967785
    H           -1.526605810323    -1.998092492811    -1.060042763941
    H           -0.710260189280    -0.635439901307    -1.796210971499
    H           -2.313731781347    -0.409907981706    -1.152772278154
    C            1.659129220635    -0.359261753747     0.161237014583
    O            0.194449123511     1.519181022073     0.341535686944
    H            1.703953423106    -0.993463009593    -0.725369655808
    H            2.434062725876     0.384973018447     0.138579566264
    H            1.781828241731    -1.041903611022     1.002640333848

  Mulliken Charges: (a.u.)
   Center  Symbol    Alpha    Beta     Spin     Total
       1     H     0.31314  0.31314  0.00000  0.37373
       2     N     3.89981  3.89981  0.00000 -0.79963
       3     C     3.13449  3.13449  0.00000 -0.26898
       4     C     2.67396  2.67396  0.00000  0.65207
       5     H     0.41768  0.41768  0.00000  0.16465
       6     H     0.41673  0.41673  0.00000  0.16654
       7     H     0.41696  0.41696  0.00000  0.16608
       8     C     3.27526  3.27526  0.00000 -0.55051
       9     O     4.24157  4.24157  0.00000 -0.48315
      10     H     0.40622  0.40622  0.00000  0.18755
      11     H     0.40227  0.40227  0.00000  0.19545
      12     H     0.40190  0.40190  0.00000  0.19620

   Total alpha = 20.00000, Total beta = 20.00000, Total charge =  0.00000
