                              Psi4 1.0.54 Driver

  ==> Input File <==

--------------------------------------------------------------------------
set {
	reference rhf
	basis cc-pvtz
}

set_num_threads( 4 )
memory 2 gb

molecule MOL {
0 1

H	 -0.368304	 0.067620	 2.090637
C	 -0.209556	 -0.484981	 1.189547
C	 -0.208240	 -1.865081	 1.182035
C	 0.000000	 0.179985	 0.000046
H	 -0.369367	 -2.400843	 2.096645
C	 -0.000003	 -2.552036	 -0.000011
N	 0.000000	 1.644631	 0.000076
C	 0.209558	 -0.484932	 -1.189482
H	 -0.000000	 -3.625035	 -0.000032
C	 0.208238	 -1.865032	 -1.182028
O	 1.050559	 2.194174	 -0.000073
O	 -1.050559	 2.194174	 -0.000074
H	 0.368297	 0.067705	 -2.090551
H	 0.369368	 -2.400757	 -2.096659

	symmetry c1
}
set optking {
	frozen_dihedral = ("
		2 4 7 11
	")
}

ee,wfn = optimize('scf', return_wfn=True)
oeprop( wfn, 'DIPOLE', 'QUADRUPOLE', 'MULLIKEN_CHARGES')
f=open( 'psi4out.xyz', 'w' )
f.write( "14  " )
f.write( str(ee) + "\n" )
f.write( MOL.save_string_xyz() )
f.close()
--------------------------------------------------------------------------

    Molecular point group: c1
  Charge       = 0
  Multiplicity = 1
  Basis Set: CC-PVTZ
  Basis Set:
  @DF-RHF Final Energy:  -434.32010273995928
    Total Energy =                       -434.3201027399594523
    Molecular point group: c1
  Basis Set: CC-PVTZ
  Basis Set:
  Basis Set: CC-PVTZ
  Basis Set:
  @DF-RHF Final Energy:  -434.31603204385380
    Total Energy =                       -434.3160320438539657
  Basis Set: CC-PVTZ
  Basis Set:
  Basis Set: CC-PVTZ
  Basis Set:
  @DF-RHF Final Energy:  -434.31956236948764
    Total Energy =                       -434.3195623694879259
  Basis Set: CC-PVTZ
  Basis Set:
  Basis Set: CC-PVTZ
  Basis Set:
  @DF-RHF Final Energy:  -434.32036256644000
    Total Energy =                       -434.3203625664398260
  Basis Set: CC-PVTZ
  Basis Set:
  Basis Set: CC-PVTZ
  Basis Set:
  @DF-RHF Final Energy:  -434.32037778194001
    Total Energy =                       -434.3203777819400102
  Basis Set: CC-PVTZ
  Basis Set:
  Charge       = 0
  Multiplicity = 1
  Basis Set: CC-PVTZ
  Basis Set:

    Orbital Energies (a.u.)
    -----------------------

    Doubly Occupied:

       1A    -20.598501     2A    -20.598416     3A    -15.848343
       4A    -11.308166     5A    -11.267362     6A    -11.267306
       7A    -11.260880     8A    -11.260560     9A    -11.258012
      10A     -1.645833    11A     -1.428968    12A     -1.206520
      13A     -1.096696    14A     -1.056880    15A     -0.959256
      16A     -0.874941    17A     -0.831517    18A     -0.786433
      19A     -0.740749    20A     -0.738661    21A     -0.718231
      22A     -0.652004    23A     -0.650499    24A     -0.625878
      25A     -0.561732    26A     -0.552994    27A     -0.533700
      28A     -0.500804    29A     -0.485693    30A     -0.459454
      31A     -0.371615    32A     -0.370581

  @DF-RHF Final Energy:  -434.32038855015008

   => Energetics <=

    Nuclear Repulsion Energy =            417.3191222316906419
    One-Electron Energy =               -1418.2446540647829352
    Two-Electron Energy =                 566.6051432829419809
    DFT Exchange-Correlation Energy =       0.0000000000000000
    Empirical Dispersion Energy =           0.0000000000000000
    PCM Polarization Energy =               0.0000000000000000
    EFP Energy =                            0.0000000000000000
    Total Energy =                       -434.3203885501502555
    Molecular point group: c1
  Basis Set: CC-PVTZ
  Basis Set:

  -Total Gradient:
     Atom            X                  Y                   Z
    ------   -----------------  -----------------  -----------------
       1        0.000005960188     0.000003534683    -0.000008887782
       2        0.002199578926    -0.000126375522     0.000344426689
       3        0.000024975881     0.000013665009     0.000012408105
       4       -0.003191520635     0.000207721808     0.000509049715
       5        0.000005632480    -0.000002689592     0.000002366450
       6       -0.000004884210    -0.000003224515     0.000009385768
       7        0.001003333260    -0.000080906746    -0.003464756187
       8       -0.000052096941    -0.000079703125    -0.000041412113
       9       -0.000009838243     0.000001510910     0.000000816053
      10        0.000024106433     0.000027901305    -0.000015602273
      11       -0.000047222060    -0.000006338238     0.002634345544
      12        0.000035204741     0.000039060750     0.000003160175
      13        0.000001379515     0.000007113311     0.000014042796
      14        0.000005390661    -0.000001270032     0.000000657060

  **** Optimization is complete! (in 6 steps) ****
    Final optimized geometry and variables:
    Molecular point group: c1

    Geometry (in Angstrom), charge = 0, multiplicity = 1:

    H           -0.364740940973     0.075671638752     2.090851931445
    C           -0.212182519673    -0.476640361588     1.184976067906
    C           -0.211999936207    -1.858029921822     1.177937822156
    C           -0.015663920230     0.178107314995    -0.006705773745
    H           -0.360897166581    -2.392484143356     2.095592314563
    C           -0.021551322502    -2.547270053902    -0.005153172845
    N            0.016550022799     1.643606932464    -0.000031021450
    C            0.192043419515    -0.478990926165    -1.195091908751
    H           -0.026245148959    -3.619853811583    -0.004829763105
    C            0.177919128798    -1.860377012760    -1.188057308591
    O            1.082378137023     2.159039461736    -0.022129974234
    O           -1.024232205084     2.206679509716     0.047642221772
    H            0.359546620334     0.071446993614    -2.099487479104
    H            0.328269357397    -2.396572071360    -2.104452842415

  Mulliken Charges: (a.u.)
   Center  Symbol    Alpha    Beta     Spin     Total
       1     H     0.41418  0.41418  0.00000  0.17164
       2     C     3.08464  3.08464  0.00000 -0.16927
       3     C     3.06418  3.06418  0.00000 -0.12837
       4     C     2.92415  2.92415  0.00000  0.15171
       5     H     0.41735  0.41735  0.00000  0.16530
       6     C     3.07817  3.07817  0.00000 -0.15634
       7     N     3.29231  3.29231  0.00000  0.41538
       8     C     3.08484  3.08484  0.00000 -0.16968
       9     H     0.41801  0.41801  0.00000  0.16398
      10     C     3.06400  3.06400  0.00000 -0.12800
      11     O     4.16283  4.16283  0.00000 -0.32566
      12     O     4.16340  4.16340  0.00000 -0.32680
      13     H     0.41459  0.41459  0.00000  0.17082
      14     H     0.41736  0.41736  0.00000  0.16529

   Total alpha = 32.00000, Total beta = 32.00000, Total charge =  0.00000

*** Psi4 exiting successfully. Buy a developer a beer!
