                              Psi4 1.0.54 Driver

  ==> Input File <==

--------------------------------------------------------------------------
set {
	reference rhf
	basis cc-pvtz
}

set_num_threads( 4 )
memory 2 gb

molecule MOL {
0 1

H	 -3.941973	 0.934228	 -0.390224
C	 -3.240162	 0.342701	 0.161016
C	 -2.105997	 -0.000418	 -0.398703
H	 -3.485368	 0.047206	 1.162193
O	 -1.189946	 -0.765863	 0.237511
H	 -1.846458	 0.297311	 -1.398265
C	 0.026572	 -0.995256	 -0.379403
C	 1.057223	 0.049888	 -0.004615
H	 -0.054361	 -1.010670	 -1.459674
H	 0.397526	 -1.952058	 -0.044198
F	 2.042076	 -0.522827	 0.658065
F	 1.574796	 0.631641	 -1.065364
F	 0.552027	 0.989194	 0.757579

	symmetry c1
}
set optking {
	frozen_dihedral = ("
		11 8 7 9
	")
}

ee,wfn = optimize('scf', return_wfn=True)
oeprop( wfn, 'DIPOLE', 'QUADRUPOLE', 'MULLIKEN_CHARGES')
f=open( 'psi4out.xyz', 'w' )
f.write( "13  " )
f.write( str(ee) + "\n" )
f.write( MOL.save_string_xyz() )
f.close()
--------------------------------------------------------------------------

    Molecular point group: c1
  Charge       = 0
  Multiplicity = 1
  Basis Set: CC-PVTZ
  Basis Set:
  @DF-RHF Final Energy:  -527.73453472662163
    Total Energy =                       -527.7345347266215185
    Molecular point group: c1
  Basis Set: CC-PVTZ
  Basis Set:
  Basis Set: CC-PVTZ
  Basis Set:
  @DF-RHF Final Energy:  -527.73519027093471
    Total Energy =                       -527.7351902709349361
  Basis Set: CC-PVTZ
  Basis Set:
  Basis Set: CC-PVTZ
  Basis Set:
  @DF-RHF Final Energy:  -527.73547353402523
    Total Energy =                       -527.7354735340251182
  Basis Set: CC-PVTZ
  Basis Set:
  Basis Set: CC-PVTZ
  Basis Set:
  @DF-RHF Final Energy:  -527.73549911687087
    Total Energy =                       -527.7354991168709830
  Basis Set: CC-PVTZ
  Basis Set:
  Basis Set: CC-PVTZ
  Basis Set:
  @DF-RHF Final Energy:  -527.73551263796207
    Total Energy =                       -527.7355126379621879
  Basis Set: CC-PVTZ
  Basis Set:
  Basis Set: CC-PVTZ
  Basis Set:
  @DF-RHF Final Energy:  -527.73551788898340
    Total Energy =                       -527.7355178889836225
  Basis Set: CC-PVTZ
  Basis Set:
  Basis Set: CC-PVTZ
  Basis Set:
  @DF-RHF Final Energy:  -527.73551951470836
    Total Energy =                       -527.7355195147085851
  Basis Set: CC-PVTZ
  Basis Set:
  Charge       = 0
  Multiplicity = 1
  Basis Set: CC-PVTZ
  Basis Set:

    Orbital Energies (a.u.)
    -----------------------

    Doubly Occupied:

       1A    -26.340434     2A    -26.339187     3A    -26.338704
       4A    -20.603257     5A    -11.499687     6A    -11.319708
       7A    -11.298420     8A    -11.214574     9A     -1.750588
      10A     -1.646995    11A     -1.643887    12A     -1.444189
      13A     -1.083958    14A     -1.019116    15A     -0.932501
      16A     -0.843564    17A     -0.838082    18A     -0.827849
      19A     -0.796476    20A     -0.731037    21A     -0.723031
      22A     -0.701642    23A     -0.680083    24A     -0.668552
      25A     -0.661811    26A     -0.649769    27A     -0.634453
      28A     -0.587169    29A     -0.565072    30A     -0.528858
      31A     -0.516292    32A     -0.357223

  @DF-RHF Final Energy:  -527.73552011814661

   => Energetics <=

    Nuclear Repulsion Energy =            412.9707080434837962
    One-Electron Energy =               -1549.8401193308670827
    Two-Electron Energy =                 609.1338911692370175
    DFT Exchange-Correlation Energy =       0.0000000000000000
    Empirical Dispersion Energy =           0.0000000000000000
    PCM Polarization Energy =               0.0000000000000000
    EFP Energy =                            0.0000000000000000
    Total Energy =                       -527.7355201181461553
    Molecular point group: c1
  Basis Set: CC-PVTZ
  Basis Set:

  -Total Gradient:
     Atom            X                  Y                   Z
    ------   -----------------  -----------------  -----------------
       1        0.000006292832    -0.000022989878     0.000001203259
       2        0.000001665519     0.000010967026     0.000018037975
       3        0.000031329835     0.000065781506     0.000013445670
       4        0.000013518523     0.000012148522    -0.000024481524
       5       -0.000059535117    -0.000073706359    -0.000018756871
       6       -0.000010975153    -0.000035369162     0.000013494750
       7       -0.000573766411     0.000759634667    -0.000195399415
       8       -0.000337349002     0.000004353880     0.000834829709
       9        0.000604703194    -0.000609012662    -0.000019417248
      10       -0.000024396413     0.000007208098    -0.000004928981
      11        0.000435257096    -0.000178711133    -0.000596763711
      12       -0.000021997870    -0.000005594844    -0.000014241623
      13       -0.000064747027     0.000065290341    -0.000007021987

  **** Optimization is complete! (in 8 steps) ****
    Final optimized geometry and variables:
    Molecular point group: c1

    Geometry (in Angstrom), charge = 0, multiplicity = 1:

    H           -3.902133578840     0.981410239138    -0.364543798773
    C           -3.244164749170     0.318011821871     0.158189593875
    C           -2.078525307390     0.022230619033    -0.362282207493
    H           -3.557820172606    -0.086569749506     1.100390002559
    O           -1.211070363213    -0.823058675523     0.239176525655
    H           -1.752878449291     0.428112253381    -1.303530285243
    C            0.019720680828    -1.024094020810    -0.356041278374
    C            1.055093600175     0.060099357033    -0.008589309739
    H           -0.055612264201    -1.077748163389    -1.434509454002
    H            0.400585772313    -1.964318308168     0.008274016218
    F            2.058471601784    -0.444471700553     0.679397090404
    F            1.571425880912     0.582305800910    -1.106203384280
    F            0.543228300617     1.040283107760     0.690438571720

  Mulliken Charges: (a.u.)
   Center  Symbol    Alpha    Beta     Spin     Total
       1     H     0.42543  0.42543  0.00000  0.14915
       2     C     3.19581  3.19581  0.00000 -0.39161
       3     C     2.95810  2.95810  0.00000  0.08380
       4     H     0.42495  0.42495  0.00000  0.15011
       5     O     4.13897  4.13897  0.00000 -0.27794
       6     H     0.43451  0.43451  0.00000  0.13099
       7     C     3.03525  3.03525  0.00000 -0.07050
       8     C     2.67199  2.67199  0.00000  0.65602
       9     H     0.45457  0.45457  0.00000  0.09086
      10     H     0.43481  0.43481  0.00000  0.13039
      11     F     4.61012  4.61012  0.00000 -0.22024
      12     F     4.61335  4.61335  0.00000 -0.22671
      13     F     4.60216  4.60216  0.00000 -0.20431

   Total alpha = 32.00000, Total beta = 32.00000, Total charge = -0.00000

*** Psi4 exiting successfully. Buy a developer a beer!
