  ==> Input File <==

--------------------------------------------------------------------------
set {
	reference rhf
	basis cc-pvtz
}

set_num_threads( 4 )
memory 2 gb

molecule MOL {
0 1

H	 0.677187	 3.715817	 -0.542045
O	 1.425659	 3.161570	 -0.410432
C	 1.062315	 1.881916	 -0.212827
C	 2.072974	 0.954320	 -0.004853
C	 -0.255705	 1.477959	 -0.211588
H	 3.091116	 1.289759	 -0.009760
C	 1.761017	 -0.369650	 0.202846
H	 -1.055143	 2.171724	 -0.369347
C	 -0.532034	 0.141680	 0.000000
H	 2.548688	 -1.079415	 0.362709
C	 0.444567	 -0.799615	 0.208556
N	 -1.937041	 -0.281114	 0.000000
H	 0.187441	 -1.823846	 0.368431
O	 -2.159542	 -1.446261	 0.000000
O	 -2.764978	 0.565773	 0.000000

	symmetry c1
}
set optking {
	frozen_dihedral = ("
		11 9 12 14
	")
}

ee = optimize('scf')
oeprop('DIPOLE', 'QUADRUPOLE', 'MULLIKEN_CHARGES')
f=open( 'psi4out.xyz', 'w' )
f.write( "15  " )
f.write( str(ee) + "\n" )
f.write( MOL.save_string_xyz() )
f.close()
--------------------------------------------------------------------------

    Molecular point group: c1
  Charge       = 0
  Multiplicity = 1
  Basis Set: CC-PVTZ
  Basis Set:
  @DF-RHF Final Energy:  -509.21894723947150
    Total Energy =                       -509.2189472394716176
    Molecular point group: c1
  Basis Set: CC-PVTZ
  Basis Set:
  Basis Set: CC-PVTZ
  Basis Set:
  @DF-RHF Final Energy:  -509.21724303891079
    Total Energy =                       -509.2172430389103965
  Basis Set: CC-PVTZ
  Basis Set:
  Basis Set: CC-PVTZ
  Basis Set:
  @DF-RHF Final Energy:  -509.21895399497851
    Total Energy =                       -509.2189539949782784
  Basis Set: CC-PVTZ
  Basis Set:
  Basis Set: CC-PVTZ
  Basis Set:
  @DF-RHF Final Energy:  -509.21896965246691
    Total Energy =                       -509.2189696524673082
  Basis Set: CC-PVTZ
  Basis Set:
  Charge       = 0
  Multiplicity = 1
  Basis Set: CC-PVTZ
  Basis Set:

    Orbital Energies (a.u.)
    -----------------------

    Doubly Occupied:

       1A    -20.608483     2A    -20.595157     3A    -20.594687
       4A    -15.850575     5A    -11.327782     6A    -11.309075
       7A    -11.263223     8A    -11.262850     9A    -11.258544
      10A    -11.256442    11A     -1.644335    12A     -1.441107
      13A     -1.426804    14A     -1.202599    15A     -1.095588
      16A     -1.048005    17A     -0.966874    18A     -0.881565
      19A     -0.832018    20A     -0.795375    21A     -0.756730
      22A     -0.743217    23A     -0.729169    24A     -0.709617
      25A     -0.677067    26A     -0.636074    27A     -0.621718
      28A     -0.598477    29A     -0.560765    30A     -0.546753
      31A     -0.520726    32A     -0.494930    33A     -0.493546
      34A     -0.460165    35A     -0.380090    36A     -0.346168

  @DF-RHF Final Energy:  -509.21896993743945

   => Energetics <=

    Nuclear Repulsion Energy =            504.7364409659173248
    One-Electron Energy =               -1696.0382178541076428
    Two-Electron Energy =                 682.0828069507502960
    DFT Exchange-Correlation Energy =       0.0000000000000000
    Empirical Dispersion Energy =           0.0000000000000000
    PCM Polarization Energy =               0.0000000000000000
    EFP Energy =                            0.0000000000000000
    Total Energy =                       -509.2189699374399652
    Molecular point group: c1
  Basis Set: CC-PVTZ
  Basis Set:

  -Total Gradient:
     Atom            X                  Y                   Z
    ------   -----------------  -----------------  -----------------
       1        0.000000536363    -0.000001480936    -0.000006921843
       2        0.000000933944     0.000001439652     0.000008516589
       3       -0.000007237795     0.000005643828     0.000001124799
       4        0.000002328704    -0.000008853611    -0.000017217963
       5       -0.000001500593    -0.000003429280    -0.000004886656
       6       -0.000000359003     0.000000759260     0.000005460687
       7        0.000003409110     0.000008817688     0.000000037531
       8       -0.000003567424     0.000003702906     0.000004596291
       9        0.000046293210    -0.000199036577    -0.001357385812
      10        0.000000155039    -0.000000260207     0.000000339805
      11       -0.000033760068     0.000122731762     0.000739998307
      12       -0.000087674543     0.000281755066     0.001474410211
      13        0.000001920242     0.000005120237    -0.000007655301
      14       -0.000028572725    -0.000131678135    -0.000841315772
      15        0.000107095533    -0.000085231646     0.000000899127

  **** Optimization is complete! (in 5 steps) ****
    Final optimized geometry and variables:
    Molecular point group: c1

    Geometry (in Angstrom), charge = 0, multiplicity = 1:

    H            0.841670413827     3.166910507261    -0.490940272109
    O            1.590266433447     2.612005765775    -0.363039320088
    C            1.227038361478     1.332647944655    -0.163651335125
    C            2.237684842485     0.405406433690     0.045947234053
    C           -0.091127613892     0.928785950033    -0.160194964101
    H            3.255685059805     0.741241998580     0.042545120111
    C            1.925969454065    -0.918483062916     0.254734254141
    H           -0.891223090925     1.623429875740    -0.311171321006
    C           -0.366447933281    -0.408416911118     0.045426020740
    H            2.713637160279    -1.627252704904     0.418977184177
    C            0.609847324450    -1.349500949101     0.255569360065
    N           -1.771226499898    -0.830272040383     0.052382199782
    H            0.352690950599    -2.374325244177     0.412138497791
    O           -1.994368123237    -1.993559345746     0.059160481468
    O           -2.599009068034     0.019200697134     0.045072346704

  Mulliken Charges: (a.u.)
   Center  Symbol    Alpha    Beta     Spin     Total
       1     H     0.38410  0.38410  0.00000  0.23180
       2     O     4.16865  4.16865  0.00000 -0.33729
       3     C     2.84375  2.84375  0.00000  0.31251
       4     C     3.09755  3.09755  0.00000 -0.19509
       5     C     3.13412  3.13412  0.00000 -0.26824
       6     H     0.41316  0.41316  0.00000  0.17368
       7     C     3.05666  3.05666  0.00000 -0.11331
       8     H     0.40787  0.40787  0.00000  0.18426
       9     C     2.97915  2.97915  0.00000  0.04170
      10     H     0.41597  0.41597  0.00000  0.16806
      11     C     3.09613  3.09613  0.00000 -0.19226
      12     N     3.25091  3.25091  0.00000  0.49819
      13     H     0.40004  0.40004  0.00000  0.19992
      14     O     4.17411  4.17411  0.00000 -0.34822
      15     O     4.17785  4.17785  0.00000 -0.35571

   Total alpha = 36.00000, Total beta = 36.00000, Total charge = -0.00000
