  ==> Input File <==

--------------------------------------------------------------------------
set {
	reference rhf
	basis 6-31G*
}

set_num_threads( 4 )
memory 2 gb

molecule MOL {
0 1

H	 -3.420663	 1.227371	 -1.044276
O	 -3.452007	 0.283848	 -0.965577
C	 -3.181085	 -0.079926	 0.364119
C	 -1.765924	 0.277073	 0.805136
H	 -3.327791	 -1.152017	 0.410903
H	 -3.905698	 0.375695	 1.036898
C	 -0.677594	 -0.417312	 -0.014550
H	 -1.637766	 1.358238	 0.744969
H	 -1.659588	 0.017670	 1.857098
C	 0.738335	 -0.034840	 0.421385
H	 -0.814977	 -0.178223	 -1.064632
H	 -0.802730	 -1.495410	 0.071702
C	 0.933541	 -0.112700	 1.937933
H	 1.450552	 -0.686723	 -0.078828
H	 0.960556	 0.976572	 0.083350
C	 2.310190	 0.346501	 2.432026
H	 0.755392	 -1.133835	 2.271461
H	 0.173006	 0.499326	 2.418379
C	 3.474466	 -0.539118	 1.984203
H	 2.293512	 0.376147	 3.518826
H	 2.487286	 1.368908	 2.104118
H	 3.318673	 -1.571008	 2.287637
H	 4.407067	 -0.202852	 2.426942
H	 3.603597	 -0.526909	 0.907013

	symmetry c1
}
set optking {
	frozen_dihedral = ("
		13 10 7 11
	")
}

ee = optimize('scf')
oeprop('DIPOLE', 'QUADRUPOLE', 'MULLIKEN_CHARGES')
f=open( 'psi4out.xyz', 'w' )
f.write( "24  " )
f.write( str(ee) + "\n" )
f.write( MOL.save_string_xyz() )
f.close()
--------------------------------------------------------------------------

    Molecular point group: c1
  Charge       = 0
  Multiplicity = 1
  Basis Set: 6-31G*
  Basis Set:
  @DF-RHF Final Energy:  -349.24263463545344
    Total Energy =                       -349.2426346354534417
    Molecular point group: c1
  Basis Set: 6-31G*
  Basis Set:
  Basis Set: 6-31G*
  Basis Set:
  @DF-RHF Final Energy:  -349.24330760446702
    Total Energy =                       -349.2433076044669633
  Basis Set: 6-31G*
  Basis Set:
  Basis Set: 6-31G*
  Basis Set:
  @DF-RHF Final Energy:  -349.24468771760814
    Total Energy =                       -349.2446877176084854
  Basis Set: 6-31G*
  Basis Set:
  Basis Set: 6-31G*
  Basis Set:
  @DF-RHF Final Energy:  -349.24482097091186
    Total Energy =                       -349.2448209709118032
  Basis Set: 6-31G*
  Basis Set:
  Basis Set: 6-31G*
  Basis Set:
  @DF-RHF Final Energy:  -349.24482569967404
    Total Energy =                       -349.2448256996741520
  Basis Set: 6-31G*
  Basis Set:
  Basis Set: 6-31G*
  Basis Set:
  @DF-RHF Final Energy:  -349.24483133620652
    Total Energy =                       -349.2448313362065733
  Basis Set: 6-31G*
  Basis Set:
  Basis Set: 6-31G*
  Basis Set:
  @DF-RHF Final Energy:  -349.24483275555974
    Total Energy =                       -349.2448327555597416
  Basis Set: 6-31G*
  Basis Set:
  Charge       = 0
  Multiplicity = 1
  Basis Set: 6-31G*
  Basis Set:

    Orbital Energies (a.u.)
    -----------------------

    Doubly Occupied:

       1A    -20.553761     2A    -11.267664     3A    -11.216745
       4A    -11.215058     5A    -11.212913     6A    -11.212330
       7A    -11.211176     8A    -11.207581     9A     -1.360330
      10A     -1.088687    11A     -1.046714    12A     -0.984048
      13A     -0.916838    14A     -0.853832    15A     -0.807434
      16A     -0.767090    17A     -0.679220    18A     -0.641892
      19A     -0.632968    20A     -0.619589    21A     -0.601574
      22A     -0.582392    23A     -0.554416    24A     -0.550188
      25A     -0.516415    26A     -0.508342    27A     -0.500123
      28A     -0.476957    29A     -0.473100    30A     -0.454687
      31A     -0.453293    32A     -0.437597    33A     -0.424629

  @DF-RHF Final Energy:  -349.24483273483702

   => Energetics <=

    Nuclear Repulsion Energy =            388.1611183213847198
    One-Electron Energy =               -1242.7527352178894944
    Two-Electron Energy =                 505.3467841616680403
    DFT Exchange-Correlation Energy =       0.0000000000000000
    Empirical Dispersion Energy =           0.0000000000000000
    PCM Polarization Energy =               0.0000000000000000
    EFP Energy =                            0.0000000000000000
    Total Energy =                       -349.2448327348367343
    Molecular point group: c1
  Basis Set: 6-31G*
  Basis Set:

  -Total Gradient:
     Atom            X                  Y                   Z
    ------   -----------------  -----------------  -----------------
       1       -0.000000981875     0.000003136670     0.000000917649
       2       -0.000016228855     0.000000310264     0.000010162404
       3        0.000001883782    -0.000008939087    -0.000005829122
       4        0.000007984102     0.000007271385    -0.000014492007
       5        0.000000559960     0.000001029195    -0.000005112836
       6       -0.000001537421    -0.000001582314     0.000000289628
       7        0.001292908865    -0.002909715231    -0.001076335055
       8        0.000006204233     0.000000974312     0.000001846879
       9       -0.000006338468     0.000002789294     0.000001917288
      10        0.001026290623    -0.002942361479    -0.000163495352
      11       -0.001380013399     0.003271462357     0.000975724305
      12        0.000000946209     0.000000928875     0.000002077702
      13       -0.000928388499     0.002570689758     0.000264968577
      14        0.000012992759    -0.000000014347    -0.000000447736
      15       -0.000005817799    -0.000000663547     0.000006810512
      16        0.000000125629    -0.000001773616     0.000012241530
      17       -0.000002034284     0.000004925671     0.000001730883
      18       -0.000000166567     0.000004970372    -0.000003651638
      19       -0.000002878117     0.000000836111    -0.000011155242
      20       -0.000000131799    -0.000002814166     0.000002538200
      21       -0.000003246238    -0.000000079529     0.000005492775
      22        0.000001448322     0.000000476571     0.000003127574
      23       -0.000001143198     0.000001808345    -0.000003411340
      24       -0.000002437958    -0.000003665865    -0.000005915575

  **** Optimization is complete! (in 8 steps) ****
    Final optimized geometry and variables:
    Molecular point group: c1

    Geometry (in Angstrom), charge = 0, multiplicity = 1:

    H           -3.122697455310     1.314103054603    -1.893486902650
    O           -3.137363351338     0.366955542507    -1.898941750608
    C           -2.974259967310    -0.106605371591    -0.586227910572
    C           -1.608927802405     0.225920614935     0.007363781679
    H           -3.105181367873    -1.180264512428    -0.642953242271
    H           -3.762300416748     0.281891635144     0.056536656966
    C           -0.450769166363    -0.407761092273    -0.769812966572
    H           -1.488733799982     1.309969046332     0.030219812909
    H           -1.604595857677    -0.103022031248     1.043134750108
    C            0.948936170280     0.055263339275    -0.340753543644
    H           -0.589468447240    -0.156206809941    -1.815893292833
    H           -0.521511359284    -1.490633796491    -0.687783114043
    C            1.225210261494    -0.003946609820     1.165071601830
    H            1.679718420264    -0.542203810976    -0.877478839198
    H            1.096091440260     1.082153847944    -0.674011527444
    C            2.654700022734     0.389794395666     1.558461868539
    H            1.016874848673    -1.006970440048     1.537015526508
    H            0.537826141999     0.660150212438     1.680660667901
    C            3.735018219270    -0.597815109887     1.113437205383
    H            2.699173590773     0.486672863966     2.640552627606
    H            2.878740575576     1.376376015174     1.157348354547
    H            3.533916426859    -1.594105988838     1.498039728373
    H            4.709811630730    -0.293246304755     1.482059805529
    H            3.804562041157    -0.668190925152     0.033231290527

  Mulliken Charges: (a.u.)
   Center  Symbol    Alpha    Beta     Spin     Total
       1     H     0.28334  0.28334  0.00000  0.43332
       2     O     4.36841  4.36841  0.00000 -0.73681
       3     C     2.99623  2.99623  0.00000  0.00754
       4     C     3.17194  3.17194  0.00000 -0.34389
       5     H     0.41634  0.41634  0.00000  0.16733
       6     H     0.42797  0.42797  0.00000  0.14405
       7     C     3.15398  3.15398  0.00000 -0.30797
       8     H     0.42899  0.42899  0.00000  0.14201
       9     H     0.41991  0.41991  0.00000  0.16018
      10     C     3.15482  3.15482  0.00000 -0.30963
      11     H     0.40863  0.40863  0.00000  0.18274
      12     H     0.42359  0.42359  0.00000  0.15282
      13     C     3.15540  3.15540  0.00000 -0.31080
      14     H     0.41874  0.41874  0.00000  0.16252
      15     H     0.42578  0.42578  0.00000  0.14843
      16     C     3.15215  3.15215  0.00000 -0.30430
      17     H     0.42545  0.42545  0.00000  0.14909
      18     H     0.42069  0.42069  0.00000  0.15861
      19     C     3.24088  3.24088  0.00000 -0.48177
      20     H     0.42141  0.42141  0.00000  0.15718
      21     H     0.42370  0.42370  0.00000  0.15260
      22     H     0.42226  0.42226  0.00000  0.15549
      23     H     0.41947  0.41947  0.00000  0.16105
      24     H     0.41990  0.41990  0.00000  0.16019

   Total alpha = 33.00000, Total beta = 33.00000, Total charge =  0.00000
