  ==> Input File <==

--------------------------------------------------------------------------
set {
	reference rhf
	basis 6-31G*
}

set_num_threads( 4 )
memory 2 gb

molecule MOL {
0 1

H	 2.149124	 -1.070450	 0.118839
C	 1.913450	 -0.116906	 -0.369027
C	 0.692068	 0.589600	 0.160137
O	 2.601814	 0.289786	 -1.248166
C	 -0.558097	 -0.297372	 0.091132
H	 0.558495	 1.505602	 -0.403403
H	 0.887141	 0.857751	 1.197862
C	 -1.850991	 0.512573	 -0.019058
H	 -0.476753	 -0.965681	 -0.762987
H	 -0.604799	 -0.930658	 0.975228
C	 -3.096943	 -0.368295	 -0.099594
H	 -1.800724	 1.150330	 -0.898172
H	 -1.931651	 1.177355	 0.838044
H	 -3.060452	 -1.020287	 -0.967456
H	 -3.996858	 0.233488	 -0.175704
H	 -3.191959	 -0.995686	 0.782074

	symmetry c1
}
set optking {
	frozen_dihedral = ("
		6 3 5 9
	")
}

ee = optimize('scf')
oeprop('DIPOLE', 'QUADRUPOLE', 'MULLIKEN_CHARGES')
f=open( 'psi4out.xyz', 'w' )
f.write( "16  " )
f.write( str(ee) + "\n" )
f.write( MOL.save_string_xyz() )
f.close()
--------------------------------------------------------------------------

    Molecular point group: c1
  Charge       = 0
  Multiplicity = 1
  Basis Set: 6-31G*
  Basis Set:
  @DF-RHF Final Energy:  -270.01742612847329
    Total Energy =                       -270.0174261284732893
    Molecular point group: c1
  Basis Set: 6-31G*
  Basis Set:
  Basis Set: 6-31G*
  Basis Set:
  @DF-RHF Final Energy:  -270.01696011706179
    Total Energy =                       -270.0169601170615579
  Basis Set: 6-31G*
  Basis Set:
  Basis Set: 6-31G*
  Basis Set:
  @DF-RHF Final Energy:  -270.01664723034742
    Total Energy =                       -270.0166472303469618
  Basis Set: 6-31G*
  Basis Set:
  Basis Set: 6-31G*
  Basis Set:
  @DF-RHF Final Energy:  -270.01765574933921
    Total Energy =                       -270.0176557493391556
  Basis Set: 6-31G*
  Basis Set:
  @DF-RHF Final Energy:  -270.01764321834503
    Total Energy =                       -270.0176432183449151
  Basis Set: 6-31G*
  Basis Set:
  @DF-RHF Final Energy:  -270.01771902019311
    Total Energy =                       -270.0177190201931126
  Basis Set: 6-31G*
  Basis Set:
  Basis Set: 6-31G*
  Basis Set:
  @DF-RHF Final Energy:  -270.01772525288698
    Total Energy =                       -270.0177252528869758
  Basis Set: 6-31G*
  Basis Set:
  Basis Set: 6-31G*
  Basis Set:
  @DF-RHF Final Energy:  -270.01773043362709
    Total Energy =                       -270.0177304336271504
  Basis Set: 6-31G*
  Basis Set:
  Charge       = 0
  Multiplicity = 1
  Basis Set: 6-31G*
  Basis Set:

    Orbital Energies (a.u.)
    -----------------------

    Doubly Occupied:

       1A    -20.562067     2A    -11.326947     3A    -11.236491
       4A    -11.235121     5A    -11.229457     6A    -11.218363
       7A     -1.402082     8A     -1.095657     9A     -1.018673
      10A     -0.906269    11A     -0.812558    12A     -0.794748
      13A     -0.675107    14A     -0.647381    15A     -0.630070
      16A     -0.602632    17A     -0.587217    18A     -0.543993
      19A     -0.527965    20A     -0.511962    21A     -0.487050
      22A     -0.483281    23A     -0.473855    24A     -0.409763

  @DF-RHF Final Energy:  -270.01773116997634

   => Energetics <=

    Nuclear Repulsion Energy =            228.7464938397051242
    One-Electron Energy =                -818.6910299229205066
    Two-Electron Energy =                 319.9268049132391525
    DFT Exchange-Correlation Energy =       0.0000000000000000
    Empirical Dispersion Energy =           0.0000000000000000
    PCM Polarization Energy =               0.0000000000000000
    EFP Energy =                            0.0000000000000000
    Total Energy =                       -270.0177311699761731
    Molecular point group: c1
  Basis Set: 6-31G*
  Basis Set:

  -Total Gradient:
     Atom            X                  Y                   Z
    ------   -----------------  -----------------  -----------------
       1       -0.000022508180     0.000001146288     0.000009837615
       2       -0.000004486202     0.000014499276     0.000004510624
       3        0.002229571818    -0.002751725528    -0.003397826185
       4       -0.000001516173     0.000006842474    -0.000006862719
       5       -0.002470509790     0.003631008708    -0.001869446283
       6       -0.001416474528     0.001686978389     0.003117437662
       7        0.000008633506    -0.000003550546    -0.000002075052
       8        0.000011758985    -0.000011485716    -0.000024456482
       9        0.001662390794    -0.002576636715     0.002162678638
      10        0.000005737118    -0.000002705938    -0.000002824981
      11       -0.000001865838     0.000005874779     0.000009499439
      12       -0.000007045765     0.000009310684    -0.000006307249
      13        0.000005787288    -0.000011498721    -0.000001165561
      14        0.000007771933     0.000003869229     0.000005402640
      15       -0.000001966722    -0.000000370333    -0.000002271673
      16       -0.000005278255    -0.000001556332     0.000003869567

  **** Optimization is complete! (in 9 steps) ****
    Final optimized geometry and variables:
    Molecular point group: c1

    Geometry (in Angstrom), charge = 0, multiplicity = 1:

    H            2.121113456213    -1.227891442535     0.303786264884
    C            1.970043199472    -0.221867399642    -0.105701662921
    C            0.724727204426     0.481491225239     0.364149767287
    O            2.761763175230     0.239765688504    -0.862101821704
    C           -0.530628222331    -0.405260975734     0.276047330604
    H            0.606776071642     1.404466108247    -0.191753627653
    H            0.886035314082     0.767917299790     1.402964986486
    C           -1.825309780269     0.403084464751     0.198383575087
    H           -0.456410349919    -1.074440166778    -0.579273166142
    H           -0.567139110567    -1.058091541482     1.145462476303
    C           -3.073529096172    -0.477247757028     0.170234961630
    H           -1.802162749226     1.029788813964    -0.689580996443
    H           -1.876658478549     1.078939431813     1.049239062300
    H           -3.062584083032    -1.145323951617    -0.686108153173
    H           -3.974494693984     0.124562765291     0.108561859570
    H           -3.144096081976    -1.088056574502     1.065659473462

  Mulliken Charges: (a.u.)
   Center  Symbol    Alpha    Beta     Spin     Total
       1     H     0.43161  0.43161  0.00000  0.13679
       2     C     2.82966  2.82966  0.00000  0.34068
       3     C     3.21033  3.21033  0.00000 -0.42065
       4     O     4.23830  4.23830  0.00000 -0.47659
       5     C     3.16445  3.16445  0.00000 -0.32890
       6     H     0.39873  0.39873  0.00000  0.20254
       7     H     0.40670  0.40670  0.00000  0.18661
       8     C     3.15238  3.15238  0.00000 -0.30476
       9     H     0.41561  0.41561  0.00000  0.16877
      10     H     0.41788  0.41788  0.00000  0.16424
      11     C     3.24082  3.24082  0.00000 -0.48165
      12     H     0.41733  0.41733  0.00000  0.16535
      13     H     0.42000  0.42000  0.00000  0.16000
      14     H     0.41947  0.41947  0.00000  0.16106
      15     H     0.41623  0.41623  0.00000  0.16754
      16     H     0.42051  0.42051  0.00000  0.15898

   Total alpha = 24.00000, Total beta = 24.00000, Total charge =  0.00000
