  ==> Input File <==

--------------------------------------------------------------------------
set {
	reference rhf
	basis 6-31G*
}

set_num_threads( 4 )
memory 2 gb

molecule MOL {
0 1

H	 -2.752471	 0.634570	 -0.221553
N	 -1.774435	 0.735847	 -0.031386
C	 -1.016471	 0.826333	 -1.266865
H	 -1.484146	 -0.074825	 0.480133
C	 0.461879	 0.940384	 -0.959277
H	 -1.164013	 -0.022843	 -1.935545
H	 -1.328108	 1.719025	 -1.800499
O	 0.874168	 -0.245412	 -0.342030
H	 1.026387	 1.100251	 -1.877652
H	 0.633909	 1.788422	 -0.300133
C	 2.202317	 -0.244239	 0.074611
H	 2.711377	 -1.041390	 -0.449894
H	 2.692099	 0.699270	 -0.159667
H	 2.283185	 -0.418429	 1.145558

	symmetry c1
}
set optking {
	frozen_dihedral = ("
		5 8 11 13
	")
}

ee = optimize('scf')
oeprop('DIPOLE', 'QUADRUPOLE', 'MULLIKEN_CHARGES')
f=open( 'psi4out.xyz', 'w' )
f.write( "14  " )
f.write( str(ee) + "\n" )
f.write( MOL.save_string_xyz() )
f.close()
--------------------------------------------------------------------------

    Molecular point group: c1
  Charge       = 0
  Multiplicity = 1
  Basis Set: 6-31G*
  Basis Set:
  @DF-RHF Final Energy:  -248.12087023894526
    Total Energy =                       -248.1208702389450877
    Molecular point group: c1
  Basis Set: 6-31G*
  Basis Set:
  Basis Set: 6-31G*
  Basis Set:
  @DF-RHF Final Energy:  -248.12126738193339
    Total Energy =                       -248.1212673819336487
  Basis Set: 6-31G*
  Basis Set:
  Basis Set: 6-31G*
  Basis Set:
  @DF-RHF Final Energy:  -248.12139278461095
    Total Energy =                       -248.1213927846112028
  Basis Set: 6-31G*
  Basis Set:
  Charge       = 0
  Multiplicity = 1
  Basis Set: 6-31G*
  Basis Set:

    Orbital Energies (a.u.)
    -----------------------

    Doubly Occupied:

       1A    -20.553506     2A    -15.527893     3A    -11.266126
       4A    -11.265789     5A    -11.240183     6A     -1.376140
       7A     -1.173025     8A     -0.998848     9A     -0.907478
      10A     -0.814693    11A     -0.682195    12A     -0.671205
      13A     -0.642664    14A     -0.609586    15A     -0.605124
      16A     -0.538690    17A     -0.535852    18A     -0.496348
      19A     -0.471361    20A     -0.411810    21A     -0.379611

  @DF-RHF Final Energy:  -248.12139365025413

   => Energetics <=

    Nuclear Repulsion Energy =            194.3781901592593897
    One-Electron Energy =                -722.6629124716378101
    Two-Electron Energy =                 280.1633286621245702
    DFT Exchange-Correlation Energy =       0.0000000000000000
    Empirical Dispersion Energy =           0.0000000000000000
    PCM Polarization Energy =               0.0000000000000000
    EFP Energy =                            0.0000000000000000
    Total Energy =                       -248.1213936502538786
    Molecular point group: c1
  Basis Set: 6-31G*
  Basis Set:

  -Total Gradient:
     Atom            X                  Y                   Z
    ------   -----------------  -----------------  -----------------
       1        0.000013238018     0.000009424155    -0.000023991937
       2        0.000027129706    -0.000002062126    -0.000016508603
       3       -0.000048082408     0.000020090162    -0.000028591570
       4        0.000012239493     0.000014985216    -0.000009779246
       5       -0.000079667281     0.000035851581     0.000076965419
       6       -0.000001078564     0.000006541730     0.000017179604
       7       -0.000050250425     0.000013678544    -0.000014681156
       8        0.000190210739    -0.000014126162    -0.000003286124
       9       -0.000007125790    -0.000033017102     0.000034150307
      10        0.000014786718     0.000003948674    -0.000012147071
      11       -0.000036868396    -0.000080314893    -0.000004306816
      12        0.000025224186    -0.000007757949     0.000006047592
      13       -0.000039780807     0.000015914863    -0.000027827099
      14       -0.000019975193     0.000016843310     0.000006776699

  **** Optimization is complete! (in 4 steps) ****
    Final optimized geometry and variables:
    Molecular point group: c1

    Geometry (in Angstrom), charge = 0, multiplicity = 1:

    H           -2.903929775758     0.228371587561     0.285482204263
    N           -1.925606757927     0.339404853144     0.468391932398
    C           -1.177890684434     0.437613144129    -0.772682360442
    H           -1.623172460431    -0.468783767439     0.976711695662
    C            0.301600441894     0.566473773853    -0.476959925464
    H           -1.322160689844    -0.412878990190    -1.440320323228
    H           -1.502249002072     1.327358033728    -1.303851591569
    O            0.725082974923    -0.616931068059     0.140201522441
    H            0.854606067173     0.729506913240    -1.401096130254
    H            0.468375283724     1.417613284185     0.178266526768
    C            2.055003645618    -0.647649996946     0.569840685422
    H            2.580332428685    -1.456596926293     0.073414768978
    H            2.571857112112     0.281584493444     0.351612255140
    H            2.089064260708    -0.814874149966     1.640960315625

  Mulliken Charges: (a.u.)
   Center  Symbol    Alpha    Beta     Spin     Total
       1     H     0.33296  0.33296  0.00000  0.33408
       2     N     3.92530  3.92530  0.00000 -0.85061
       3     C     3.06899  3.06899  0.00000 -0.13797
       4     H     0.32361  0.32361  0.00000  0.35278
       5     C     2.98973  2.98973  0.00000  0.02055
       6     H     0.42669  0.42669  0.00000  0.14663
       7     H     0.42071  0.42071  0.00000  0.15859
       8     O     4.31484  4.31484  0.00000 -0.62968
       9     H     0.43100  0.43100  0.00000  0.13801
      10     H     0.42220  0.42220  0.00000  0.15560
      11     C     3.07533  3.07533  0.00000 -0.15066
      12     H     0.42072  0.42072  0.00000  0.15857
      13     H     0.42823  0.42823  0.00000  0.14355
      14     H     0.41971  0.41971  0.00000  0.16057

   Total alpha = 21.00000, Total beta = 21.00000, Total charge =  0.00000
