                              Psi4 1.0.54 Driver

  ==> Input File <==

--------------------------------------------------------------------------
set {
	reference rhf
	basis cc-pvtz
}

set_num_threads( 4 )
memory 2 gb

molecule MOL {
0 1

H	 -4.178293	 0.645092	 -0.236624
O	 -3.515113	 -0.019339	 -0.206321
C	 -2.302264	 0.528872	 0.237390
C	 -1.175688	 -0.398187	 -0.171891
H	 -2.148018	 1.514076	 -0.197759
H	 -2.310727	 0.646384	 1.319032
C	 0.196029	 0.106276	 0.266738
H	 -1.201873	 -0.515469	 -1.250677
H	 -1.365975	 -1.378728	 0.252664
C	 1.330220	 -0.826136	 -0.155230
H	 0.359542	 1.097229	 -0.145561
H	 0.212134	 0.218135	 1.348778
C	 2.719700	 -0.407669	 0.328325
H	 1.339388	 -0.911200	 -1.239363
H	 1.119001	 -1.821953	 0.224128
C	 3.241564	 0.893452	 -0.276737
H	 3.418299	 -1.204729	 0.093035
H	 2.711776	 -0.323368	 1.411960
H	 3.254204	 0.841071	 -1.360784
H	 2.634460	 1.745075	 0.005842
H	 4.254264	 1.092401	 0.054971

	symmetry c1
}
set optking {
	frozen_dihedral = ("
		1 2 3 5
	")
}

ee,wfn = optimize('scf', return_wfn=True)
oeprop( wfn, 'DIPOLE', 'QUADRUPOLE', 'MULLIKEN_CHARGES')
f=open( 'psi4out.xyz', 'w' )
f.write( "21  " )
f.write( str(ee) + "\n" )
f.write( MOL.save_string_xyz() )
f.close()
--------------------------------------------------------------------------

    Molecular point group: c1
  Charge       = 0
  Multiplicity = 1
  Basis Set: CC-PVTZ
  Basis Set:
  @DF-RHF Final Energy:  -310.33263705016958
    Total Energy =                       -310.3326370501694669
    Molecular point group: c1
  Basis Set: CC-PVTZ
  Basis Set:
  Basis Set: CC-PVTZ
  Basis Set:
  @DF-RHF Final Energy:  -310.33265974154841
    Total Energy =                       -310.3326597415482979
  Basis Set: CC-PVTZ
  Basis Set:
  Basis Set: CC-PVTZ
  Basis Set:
  @DF-RHF Final Energy:  -310.33266896776252
    Total Energy =                       -310.3326689677629702
  Basis Set: CC-PVTZ
  Basis Set:
  Basis Set: CC-PVTZ
  Basis Set:
  @DF-RHF Final Energy:  -310.33266769042081
    Total Energy =                       -310.3326676904207488
  Basis Set: CC-PVTZ
  Basis Set:
  Charge       = 0
  Multiplicity = 1
  Basis Set: CC-PVTZ
  Basis Set:

    Orbital Energies (a.u.)
    -----------------------

    Doubly Occupied:

       1A    -20.545053     2A    -11.265069     3A    -11.213218
       4A    -11.213118     5A    -11.211352     6A    -11.208972
       7A    -11.206219     8A     -1.362837     9A     -1.087495
      10A     -1.034499    11A     -0.955590    12A     -0.876620
      13A     -0.808016    14A     -0.779297    15A     -0.698010
      16A     -0.660312    17A     -0.623855    18A     -0.606257
      19A     -0.589443    20A     -0.572340    21A     -0.536458
      22A     -0.521453    23A     -0.512670    24A     -0.484965
      25A     -0.482555    26A     -0.461192    27A     -0.456352
      28A     -0.447909    29A     -0.433257

  @DF-RHF Final Energy:  -310.33266970119791

   => Energetics <=

    Nuclear Repulsion Energy =            312.8691327025402416
    One-Electron Energy =               -1040.6948315388794981
    Two-Electron Energy =                 417.4930291351413985
    DFT Exchange-Correlation Energy =       0.0000000000000000
    Empirical Dispersion Energy =           0.0000000000000000
    PCM Polarization Energy =               0.0000000000000000
    EFP Energy =                            0.0000000000000000
    Total Energy =                       -310.3326697011978581
    Molecular point group: c1
  Basis Set: CC-PVTZ
  Basis Set:

  -Total Gradient:
     Atom            X                  Y                   Z
    ------   -----------------  -----------------  -----------------
       1        0.000285881825     0.000248458305    -0.001207847148
       2       -0.000505777892    -0.000193661791     0.001703027724
       3        0.000708415118    -0.000523371635    -0.001348964413
       4       -0.000009202164     0.000000242139     0.000004533746
       5       -0.000491676485     0.000453904617     0.000855820428
       6        0.000012188037     0.000001875289    -0.000001865206
       7       -0.000001187963     0.000008779747    -0.000012283170
       8       -0.000001697510     0.000005081330     0.000004118234
       9       -0.000003424964     0.000001438988    -0.000001185850
      10       -0.000001521246    -0.000002344224     0.000006672282
      11        0.000001930895     0.000001862682     0.000000952148
      12        0.000000791148    -0.000001862365    -0.000005786927
      13        0.000005102223    -0.000004330044    -0.000000893302
      14        0.000000544281     0.000001803079     0.000003098615
      15       -0.000003902725    -0.000000863434    -0.000001680907
      16       -0.000001594632     0.000000716182     0.000002240718
      17        0.000002464138     0.000001651870     0.000000588858
      18        0.000002152896    -0.000000981821    -0.000000587813
      19        0.000001040386    -0.000000975035     0.000001399021
      20        0.000000413966     0.000001245214    -0.000001636447
      21       -0.000000939335     0.000001330905     0.000000279407

  **** Optimization is complete! (in 5 steps) ****
    Final optimized geometry and variables:
    Molecular point group: c1

    Geometry (in Angstrom), charge = 0, multiplicity = 1:

    H           -4.192856412256     0.625634085445    -0.185128830148
    O           -3.522919240733    -0.031669901688    -0.165438733335
    C           -2.301130374988     0.531499075170     0.235594164977
    C           -1.175347603990    -0.394757498918    -0.177376993439
    H           -2.165732915556     1.511892437931    -0.215176276462
    H           -2.289269520460     0.670081708997     1.314812016219
    C            0.197311583118     0.109037751732     0.258789001483
    H           -1.203968808087    -0.513896401228    -1.255828399320
    H           -1.365098259497    -1.374721353241     0.249046448135
    C            1.330270010365    -0.824486167490    -0.163760618509
    H            0.361094786812     1.099639249955    -0.154549315618
    H            0.214649880563     0.221739704819     1.340566394066
    C            2.719810256351    -0.409991934448     0.322966244964
    H            1.340997322901    -0.906993536119    -1.248064620622
    H            1.116328706595    -1.820703423634     0.212945328418
    C            3.244650264252     0.892200120103    -0.277052829573
    H            3.417409890618    -1.207354895674     0.085855311932
    H            2.710629383548    -0.329278567339     1.406822343071
    H            3.257988029650     0.843606695919    -1.361259543180
    H            2.639003771151     1.743962020873     0.008154566734
    H            4.257474788836     1.088009534973     0.056085595287

  Mulliken Charges: (a.u.)
   Center  Symbol    Alpha    Beta     Spin     Total
       1     H     0.39554  0.39554  0.00000  0.20893
       2     O     4.19695  4.19695  0.00000 -0.39391
       3     C     2.96409  2.96409  0.00000  0.07183
       4     C     3.08274  3.08274  0.00000 -0.16547
       5     H     0.47546  0.47546  0.00000  0.04908
       6     H     0.47371  0.47371  0.00000  0.05258
       7     C     3.10335  3.10335  0.00000 -0.20671
       8     H     0.45212  0.45212  0.00000  0.09577
       9     H     0.44993  0.44993  0.00000  0.10013
      10     C     3.09409  3.09409  0.00000 -0.18818
      11     H     0.45398  0.45398  0.00000  0.09204
      12     H     0.45503  0.45503  0.00000  0.08995
      13     C     3.08990  3.08990  0.00000 -0.17980
      14     H     0.45328  0.45328  0.00000  0.09344
      15     H     0.44868  0.44868  0.00000  0.10264
      16     C     3.15241  3.15241  0.00000 -0.30482
      17     H     0.44843  0.44843  0.00000  0.10314
      18     H     0.45487  0.45487  0.00000  0.09025
      19     H     0.45474  0.45474  0.00000  0.09051
      20     H     0.45427  0.45427  0.00000  0.09146
      21     H     0.44643  0.44643  0.00000  0.10715

   Total alpha = 29.00000, Total beta = 29.00000, Total charge = -0.00000

*** Psi4 exiting successfully. Buy a developer a beer!
