  ==> Input File <==

--------------------------------------------------------------------------
set {
	reference rhf
	basis 6-31G*
}

set_num_threads( 1 )
memory 2 gb

molecule MOL {
0 1

H	 -2.153054	 -2.250733	 0.000000
O	 -2.462445	 -1.355403	 0.000000
C	 -1.434260	 -0.483044	 0.000000
C	 -1.747402	 0.872187	 0.000000
C	 -0.112826	 -0.887672	 0.000000
H	 -2.781042	 1.162947	 0.000000
C	 -0.737782	 1.812486	 0.000000
H	 0.142965	 -1.932242	 0.000000
C	 0.894804	 0.073633	 0.000000
H	 -0.988012	 2.857452	 0.000000
C	 0.595063	 1.425424	 0.000000
C	 2.274807	 -0.357748	 0.000000
H	 1.382498	 2.154482	 0.000000
N	 3.358508	 -0.699063	 0.000888

	symmetry c1
}
set optking {
	frozen_dihedral = ("
		5 3 2 1
	")
}

ee = energy('scf')
oeprop('DIPOLE', 'QUADRUPOLE', 'MULLIKEN_CHARGES')
f=open( 'psi4out.xyz', 'w' )
f.write( "14  " )
f.write( str(ee) + "\n" )
f.write( MOL.save_string_xyz() )
f.close()
--------------------------------------------------------------------------

    Molecular point group: c1

    Geometry (in Angstrom), charge = 0, multiplicity = 1:

       Center              X                  Y                   Z               Mass
    ------------   -----------------  -----------------  -----------------  -----------------
           H         -2.153059356742    -2.250750629336    -0.000104460948     1.007825032070
           O         -2.462450356742    -1.355420629336    -0.000104460948    15.994914619560
           C         -1.434265356742    -0.483061629336    -0.000104460948    12.000000000000
           C         -1.747407356742     0.872169370664    -0.000104460948    12.000000000000
           C         -0.112831356742    -0.887689629336    -0.000104460948    12.000000000000
           H         -2.781047356742     1.162929370664    -0.000104460948     1.007825032070
           C         -0.737787356742     1.812468370664    -0.000104460948    12.000000000000
           H          0.142959643258    -1.932259629336    -0.000104460948     1.007825032070
           C          0.894798643258     0.073615370664    -0.000104460948    12.000000000000
           H         -0.988017356742     2.857434370664    -0.000104460948     1.007825032070
           C          0.595057643258     1.425406370664    -0.000104460948    12.000000000000
           C          2.274801643258    -0.357765629336    -0.000104460948    12.000000000000
           H          1.382492643258     2.154464370664    -0.000104460948     1.007825032070
           N          3.358502643258    -0.699080629336     0.000783539052    14.003074004780

  Charge       = 0
  Multiplicity = 1
  Basis Set: 6-31G*
  Basis Set:

    Orbital Energies (a.u.)
    -----------------------

    Doubly Occupied:

       1A    -20.613357     2A    -15.576095     3A    -11.326476
       4A    -11.295199     5A    -11.277356     6A    -11.263924
       7A    -11.262491     8A    -11.259237     9A    -11.253929
      10A     -1.433722    11A     -1.233859    12A     -1.182278
      13A     -1.063258    14A     -1.039161    15A     -0.896240
      16A     -0.867774    17A     -0.778125    18A     -0.726558
      19A     -0.700218    20A     -0.664097    21A     -0.627028
      22A     -0.613997    23A     -0.592982    24A     -0.562273
      25A     -0.550741    26A     -0.538998    27A     -0.527026
      28A     -0.473335    29A     -0.473315    30A     -0.363597
      31A     -0.336673

  @DF-RHF Final Energy:  -397.29196369490410

   => Energetics <=

    Nuclear Repulsion Energy =            379.4053733996537403
    One-Electron Energy =               -1290.6480323653056530
    Two-Electron Energy =                 513.9506952707472465
    DFT Exchange-Correlation Energy =       0.0000000000000000
    Empirical Dispersion Energy =           0.0000000000000000
    PCM Polarization Energy =               0.0000000000000000
    EFP Energy =                            0.0000000000000000
    Total Energy =                       -397.2919636949046662

  Mulliken Charges: (a.u.)
   Center  Symbol    Alpha    Beta     Spin     Total
       1     H     0.26830  0.26830  0.00000  0.46340
       2     O     4.37595  4.37595  0.00000 -0.75190
       3     C     2.79154  2.79154  0.00000  0.41691
       4     C     3.11408  3.11408  0.00000 -0.22817
       5     C     3.13441  3.13441  0.00000 -0.26882
       6     H     0.38292  0.38292  0.00000  0.23416
       7     C     3.09573  3.09573  0.00000 -0.19147
       8     H     0.38533  0.38533  0.00000  0.22934
       9     C     2.99113  2.99113  0.00000  0.01775
      10     H     0.38857  0.38857  0.00000  0.22287
      11     C     3.09897  3.09897  0.00000 -0.19794
      12     C     2.86663  2.86663  0.00000  0.26674
      13     H     0.38127  0.38127  0.00000  0.23746
      14     N     3.72517  3.72517  0.00000 -0.45034

   Total alpha = 31.00000, Total beta = 31.00000, Total charge =  0.00000
