                              Psi4 1.0.54 Driver

  ==> Input File <==

--------------------------------------------------------------------------
set {
	reference rhf
	basis cc-pvtz
}

set_num_threads( 4 )
memory 2 gb

molecule MOL {
0 1

H	 -2.597417	 -0.468752	 0.134998
N	 -1.851927	 0.161443	 -0.071573
C	 -0.561396	 -0.500007	 0.035200
H	 -1.918744	 0.919183	 0.575500
C	 0.575129	 0.507849	 -0.048832
H	 -0.478089	 -1.200753	 -0.788956
H	 -0.456191	 -1.081816	 0.952176
C	 1.951750	 -0.141983	 0.035101
H	 0.478254	 1.061643	 -0.975981
H	 0.467676	 1.231891	 0.755499
H	 2.101550	 -0.848142	 -0.774949
H	 2.738260	 0.600794	 -0.026526
H	 2.078939	 -0.679792	 0.968824

	symmetry c1
}
set optking {
	frozen_dihedral = ("
		1 2 3 6
	")
}

ee,wfn = optimize('scf', return_wfn=True)
oeprop( wfn, 'DIPOLE', 'QUADRUPOLE', 'MULLIKEN_CHARGES')
f=open( 'psi4out.xyz', 'w' )
f.write( "13  " )
f.write( str(ee) + "\n" )
f.write( MOL.save_string_xyz() )
f.close()
--------------------------------------------------------------------------

    Molecular point group: c1
  Charge       = 0
  Multiplicity = 1
  Basis Set: CC-PVTZ
  Basis Set:
  @DF-RHF Final Energy:  -173.35220358708611
    Total Energy =                       -173.3522035870859952
    Molecular point group: c1
  Basis Set: CC-PVTZ
  Basis Set:
  Basis Set: CC-PVTZ
  Basis Set:
  @DF-RHF Final Energy:  -173.35224979696059
    Total Energy =                       -173.3522497969605070
  Basis Set: CC-PVTZ
  Basis Set:
  Basis Set: CC-PVTZ
  Basis Set:
  @DF-RHF Final Energy:  -173.35225482069279
    Total Energy =                       -173.3522548206927922
  Basis Set: CC-PVTZ
  Basis Set:
  Charge       = 0
  Multiplicity = 1
  Basis Set: CC-PVTZ
  Basis Set:

    Orbital Energies (a.u.)
    -----------------------

    Doubly Occupied:

       1A    -15.526910     2A    -11.238222     3A    -11.212386
       4A    -11.208043     5A     -1.178852     6A     -1.037241
       7A     -0.899661     8A     -0.801973     9A     -0.656582
      10A     -0.637547    11A     -0.604126    12A     -0.563772
      13A     -0.535635    14A     -0.493657    15A     -0.476660
      16A     -0.469432    17A     -0.385869

  @DF-RHF Final Energy:  -173.35225533044112

   => Energetics <=

    Nuclear Repulsion Energy =            132.0572399553211937
    One-Electron Energy =                -494.9658567855649949
    Two-Electron Energy =                 189.5563614998026196
    DFT Exchange-Correlation Energy =       0.0000000000000000
    Empirical Dispersion Energy =           0.0000000000000000
    PCM Polarization Energy =               0.0000000000000000
    EFP Energy =                            0.0000000000000000
    Total Energy =                       -173.3522553304411531
    Molecular point group: c1
  Basis Set: CC-PVTZ
  Basis Set:

  -Total Gradient:
     Atom            X                  Y                   Z
    ------   -----------------  -----------------  -----------------
       1        0.000053097000     0.000450168383     0.001683229364
       2        0.000127348428    -0.000353254204    -0.002323484232
       3       -0.000869012734    -0.001257360121     0.001502909140
       4        0.000007301464     0.000004354733     0.000012840394
       5        0.000005024796     0.000014723612     0.000018623902
       6        0.000648019476     0.001124474455    -0.000876393950
       7        0.000001807194     0.000004538353    -0.000013941705
       8        0.000009983361    -0.000004333136    -0.000008955710
       9        0.000003287276     0.000000546184     0.000000769044
      10        0.000008546231     0.000017284839     0.000001927199
      11        0.000001267345    -0.000002457447     0.000000764494
      12       -0.000001092935     0.000000660016    -0.000001737275
      13        0.000004423098     0.000000654332     0.000003449336

  **** Optimization is complete! (in 4 steps) ****
    Final optimized geometry and variables:
    Molecular point group: c1

    Geometry (in Angstrom), charge = 0, multiplicity = 1:

    H           -2.600591208740    -0.469986245178     0.113135909009
    N           -1.852179347943     0.160363498294    -0.084783346927
    C           -0.563529839106    -0.503142329718     0.044326465315
    H           -1.927697038759     0.905412294811     0.576857652493
    C            0.573477519287     0.504486354998    -0.043168741330
    H           -0.465411489380    -1.208124715148    -0.774760349965
    H           -0.467238826214    -1.070773772398     0.970364171617
    C            1.950044298231    -0.146647896464     0.028820075949
    H            0.472534714664     1.060823861613    -0.968754421849
    H            0.473260363354     1.226032282060     0.764523746126
    H            2.093682700997    -0.849359992044    -0.785095010409
    H            2.736446974374     0.596062726177    -0.034827945390
    H            2.082553721423    -0.688124754174     0.959625239373

  Mulliken Charges: (a.u.)
   Center  Symbol    Alpha    Beta     Spin     Total
       1     H     0.43124  0.43124  0.00000  0.13753
       2     N     3.68773  3.68773  0.00000 -0.37546
       3     C     3.01886  3.01886  0.00000 -0.03771
       4     H     0.43184  0.43184  0.00000  0.13633
       5     C     3.08087  3.08087  0.00000 -0.16174
       6     H     0.45879  0.45879  0.00000  0.08243
       7     H     0.47017  0.47017  0.00000  0.05967
       8     C     3.15219  3.15219  0.00000 -0.30439
       9     H     0.44860  0.44860  0.00000  0.10281
      10     H     0.46077  0.46077  0.00000  0.07845
      11     H     0.45447  0.45447  0.00000  0.09106
      12     H     0.44777  0.44777  0.00000  0.10446
      13     H     0.45672  0.45672  0.00000  0.08656

   Total alpha = 17.00000, Total beta = 17.00000, Total charge = -0.00000

*** Psi4 exiting successfully. Buy a developer a beer!
