                              Psi4 1.0.54 Driver

  ==> Input File <==

--------------------------------------------------------------------------
set {
	reference rhf
	basis cc-pvtz
}

set_num_threads( 4 )
memory 2 gb

molecule MOL {
0 1

O	 1.799670	 1.377669	 -0.294405
C	 1.565035	 0.360836	 -0.853007
C	 0.244679	 -0.365680	 -0.831230
O	 2.456401	 -0.284454	 -1.587502
C	 -0.824290	 0.329213	 -0.000115
H	 -0.073616	 -0.483500	 -1.861888
H	 0.436634	 -1.369010	 -0.465273
C	 -2.146151	 -0.432825	 -0.000068
H	 -0.977521	 1.332334	 -0.381614
H	 -0.466561	 0.446028	 1.016583
C	 -3.366283	 0.483552	 0.000557
H	 -2.189286	 -1.084450	 -0.869996
H	 -2.188867	 -1.085083	 0.869399
C	 -4.687436	 -0.278003	 0.000108
H	 -3.325150	 1.134819	 -0.867957
H	 -3.325087	 1.133730	 0.869885
H	 -4.773783	 -0.912098	 -0.876078
H	 -5.531922	 0.401392	 0.000363
H	 -4.773901	 -0.912898	 0.875703
C	 3.744325	 0.287269	 -1.695717
H	 3.689561	 1.268421	 -2.143550
H	 4.313250	 -0.377779	 -2.324909
H	 4.208134	 0.368914	 -0.723900

	symmetry c1
}
set optking {
	frozen_dihedral = ("
		9 5 8 12
	")
}

ee,wfn = optimize('scf', return_wfn=True)
oeprop( wfn, 'DIPOLE', 'QUADRUPOLE', 'MULLIKEN_CHARGES')
f=open( 'psi4out.xyz', 'w' )
f.write( "23  " )
f.write( str(ee) + "\n" )
f.write( MOL.save_string_xyz() )
f.close()
--------------------------------------------------------------------------

    Molecular point group: c1
  Charge       = 0
  Multiplicity = 1
  Basis Set: CC-PVTZ
  Basis Set:
  @DF-RHF Final Energy:  -423.12729202954057
    Total Energy =                       -423.1272920295408539
    Molecular point group: c1
  Basis Set: CC-PVTZ
  Basis Set:
  Basis Set: CC-PVTZ
  Basis Set:
  @DF-RHF Final Energy:  -423.12756210239837
    Total Energy =                       -423.1275621023979738
  Basis Set: CC-PVTZ
  Basis Set:
  Basis Set: CC-PVTZ
  Basis Set:
  @DF-RHF Final Energy:  -423.12743213526289
    Total Energy =                       -423.1274321352630068
  Basis Set: CC-PVTZ
  Basis Set:
  Basis Set: CC-PVTZ
  Basis Set:
  @DF-RHF Final Energy:  -423.12765793791539
    Total Energy =                       -423.1276579379153873
  Basis Set: CC-PVTZ
  Basis Set:
  Basis Set: CC-PVTZ
  Basis Set:
  @DF-RHF Final Energy:  -423.12766637179107
    Total Energy =                       -423.1276663717907240
  Basis Set: CC-PVTZ
  Basis Set:
  Charge       = 0
  Multiplicity = 1
  Basis Set: CC-PVTZ
  Basis Set:

    Orbital Energies (a.u.)
    -----------------------

    Doubly Occupied:

       1A    -20.596349     2A    -20.534214     3A    -11.364559
       4A    -11.278514     5A    -11.234372     6A    -11.216818
       7A    -11.215716     8A    -11.215103     9A    -11.207875
      10A     -1.472239    11A     -1.365834    12A     -1.093155
      13A     -1.045022    14A     -0.987654    15A     -0.932584
      16A     -0.845105    17A     -0.796329    18A     -0.769602
      19A     -0.700809    20A     -0.686044    21A     -0.675961
      22A     -0.645677    23A     -0.613266    24A     -0.600794
      25A     -0.573886    26A     -0.560688    27A     -0.556285
      28A     -0.527397    29A     -0.523023    30A     -0.505801
      31A     -0.487355    32A     -0.471015    33A     -0.465311
      34A     -0.462894    35A     -0.455753    36A     -0.438320

  @DF-RHF Final Energy:  -423.12766680678970

   => Energetics <=

    Nuclear Repulsion Energy =            452.8872594802306253
    One-Electron Energy =               -1473.7871988876604519
    Two-Electron Energy =                 597.7722726006398943
    DFT Exchange-Correlation Energy =       0.0000000000000000
    Empirical Dispersion Energy =           0.0000000000000000
    PCM Polarization Energy =               0.0000000000000000
    EFP Energy =                            0.0000000000000000
    Total Energy =                       -423.1276668067899891
    Molecular point group: c1
  Basis Set: CC-PVTZ
  Basis Set:

  -Total Gradient:
     Atom            X                  Y                   Z
    ------   -----------------  -----------------  -----------------
       1       -0.000005118537     0.000020285617     0.000004067333
       2        0.000029687995    -0.000012716730     0.000006600297
       3        0.000021880702     0.000007603454     0.000021289561
       4       -0.000002857659    -0.000014385547    -0.000012009818
       5        0.001409639819    -0.002456328131    -0.004459567865
       6       -0.000013803798     0.000010485699    -0.000002526488
       7       -0.000000226996    -0.000006179582     0.000000320492
       8       -0.002464235939     0.004223440538    -0.001819756367
       9       -0.000754266172     0.001382718581     0.003984200190
      10        0.000012680532    -0.000005639795    -0.000007800027
      11        0.000010961047    -0.000018162676     0.000055194875
      12        0.001832774091    -0.003148453973     0.002241062611
      13       -0.000024644262     0.000004528529     0.000004855688
      14       -0.000044938041     0.000011452859    -0.000027489214
      15        0.000018588527     0.000011269415    -0.000023761404
      16        0.000007729954     0.000016118930     0.000030706787
      17       -0.000011342167    -0.000019107420    -0.000022509675
      18       -0.000029054491    -0.000002944836    -0.000007883702
      19        0.000000070587    -0.000010599559     0.000033469699
      20        0.000005740880     0.000002840327    -0.000002270421
      21       -0.000001104711     0.000005408562    -0.000003212557
      22       -0.000001259932    -0.000002517700    -0.000002883508
      23        0.000003098574     0.000000883436     0.000009903510

  **** Optimization is complete! (in 6 steps) ****
    Final optimized geometry and variables:
    Molecular point group: c1

    Geometry (in Angstrom), charge = 0, multiplicity = 1:

    O            1.901672593320     1.204035828303     0.317809435961
    C            1.674177664705     0.193629624645    -0.255227966554
    C            0.345365732446    -0.517259091828    -0.283268472590
    O            2.581949405341    -0.457198615514    -0.964382977686
    C           -0.743790301838     0.184240998548     0.512974889576
    H            0.061386462929    -0.626877634163    -1.324624391085
    H            0.511963935572    -1.524636829667     0.084756071525
    C           -2.071022357511    -0.587940294194     0.523466784450
    H           -0.895586415047     1.188967849755     0.135956562602
    H           -0.399494996719     0.324107347496     1.530978035745
    C           -3.300997323499     0.310858696692     0.589211921915
    H           -2.132027089451    -1.242317598664    -0.342777122769
    H           -2.080340927925    -1.260545925179     1.377668000161
    C           -4.609885564096    -0.466850352107     0.670598095494
    H           -3.317440020311     0.956813997274    -0.284179411446
    H           -3.216414270425     0.967828068569     1.450673629005
    H           -4.734853282979    -1.113920677993    -0.191484382688
    H           -5.462096037615     0.201865265889     0.707804884589
    H           -4.640262379266    -1.090797678558     1.557674968202
    C            3.879028752670     0.100420273299    -1.026359494453
    H            3.850083059854     1.085045883505    -1.469001186584
    H            4.460865277341    -0.566965718028    -1.641134182042
    H            4.311613205604     0.170443018700    -0.039324149726

  Mulliken Charges: (a.u.)
   Center  Symbol    Alpha    Beta     Spin     Total
       1     O     4.19672  4.19672  0.00000 -0.39344
       2     C     2.80803  2.80803  0.00000  0.38393
       3     C     3.09988  3.09988  0.00000 -0.19977
       4     O     4.14674  4.14674  0.00000 -0.29347
       5     C     3.08762  3.08762  0.00000 -0.17523
       6     H     0.43986  0.43986  0.00000  0.12028
       7     H     0.43877  0.43877  0.00000  0.12246
       8     C     3.09132  3.09132  0.00000 -0.18263
       9     H     0.44655  0.44655  0.00000  0.10690
      10     H     0.44494  0.44494  0.00000  0.11013
      11     C     3.08367  3.08367  0.00000 -0.16734
      12     H     0.45645  0.45645  0.00000  0.08710
      13     H     0.45336  0.45336  0.00000  0.09328
      14     C     3.15033  3.15033  0.00000 -0.30065
      15     H     0.45406  0.45406  0.00000  0.09187
      16     H     0.45182  0.45182  0.00000  0.09636
      17     H     0.45534  0.45534  0.00000  0.08933
      18     H     0.44790  0.44790  0.00000  0.10419
      19     H     0.45489  0.45489  0.00000  0.09022
      20     C     3.03778  3.03778  0.00000 -0.07555
      21     H     0.45434  0.45434  0.00000  0.09131
      22     H     0.44531  0.44531  0.00000  0.10938
      23     H     0.45432  0.45432  0.00000  0.09135

   Total alpha = 36.00000, Total beta = 36.00000, Total charge =  0.00000

*** Psi4 exiting successfully. Buy a developer a beer!
