  ==> Input File <==

--------------------------------------------------------------------------
set {
	reference rhf
	basis 6-31G*
}

set_num_threads( 1 )
memory 2 gb

molecule MOL {
0 1

O	 -1.080905	 1.071153	 2.571979
C	 -0.541975	 1.609179	 1.653003
C	 0.718282	 1.025070	 1.039103
C	 -1.098495	 2.872496	 1.035192
C	 0.379448	 -0.143569	 0.099626
H	 1.343941	 0.667883	 1.849827
H	 1.269268	 1.788911	 0.497820
C	 1.631333	 -0.777471	 -0.511575
H	 -0.184059	 -0.878298	 0.663557
H	 -0.271797	 0.206092	 -0.699976
C	 2.915987	 -0.544314	 0.291766
H	 1.766672	 -0.399098	 -1.523130
H	 1.471257	 -1.849544	 -0.605828
C	 3.373361	 0.914346	 0.347591
H	 3.708709	 -1.142521	 -0.150311
H	 2.780642	 -0.921148	 1.303579
H	 3.506512	 1.320010	 -0.651625
H	 4.322697	 0.999599	 0.867103
H	 2.660624	 1.545032	 0.868198
H	 -0.411955	 3.697030	 1.208601
H	 -2.058782	 3.106856	 1.473038
H	 -1.200437	 2.761768	 -0.040518

	symmetry c1
}
set optking {
	frozen_dihedral = ("
		6 3 2 1,
		6 3 5 8,
		12 8 11 15
	")
}

ee = energy('scf')
oeprop('DIPOLE', 'QUADRUPOLE', 'MULLIKEN_CHARGES')
f=open( 'psi4out.xyz', 'w' )
f.write( "22  " )
f.write( str(ee) + "\n" )
f.write( MOL.save_string_xyz() )
f.close()
--------------------------------------------------------------------------

    Molecular point group: c1

    Geometry (in Angstrom), charge = 0, multiplicity = 1:

       Center              X                  Y                   Z               Mass
    ------------   -----------------  -----------------  -----------------  -----------------
           O         -1.870496841290     0.303525460601     1.750845587423    15.994914619560
           C         -1.331566841290     0.841551460601     0.831869587423    12.000000000000
           C         -0.071309841290     0.257442460601     0.217969587423    12.000000000000
           C         -1.888086841290     2.104868460601     0.214058587423    12.000000000000
           C         -0.410143841290    -0.911196539399    -0.721507412577    12.000000000000
           H          0.554349158710    -0.099744539399     1.028693587423     1.007825032070
           H          0.479676158710     1.021283460601    -0.323313412577     1.007825032070
           C          0.841741158710    -1.545098539399    -1.332708412577    12.000000000000
           H         -0.973650841290    -1.645925539399    -0.157576412577     1.007825032070
           H         -1.061388841290    -0.561535539399    -1.521109412577     1.007825032070
           C          2.126395158710    -1.311941539399    -0.529367412577    12.000000000000
           H          0.977080158710    -1.166725539399    -2.344263412577     1.007825032070
           H          0.681665158710    -2.617171539399    -1.426961412577     1.007825032070
           C          2.583769158710     0.146718460601    -0.473542412577    12.000000000000
           H          2.919117158710    -1.910148539399    -0.971444412577     1.007825032070
           H          1.991050158710    -1.688775539399     0.482445587423     1.007825032070
           H          2.716920158710     0.552382460601    -1.472758412577     1.007825032070
           H          3.533105158710     0.231971460601     0.045969587423     1.007825032070
           H          1.871032158710     0.777404460601     0.047064587423     1.007825032070
           H         -1.201546841290     2.929402460601     0.387467587423     1.007825032070
           H         -2.848373841290     2.339228460601     0.651904587423     1.007825032070
           H         -1.990028841290     1.994140460601    -0.861651412577     1.007825032070

  Charge       = 0
  Multiplicity = 1
  Basis Set: 6-31G*
  Basis Set:

    Orbital Energies (a.u.)
    -----------------------

    Doubly Occupied:

       1A    -20.545563     2A    -11.322022     3A    -11.229842
       4A    -11.227671     5A    -11.225985     6A    -11.222105
       7A    -11.221511     8A    -11.206474     9A     -1.391585
      10A     -1.105190    11A     -1.036164    12A     -0.996609
      13A     -0.956082    14A     -0.854384    15A     -0.785248
      16A     -0.743090    17A     -0.663996    18A     -0.660140
      19A     -0.624583    20A     -0.601960    21A     -0.596228
      22A     -0.589215    23A     -0.568694    24A     -0.547486
      25A     -0.539843    26A     -0.520836    27A     -0.499771
      28A     -0.485534    29A     -0.470247    30A     -0.458684
      31A     -0.446953    32A     -0.392354

  @DF-RHF Final Energy:  -348.06112867427015

   => Energetics <=

    Nuclear Repulsion Energy =            388.6561194054901875
    One-Electron Energy =               -1241.9623726516526858
    Two-Electron Energy =                 505.2451245718920063
    DFT Exchange-Correlation Energy =       0.0000000000000000
    Empirical Dispersion Energy =           0.0000000000000000
    PCM Polarization Energy =               0.0000000000000000
    EFP Energy =                            0.0000000000000000
    Total Energy =                       -348.0611286742704351

  Mulliken Charges: (a.u.)
   Center  Symbol    Alpha    Beta     Spin     Total
       1     O     4.26366  4.26366  0.00000 -0.52733
       2     C     2.73123  2.73123  0.00000  0.53754
       3     C     3.22634  3.22634  0.00000 -0.45269
       4     C     3.28978  3.28978  0.00000 -0.57956
       5     C     3.15850  3.15850  0.00000 -0.31700
       6     H     0.39507  0.39507  0.00000  0.20986
       7     H     0.40763  0.40763  0.00000  0.18474
       8     C     3.15514  3.15514  0.00000 -0.31029
       9     H     0.40387  0.40387  0.00000  0.19226
      10     H     0.41802  0.41802  0.00000  0.16395
      11     C     3.16238  3.16238  0.00000 -0.32476
      12     H     0.42123  0.42123  0.00000  0.15753
      13     H     0.41547  0.41547  0.00000  0.16905
      14     C     3.24555  3.24555  0.00000 -0.49111
      15     H     0.41613  0.41613  0.00000  0.16774
      16     H     0.41891  0.41891  0.00000  0.16219
      17     H     0.42304  0.42304  0.00000  0.15392
      18     H     0.41868  0.41868  0.00000  0.16263
      19     H     0.41456  0.41456  0.00000  0.17088
      20     H     0.40779  0.40779  0.00000  0.18441
      21     H     0.39708  0.39708  0.00000  0.20583
      22     H     0.40989  0.40989  0.00000  0.18021

   Total alpha = 32.00000, Total beta = 32.00000, Total charge = -0.00000
