  ==> Input File <==

--------------------------------------------------------------------------
set {
	reference rhf
	basis 6-31G*
}

set_num_threads( 4 )
memory 2 gb

molecule MOL {
0 1

H	 -4.216489	 0.176306	 0.899175
O	 -3.496434	 -0.383336	 0.645747
C	 -2.297296	 0.347262	 0.675513
C	 -1.166759	 -0.579625	 0.265008
H	 -2.349038	 1.196355	 -0.004687
H	 -2.112915	 0.740473	 1.674376
C	 0.198102	 0.111031	 0.262842
H	 -1.388928	 -0.972981	 -0.723243
H	 -1.156755	 -1.428062	 0.943632
C	 1.331804	 -0.827780	 -0.158768
H	 0.162617	 0.970553	 -0.402091
H	 0.409802	 0.501060	 1.257618
C	 2.723619	 -0.410569	 0.329459
H	 1.342964	 -0.912588	 -1.244120
H	 1.116806	 -1.824343	 0.220779
C	 3.243875	 0.895854	 -0.272975
H	 3.424222	 -1.207124	 0.091250
H	 2.714788	 -0.329854	 1.414619
H	 3.251977	 0.848779	 -1.358681
H	 2.637085	 1.747371	 0.016682
H	 4.259473	 1.094070	 0.055697

	symmetry c1
}
set optking {
	frozen_dihedral = ("
		4 7 10 14
	")
}

ee = optimize('scf')
oeprop('DIPOLE', 'QUADRUPOLE', 'MULLIKEN_CHARGES')
f=open( 'psi4out.xyz', 'w' )
f.write( "21  " )
f.write( str(ee) + "\n" )
f.write( MOL.save_string_xyz() )
f.close()
--------------------------------------------------------------------------

    Molecular point group: c1
  Charge       = 0
  Multiplicity = 1
  Basis Set: 6-31G*
  Basis Set:
  @DF-RHF Final Energy:  -310.21155126192230
    Total Energy =                       -310.2115512619221249
    Molecular point group: c1
  Basis Set: 6-31G*
  Basis Set:
  Basis Set: 6-31G*
  Basis Set:
  @DF-RHF Final Energy:  -310.21150350386057
    Total Energy =                       -310.2115035038605697
  Basis Set: 6-31G*
  Basis Set:
  Basis Set: 6-31G*
  Basis Set:
  @DF-RHF Final Energy:  -310.21172298627710
    Total Energy =                       -310.2117229862769818
  Basis Set: 6-31G*
  Basis Set:
  Basis Set: 6-31G*
  Basis Set:
  @DF-RHF Final Energy:  -310.21176397943748
    Total Energy =                       -310.2117639794375918
  Basis Set: 6-31G*
  Basis Set:
  Charge       = 0
  Multiplicity = 1
  Basis Set: 6-31G*
  Basis Set:

    Orbital Energies (a.u.)
    -----------------------

    Doubly Occupied:

       1A    -20.551856     2A    -11.267007     3A    -11.215837
       4A    -11.214869     5A    -11.213456     6A    -11.210818
       7A    -11.208210     8A     -1.358669     9A     -1.086100
      10A     -1.033203    11A     -0.953541    12A     -0.875828
      13A     -0.808095    14A     -0.778212    15A     -0.692389
      16A     -0.660634    17A     -0.625257    18A     -0.603796
      19A     -0.585420    20A     -0.572195    21A     -0.535323
      22A     -0.520301    23A     -0.510772    24A     -0.486848
      25A     -0.480165    26A     -0.458896    27A     -0.456249
      28A     -0.442723    29A     -0.434069

  @DF-RHF Final Energy:  -310.21176482177719

   => Energetics <=

    Nuclear Repulsion Energy =            312.5937656519307097
    One-Electron Energy =               -1039.9295842349251870
    Two-Electron Energy =                 417.1240537612173966
    DFT Exchange-Correlation Energy =       0.0000000000000000
    Empirical Dispersion Energy =           0.0000000000000000
    PCM Polarization Energy =               0.0000000000000000
    EFP Energy =                            0.0000000000000000
    Total Energy =                       -310.2117648217771375
    Molecular point group: c1
  Basis Set: 6-31G*
  Basis Set:

  -Total Gradient:
     Atom            X                  Y                   Z
    ------   -----------------  -----------------  -----------------
       1       -0.000002106561     0.000000094971    -0.000002529524
       2       -0.000002131643     0.000006772091    -0.000016199131
       3        0.000009842012    -0.000000326828     0.000021581134
       4        0.000319665973    -0.000635591739     0.002080210099
       5       -0.000009377787     0.000002446163    -0.000001259250
       6        0.000004092926     0.000000260222    -0.000006858152
       7        0.000075671072     0.001309815130    -0.002949697366
       8        0.000001909047     0.000002702387     0.000016662433
       9       -0.000001469432    -0.000002616669     0.000012529439
      10       -0.002297780520    -0.003014706550     0.001029558640
      11       -0.000022937666    -0.000032675878    -0.000033732816
      12        0.000069226348    -0.000002013867    -0.000003857975
      13        0.000035034783    -0.000042163815    -0.000011127940
      14        0.001916486480     0.002372672351    -0.000119704223
      15       -0.000041943472     0.000009832635    -0.000019203645
      16       -0.000039265694     0.000047067967     0.000020045629
      17       -0.000019891819    -0.000055179468     0.000005747096
      18       -0.000006064405     0.000014070594    -0.000016515906
      19        0.000021088543    -0.000004497755    -0.000000962640
      20        0.000005056666     0.000027536303    -0.000022804834
      21       -0.000015104848    -0.000003498244     0.000018118930

  **** Optimization is complete! (in 5 steps) ****
    Final optimized geometry and variables:
    Molecular point group: c1

    Geometry (in Angstrom), charge = 0, multiplicity = 1:

    H           -4.215980536338     0.325765654072     0.611827439948
    O           -3.499126535350    -0.247608162574     0.381015495186
    C           -2.293873077020     0.473312331349     0.396397958753
    C           -1.168900054397    -0.474989904817     0.021608408906
    H           -2.333981928660     1.301760990230    -0.309511363721
    H           -2.112173785489     0.895162722325     1.384106615401
    C            0.204288374924     0.199212990965     0.022793349451
    H           -1.384745551931    -0.891133578324    -0.959059780421
    H           -1.173621190808    -1.306108820968     0.720970958576
    C            1.330834381842    -0.748582492527    -0.411046535936
    H            0.186492444614     1.073343626717    -0.623353260038
    H            0.412924869024     0.566752013828     1.026888514680
    C            2.727277088782    -0.317693357135     0.052386530936
    H            1.339000104925    -0.822366330467    -1.496882717409
    H            1.129870572856    -1.745705864159    -0.027906794039
    C            3.193734832063     1.020047214393    -0.524227082060
    H            3.439861010304    -1.089439017488    -0.228644252326
    H            2.745321181985    -0.268195209512     1.139243592767
    H            3.187959711287     0.999774159701    -1.610854166035
    H            2.558656064534     1.840533203989    -0.205728421325
    H            4.205822600681     1.247993740251    -0.204230193560

  Mulliken Charges: (a.u.)
   Center  Symbol    Alpha    Beta     Spin     Total
       1     H     0.28118  0.28118  0.00000  0.43765
       2     O     4.37176  4.37176  0.00000 -0.74352
       3     C     2.98995  2.98995  0.00000  0.02010
       4     C     3.15968  3.15968  0.00000 -0.31937
       5     H     0.43287  0.43287  0.00000  0.13426
       6     H     0.43296  0.43296  0.00000  0.13409
       7     C     3.16241  3.16241  0.00000 -0.32482
       8     H     0.41485  0.41485  0.00000  0.17030
       9     H     0.41450  0.41450  0.00000  0.17100
      10     C     3.15215  3.15215  0.00000 -0.30431
      11     H     0.42102  0.42102  0.00000  0.15797
      12     H     0.42382  0.42382  0.00000  0.15237
      13     C     3.15301  3.15301  0.00000 -0.30601
      14     H     0.42252  0.42252  0.00000  0.15497
      15     H     0.41965  0.41965  0.00000  0.16070
      16     C     3.24137  3.24137  0.00000 -0.48274
      17     H     0.42110  0.42110  0.00000  0.15781
      18     H     0.42351  0.42351  0.00000  0.15298
      19     H     0.42228  0.42228  0.00000  0.15543
      20     H     0.42019  0.42019  0.00000  0.15963
      21     H     0.41924  0.41924  0.00000  0.16151

   Total alpha = 29.00000, Total beta = 29.00000, Total charge = -0.00000
