                              Psi4 1.0.54 Driver

  ==> Input File <==

--------------------------------------------------------------------------
set {
	reference rhf
	basis cc-pvtz
}

set_num_threads( 4 )
memory 2 gb

molecule MOL {
0 1

H	 -2.644180	 -0.653737	 1.272255
C	 -2.092774	 -0.380414	 0.391915
O	 -0.808934	 -0.154049	 0.752536
F	 -2.163230	 -1.351640	 -0.507133
F	 -2.627232	 0.691260	 -0.169301
C	 0.132375	 0.020077	 -0.238886
C	 1.365903	 -0.789183	 0.154541
Cl	 0.560333	 1.731281	 -0.423745
H	 -0.206814	 -0.331579	 -1.197497
F	 2.297440	 -0.677337	 -0.758012
F	 1.035596	 -2.055912	 0.241773
F	 1.857883	 -0.414500	 1.303375

	symmetry c1
}
set optking {
	frozen_dihedral = ("
		6 3 2 4
	")
}

ee,wfn = optimize('scf', return_wfn=True)
oeprop( wfn, 'DIPOLE', 'QUADRUPOLE', 'MULLIKEN_CHARGES')
f=open( 'psi4out.xyz', 'w' )
f.write( "12  " )
f.write( str(ee) + "\n" )
f.write( MOL.save_string_xyz() )
f.close()
--------------------------------------------------------------------------

    Molecular point group: c1
  Charge       = 0
  Multiplicity = 1
  Basis Set: CC-PVTZ
  Basis Set:
  @DF-RHF Final Energy: -1146.61997691169881
    Total Energy =                      -1146.6199769116992684
    Molecular point group: c1
  Basis Set: CC-PVTZ
  Basis Set:
  Basis Set: CC-PVTZ
  Basis Set:
  @DF-RHF Final Energy: -1146.62000172093803
    Total Energy =                      -1146.6200017209380349
  Basis Set: CC-PVTZ
  Basis Set:
  Basis Set: CC-PVTZ
  Basis Set:
  @DF-RHF Final Energy: -1146.62001945577413
    Total Energy =                      -1146.6200194557748091
  Basis Set: CC-PVTZ
  Basis Set:
  Basis Set: CC-PVTZ
  Basis Set:
  @DF-RHF Final Energy: -1146.62001628904227
    Total Energy =                      -1146.6200162890422689
  Basis Set: CC-PVTZ
  Basis Set:
  Basis Set: CC-PVTZ
  Basis Set:
  @DF-RHF Final Energy: -1146.62002148733063
    Total Energy =                      -1146.6200214873306322
  Basis Set: CC-PVTZ
  Basis Set:
  Charge       = 0
  Multiplicity = 1
  Basis Set: CC-PVTZ
  Basis Set:

    Orbital Energies (a.u.)
    -----------------------

    Doubly Occupied:

       1A   -104.855977     2A    -26.355203     3A    -26.354343
       4A    -26.353428     5A    -26.346208     6A    -26.340364
       7A    -20.641338     8A    -11.520349     9A    -11.484515
      10A    -11.400694    11A    -10.581500    12A     -8.048296
      13A     -8.046310    14A     -8.046235    15A     -1.768180
      16A     -1.725053    17A     -1.663159    18A     -1.661595
      19A     -1.644776    20A     -1.487367    21A     -1.177933
      22A     -1.053534    23A     -0.991289    24A     -0.924548
      25A     -0.865301    26A     -0.859050    27A     -0.852727
      28A     -0.828479    29A     -0.819124    30A     -0.794905
      31A     -0.733895    32A     -0.733522    33A     -0.713721
      34A     -0.707266    35A     -0.685352    36A     -0.681779
      37A     -0.665163    38A     -0.664381    39A     -0.647966
      40A     -0.639671    41A     -0.599578    42A     -0.581640
      43A     -0.525421    44A     -0.477494    45A     -0.469343

  @DF-RHF Final Energy: -1146.62002183357845

   => Energetics <=

    Nuclear Repulsion Energy =            737.4123173723104401
    One-Electron Energy =               -3058.0287383521099400
    Two-Electron Energy =                1173.9963991462209378
    DFT Exchange-Correlation Energy =       0.0000000000000000
    Empirical Dispersion Energy =           0.0000000000000000
    PCM Polarization Energy =               0.0000000000000000
    EFP Energy =                            0.0000000000000000
    Total Energy =                      -1146.6200218335784484
    Molecular point group: c1
  Basis Set: CC-PVTZ
  Basis Set:

  -Total Gradient:
     Atom            X                  Y                   Z
    ------   -----------------  -----------------  -----------------
       1       -0.000001491212     0.000006274195     0.000002353936
       2       -0.000010215234    -0.002537264067     0.001717379735
       3       -0.000458284425     0.003071863518    -0.000422246356
       4        0.000172023177     0.001221974655    -0.001256432168
       5       -0.000043702446    -0.000001305691    -0.000007035895
       6        0.000303101529    -0.001759769637    -0.000008509332
       7        0.000005320974     0.000010835681    -0.000006394991
       8        0.000042280301     0.000000317820     0.000006437427
       9       -0.000004985180    -0.000004662138    -0.000014072702
      10        0.000012319265    -0.000011010375    -0.000005511853
      11       -0.000010160330    -0.000005972837     0.000002760066
      12       -0.000006206361     0.000008718911    -0.000008727894

  **** Optimization is complete! (in 6 steps) ****
    Final optimized geometry and variables:
    Molecular point group: c1

    Geometry (in Angstrom), charge = 0, multiplicity = 1:

    H           -2.665894871427    -0.506867002130     1.251851314376
    C           -2.119446798207    -0.230935888808     0.369175303906
    O           -0.831678225194    -0.012824345051     0.722423343369
    F           -2.206559912148    -1.189748673615    -0.541789574551
    F           -2.651259711206     0.850463852687    -0.175579907202
    C            0.114754478239     0.173207796505    -0.261145885184
    C            1.350500843809    -0.627411441026     0.142641192125
    CL           0.531047126999     1.888538256265    -0.440433739938
    H           -0.212839103240    -0.179387030798    -1.222573451557
    F            2.288952377835    -0.508714992446    -0.761789678108
    F            1.027470773564    -1.896848965576     0.225654208953
    F            1.830056064095    -0.251276353235     1.296077401286

  Mulliken Charges: (a.u.)
   Center  Symbol    Alpha    Beta     Spin     Total
       1     H     0.45249  0.45249  0.00000  0.09502
       2     C     2.73976  2.73976  0.00000  0.52047
       3     O     4.15609  4.15609  0.00000 -0.31217
       4     F     4.61869  4.61869  0.00000 -0.23739
       5     F     4.61376  4.61376  0.00000 -0.22751
       6     C     2.93788  2.93788  0.00000  0.12424
       7     C     2.66966  2.66966  0.00000  0.66068
       8    CL     8.57415  8.57415  0.00000 -0.14829
       9     H     0.42946  0.42946  0.00000  0.14107
      10     F     4.60232  4.60232  0.00000 -0.20463
      11     F     4.60539  4.60539  0.00000 -0.21078
      12     F     4.60035  4.60035  0.00000 -0.20070

   Total alpha = 45.00000, Total beta = 45.00000, Total charge =  0.00000

*** Psi4 exiting successfully. Buy a developer a beer!
