  ==> Input File <==

--------------------------------------------------------------------------
set {
	reference rhf
	basis cc-pvtz
}

set_num_threads( 4 )
memory 2 gb

molecule MOL {
0 1

H	 2.213991	 -0.565065	 0.532288
C	 1.885886	 -0.423235	 -0.505925
C	 0.608379	 0.352270	 -0.671348
O	 2.524400	 -0.871284	 -1.394286
C	 -0.554654	 -0.292621	 0.086567
H	 0.392169	 0.435628	 -1.728297
H	 0.782399	 1.353103	 -0.281569
C	 -1.846385	 0.513195	 -0.016346
H	 -0.721843	 -1.293557	 -0.300878
H	 -0.286292	 -0.408336	 1.133593
C	 -3.089953	 -0.365049	 -0.098564
H	 -1.798267	 1.154820	 -0.891143
H	 -1.925398	 1.173265	 0.842889
H	 -3.055079	 -1.012299	 -0.968245
H	 -3.988403	 0.236438	 -0.170014
H	 -3.183055	 -0.995885	 0.779079

	symmetry c1
}
set optking {
	frozen_dihedral = ("
		9 5 8 12
	")
}

ee = optimize('scf')
oeprop('DIPOLE', 'QUADRUPOLE', 'MULLIKEN_CHARGES')
f=open( 'psi4out.xyz', 'w' )
f.write( "16  " )
f.write( str(ee) + "\n" )
f.write( MOL.save_string_xyz() )
f.close()
--------------------------------------------------------------------------

    Molecular point group: c1
  Charge       = 0
  Multiplicity = 1
  Basis Set: CC-PVTZ
  Basis Set:
  @DF-RHF Final Energy:  -270.11535318995482
    Total Energy =                       -270.1153531899547033
    Molecular point group: c1
  Basis Set: CC-PVTZ
  Basis Set:
  Basis Set: CC-PVTZ
  Basis Set:
  @DF-RHF Final Energy:  -270.11566836155919
    Total Energy =                       -270.1156683615592442
  Basis Set: CC-PVTZ
  Basis Set:
  Basis Set: CC-PVTZ
  Basis Set:
  @DF-RHF Final Energy:  -270.11536227161014
    Total Energy =                       -270.1153622716099107
  Basis Set: CC-PVTZ
  Basis Set:
  Basis Set: CC-PVTZ
  Basis Set:
  @DF-RHF Final Energy:  -270.11572473580895
    Total Energy =                       -270.1157247358090672
  Basis Set: CC-PVTZ
  Basis Set:
  Basis Set: CC-PVTZ
  Basis Set:
  @DF-RHF Final Energy:  -270.11571858904159
    Total Energy =                       -270.1157185890415917
  Basis Set: CC-PVTZ
  Basis Set:
  Charge       = 0
  Multiplicity = 1
  Basis Set: CC-PVTZ
  Basis Set:

    Orbital Energies (a.u.)
    -----------------------

    Doubly Occupied:

       1A    -20.552239     2A    -11.321338     3A    -11.234910
       4A    -11.234050     5A    -11.227258     6A    -11.216888
       7A     -1.406973     8A     -1.096339     9A     -1.020155
      10A     -0.906807    11A     -0.813592    12A     -0.794821
      13A     -0.678201    14A     -0.651130    15A     -0.629716
      16A     -0.602798    17A     -0.588099    18A     -0.553571
      19A     -0.522764    20A     -0.518314    21A     -0.488940
      22A     -0.482070    23A     -0.474599    24A     -0.411492

  @DF-RHF Final Energy:  -270.11573062397821

   => Energetics <=

    Nuclear Repulsion Energy =            229.3573700252160279
    One-Electron Energy =                -820.0920698159600306
    Two-Electron Energy =                 320.6189691667659076
    DFT Exchange-Correlation Energy =       0.0000000000000000
    Empirical Dispersion Energy =           0.0000000000000000
    PCM Polarization Energy =               0.0000000000000000
    EFP Energy =                            0.0000000000000000
    Total Energy =                       -270.1157306239780951
    Molecular point group: c1
  Basis Set: CC-PVTZ
  Basis Set:

  -Total Gradient:
     Atom            X                  Y                   Z
    ------   -----------------  -----------------  -----------------
       1       -0.000008823054    -0.000003136092    -0.000003903293
       2       -0.000016611589     0.000013781962     0.000010641269
       3        0.000003086655     0.000003560767    -0.000019086702
       4        0.000011623237    -0.000010287447    -0.000010862433
       5        0.001926452751     0.002540102411    -0.004504174319
       6        0.000002145367     0.000003487386     0.000002859506
       7       -0.000012991728    -0.000004479559     0.000009091739
       8       -0.002655549811    -0.004346764644    -0.002117654770
       9       -0.001150002081    -0.001407188810     0.004128944712
      10       -0.000025738229    -0.000021871444     0.000002088787
      11       -0.000016847359    -0.000041065850    -0.000003955692
      12        0.001878677731     0.003231169213     0.002518815873
      13        0.000024709602     0.000011792013    -0.000015795996
      14        0.000006470252    -0.000001634495     0.000002629640
      15        0.000017497767     0.000022100256     0.000004943707
      16        0.000015900492     0.000010434334    -0.000004582029

  **** Optimization is complete! (in 6 steps) ****
    Final optimized geometry and variables:
    Molecular point group: c1

    Geometry (in Angstrom), charge = 0, multiplicity = 1:

    H            2.278195150507    -0.354092214387     1.008196081090
    C            1.979992505697    -0.219388908790    -0.039879129161
    C            0.697059600001     0.537008800278    -0.246660631311
    O            2.651515571066    -0.659870176567    -0.907457863999
    C           -0.480760344402    -0.125076246703     0.469283897203
    H            0.514163133452     0.621309725957    -1.309703228247
    H            0.841716809151     1.539189313775     0.152348689215
    C           -1.779379748580     0.691117046338     0.387409717335
    H           -0.645103628077    -1.123860097751     0.076921562410
    H           -0.224832156858    -0.274198108017     1.515103256714
    C           -3.037089814695    -0.167772272966     0.363932994289
    H           -1.749099803704     1.344201123502    -0.479081352931
    H           -1.822448253646     1.363172317730     1.239641759290
    H           -3.058741564525    -0.804336827240    -0.513818391242
    H           -3.929914669570     0.446181606284     0.352569531296
    H           -3.087403078014    -0.808909033378     1.237824840973

  Mulliken Charges: (a.u.)
   Center  Symbol    Alpha    Beta     Spin     Total
       1     H     0.46546  0.46546  0.00000  0.06907
       2     C     2.90907  2.90907  0.00000  0.18186
       3     C     3.07842  3.07842  0.00000 -0.15685
       4     O     4.16363  4.16363  0.00000 -0.32726
       5     C     3.10442  3.10442  0.00000 -0.20885
       6     H     0.44228  0.44228  0.00000  0.11544
       7     H     0.44909  0.44909  0.00000  0.10182
       8     C     3.08586  3.08586  0.00000 -0.17171
       9     H     0.44585  0.44585  0.00000  0.10829
      10     H     0.45070  0.45070  0.00000  0.09860
      11     C     3.14717  3.14717  0.00000 -0.29434
      12     H     0.45192  0.45192  0.00000  0.09615
      13     H     0.45196  0.45196  0.00000  0.09608
      14     H     0.45303  0.45303  0.00000  0.09394
      15     H     0.44761  0.44761  0.00000  0.10478
      16     H     0.45352  0.45352  0.00000  0.09296

   Total alpha = 24.00000, Total beta = 24.00000, Total charge =  0.00000
