                              Psi4 1.0.54 Driver

  ==> Input File <==

--------------------------------------------------------------------------
set {
	reference rhf
	basis cc-pvtz
}

set_num_threads( 4 )
memory 2 gb

molecule MOL {
0 1

O	 1.223504	 1.313132	 -0.458862
C	 0.860843	 0.273204	 -0.013120
C	 -0.623368	 -0.117453	 -0.005652
C	 1.876539	 -0.690435	 0.568072
C	 -0.892588	 -1.253841	 -1.002900
C	 -1.473463	 1.100646	 -0.372896
C	 -0.981836	 -0.579025	 1.418506
H	 -0.609333	 -0.970024	 -2.010649
H	 -1.950451	 -1.487353	 -1.013175
H	 -0.360848	 -2.161259	 -0.746463
H	 -1.232203	 1.461623	 -1.364827
H	 -2.524364	 0.834451	 -0.354500
H	 -1.312381	 1.914833	 0.318657
H	 -2.035706	 -0.826342	 1.468082
H	 -0.425078	 -1.458934	 1.716857
H	 -0.788494	 0.205047	 2.140903
H	 2.075734	 -1.475446	 -0.152929
H	 2.793516	 -0.154561	 0.759020
H	 1.528344	 -1.162718	 1.476334

	symmetry c1
}
set optking {
	frozen_dihedral = ("
		1 2 3 5
	")
}

ee,wfn = optimize('scf', return_wfn=True)
oeprop( wfn, 'DIPOLE', 'QUADRUPOLE', 'MULLIKEN_CHARGES')
f=open( 'psi4out.xyz', 'w' )
f.write( "19  " )
f.write( str(ee) + "\n" )
f.write( MOL.save_string_xyz() )
f.close()
--------------------------------------------------------------------------

    Molecular point group: c1
  Charge       = 0
  Multiplicity = 1
  Basis Set: CC-PVTZ
  Basis Set:
  @DF-RHF Final Energy:  -309.17191580794793
    Total Energy =                       -309.1719158079476983
    Molecular point group: c1
  Basis Set: CC-PVTZ
  Basis Set:
  Basis Set: CC-PVTZ
  Basis Set:
  @DF-RHF Final Energy:  -309.17186149255292
    Total Energy =                       -309.1718614925531483
  Basis Set: CC-PVTZ
  Basis Set:
  Basis Set: CC-PVTZ
  Basis Set:
  @DF-RHF Final Energy:  -309.17160235983596
    Total Energy =                       -309.1716023598359016
  Basis Set: CC-PVTZ
  Basis Set:
  Basis Set: CC-PVTZ
  Basis Set:
  @DF-RHF Final Energy:  -309.17336594602148
    Total Energy =                       -309.1733659460217041
  Basis Set: CC-PVTZ
  Basis Set:
  @DF-RHF Final Energy:  -309.17303229093204
    Total Energy =                       -309.1730322909321558
  @DF-RHF Final Energy:  -309.17362125181927
    Total Energy =                       -309.1736212518196680
  @DF-RHF Final Energy:  -309.17325647555157
    Total Energy =                       -309.1732564755517387
  @DF-RHF Final Energy:  -309.17371381726963
    Total Energy =                       -309.1737138172696291
  @DF-RHF Final Energy:  -309.17384653247012
    Total Energy =                       -309.1738465324699519
  @DF-RHF Final Energy:  -309.17411572647848
    Total Energy =                       -309.1741157264785897
  Basis Set: CC-PVTZ
  Basis Set:
  @DF-RHF Final Energy:  -309.17421011462875
    Total Energy =                       -309.1742101146288633
  Basis Set: CC-PVTZ
  Basis Set:
  Basis Set: CC-PVTZ
  Basis Set:
  @DF-RHF Final Energy:  -309.17423484810837
    Total Energy =                       -309.1742348481081990
  Basis Set: CC-PVTZ
  Basis Set:
  Basis Set: CC-PVTZ
  Basis Set:
  @DF-RHF Final Energy:  -309.17424101472130
    Total Energy =                       -309.1742410147212468
  Basis Set: CC-PVTZ
  Basis Set:
  Charge       = 0
  Multiplicity = 1
  Basis Set: CC-PVTZ
  Basis Set:

    Orbital Energies (a.u.)
    -----------------------

    Doubly Occupied:

       1A    -20.537399     2A    -11.317703     3A    -11.245721
       4A    -11.225017     5A    -11.222435     6A    -11.222302
       7A    -11.206079     8A     -1.398448     9A     -1.111005
      10A     -1.002841    11A     -0.948070    12A     -0.935782
      13A     -0.836007    14A     -0.705397    15A     -0.666761
      16A     -0.633901    17A     -0.621216    18A     -0.600359
      19A     -0.593645    20A     -0.565602    21A     -0.546586
      22A     -0.544821    23A     -0.523852    24A     -0.514997
      25A     -0.501499    26A     -0.472538    27A     -0.469114
      28A     -0.394938

  @DF-RHF Final Energy:  -309.17424056780175

   => Energetics <=

    Nuclear Repulsion Energy =            326.8965614525786236
    One-Electron Energy =               -1067.0135314143265077
    Two-Electron Energy =                 430.9427293939456831
    DFT Exchange-Correlation Energy =       0.0000000000000000
    Empirical Dispersion Energy =           0.0000000000000000
    PCM Polarization Energy =               0.0000000000000000
    EFP Energy =                            0.0000000000000000
    Total Energy =                       -309.1742405678021441
    Molecular point group: c1
  Basis Set: CC-PVTZ
  Basis Set:

  -Total Gradient:
     Atom            X                  Y                   Z
    ------   -----------------  -----------------  -----------------
       1       -0.000032963833     0.000226310274     0.000427664097
       2        0.000118974722    -0.000372411829    -0.000426654952
       3       -0.000112911764     0.000324416844    -0.000236386164
       4        0.000042278003    -0.000119978409    -0.000004049005
       5        0.000032102168    -0.000322382741     0.000194526222
       6       -0.000054152481     0.000055166936    -0.000070867258
       7        0.000001488978     0.000012861471     0.000024244626
       8       -0.000065232054    -0.000024859407     0.000149085068
       9        0.000178183385     0.000042687275     0.000033948816
      10       -0.000035995308     0.000137423415    -0.000039862140
      11       -0.000053931571    -0.000012746150     0.000105135199
      12        0.000096312687     0.000044252213     0.000008345218
      13       -0.000024772335    -0.000071506091    -0.000078171324
      14       -0.000008273036     0.000008171288    -0.000013171885
      15       -0.000005171037    -0.000005470304     0.000007418044
      16        0.000009363792     0.000001842697     0.000005296346
      17       -0.000007645726    -0.000015894138    -0.000051267793
      18       -0.000037448614     0.000050192756    -0.000033502793
      19       -0.000040205977     0.000041923901    -0.000001730323

  **** Optimization is complete! (in 14 steps) ****
    Final optimized geometry and variables:
    Molecular point group: c1

    Geometry (in Angstrom), charge = 0, multiplicity = 1:

    O            1.324648082522     1.206250021521    -0.478902123965
    C            0.873687956889     0.226543554420     0.019545901660
    C           -0.626045468486    -0.090247426535    -0.052825331460
    C            1.791767216857    -0.728098710306     0.758162337113
    C           -0.825238951983    -1.298140898976    -0.985337684511
    C           -1.376609778871     1.116834248261    -0.618287055908
    C           -1.163398068004    -0.423148932531     1.347684806814
    H           -0.426171486446    -1.098165096019    -1.972766654318
    H           -1.883143557446    -1.506262080718    -1.090762044866
    H           -0.352660718723    -2.194481903850    -0.604688267303
    H           -1.024606082809     1.369721643688    -1.608162511210
    H           -2.436555851128     0.896509179459    -0.675406603211
    H           -1.243632986838     1.989504399399     0.007683669745
    H           -2.230496923852    -0.603305378576     1.296262181666
    H           -0.702111249344    -1.309635998630     1.764337039949
    H           -1.001019019035     0.398028532053     2.037273413724
    H            1.533217664184    -1.765857059037     0.602450699103
    H            2.806795492856    -0.548170221696     0.438805242380
    H            1.723773511499    -0.528308171623     1.821874422014

  Mulliken Charges: (a.u.)
   Center  Symbol    Alpha    Beta     Spin     Total
       1     O     4.17477  4.17477  0.00000 -0.34954
       2     C     2.85383  2.85383  0.00000  0.29234
       3     C     3.00894  3.00894  0.00000 -0.01789
       4     C     3.16276  3.16276  0.00000 -0.32552
       5     C     3.16011  3.16011  0.00000 -0.32023
       6     C     3.14974  3.14974  0.00000 -0.29948
       7     C     3.16369  3.16369  0.00000 -0.32738
       8     H     0.44195  0.44195  0.00000  0.11611
       9     H     0.44484  0.44484  0.00000  0.11033
      10     H     0.44580  0.44580  0.00000  0.10840
      11     H     0.44074  0.44074  0.00000  0.11851
      12     H     0.45203  0.45203  0.00000  0.09594
      13     H     0.44530  0.44530  0.00000  0.10939
      14     H     0.44300  0.44300  0.00000  0.11400
      15     H     0.44592  0.44592  0.00000  0.10816
      16     H     0.44273  0.44273  0.00000  0.11454
      17     H     0.44679  0.44679  0.00000  0.10643
      18     H     0.43179  0.43179  0.00000  0.13641
      19     H     0.44526  0.44526  0.00000  0.10948

   Total alpha = 28.00000, Total beta = 28.00000, Total charge =  0.00000

*** Psi4 exiting successfully. Buy a developer a beer!
