  ==> Input File <==

--------------------------------------------------------------------------
set {
	reference rhf
	basis 6-31G*
}

set_num_threads( 1 )
memory 2 gb

molecule MOL {
0 1

H	 -3.420663	 1.227371	 -1.044276
O	 -3.452007	 0.283848	 -0.965577
C	 -3.181085	 -0.079926	 0.364119
C	 -1.765924	 0.277073	 0.805136
H	 -3.327791	 -1.152017	 0.410903
H	 -3.905698	 0.375695	 1.036898
C	 -1.377840	 1.724187	 0.498915
H	 -1.669810	 0.089353	 1.874942
H	 -1.072541	 -0.404066	 0.314738
C	 0.035621	 2.078329	 0.965705
H	 -2.095844	 2.392085	 0.964847
H	 -1.456209	 1.892539	 -0.573889
C	 0.419067	 3.526658	 0.650434
H	 0.110080	 1.898768	 2.035580
H	 0.751868	 1.407419	 0.492974
C	 1.858398	 3.904101	 1.019242
H	 -0.269426	 4.199757	 1.158971
H	 0.279452	 3.699436	 -0.414682
C	 2.155477	 3.887719	 2.519869
H	 2.062089	 4.900687	 0.635033
H	 2.547859	 3.235683	 0.507320
H	 1.472491	 4.538261	 3.059743
H	 3.165376	 4.234408	 2.716715
H	 2.066327	 2.891832	 2.941088

	symmetry c1
}
set optking {
	frozen_dihedral = ("
		20 16 13 17,
		17 13 10 7,
		13 10 7 11,
		11 7 4 3,
		1 2 3 5
	")
}

ee = energy('scf')
oeprop('DIPOLE', 'QUADRUPOLE', 'MULLIKEN_CHARGES')
f=open( 'psi4out.xyz', 'w' )
f.write( "24  " )
f.write( str(ee) + "\n" )
f.write( MOL.save_string_xyz() )
f.close()
--------------------------------------------------------------------------

    Molecular point group: c1

    Geometry (in Angstrom), charge = 0, multiplicity = 1:

       Center              X                  Y                   Z               Mass
    ------------   -----------------  -----------------  -----------------  -----------------
           H         -2.712002873520    -0.702202066054    -1.756295089289     1.007825032070
           O         -2.743346873520    -1.645725066054    -1.677596089289    15.994914619560
           C         -2.472424873520    -2.009499066054    -0.347900089289    12.000000000000
           C         -1.057263873520    -1.652500066054     0.093116910711    12.000000000000
           H         -2.619130873520    -3.081590066054    -0.301116089289     1.007825032070
           H         -3.197037873520    -1.553878066054     0.324878910711     1.007825032070
           C         -0.669179873520    -0.205386066054    -0.213104089289    12.000000000000
           H         -0.961149873520    -1.840220066054     1.162922910711     1.007825032070
           H         -0.363880873520    -2.333639066054    -0.397281089289     1.007825032070
           C          0.744281126480     0.148755933946     0.253685910711    12.000000000000
           H         -1.387183873520     0.462511933946     0.252827910711     1.007825032070
           H         -0.747548873520    -0.037034066054    -1.285908089289     1.007825032070
           C          1.127727126480     1.597084933946    -0.061585089289    12.000000000000
           H          0.818740126480    -0.030805066054     1.323560910711     1.007825032070
           H          1.460528126480    -0.522154066054    -0.219045089289     1.007825032070
           C          2.567058126480     1.974527933946     0.307222910711    12.000000000000
           H          0.439234126480     2.270183933946     0.446951910711     1.007825032070
           H          0.988112126480     1.769862933946    -1.126701089289     1.007825032070
           C          2.864137126480     1.958145933946     1.807849910711    12.000000000000
           H          2.770749126480     2.971113933946    -0.076986089289     1.007825032070
           H          3.256519126480     1.306109933946    -0.204699089289     1.007825032070
           H          2.181151126480     2.608687933946     2.347723910711     1.007825032070
           H          3.874036126480     2.304834933946     2.004695910711     1.007825032070
           H          2.774987126480     0.962258933946     2.229068910711     1.007825032070

  Charge       = 0
  Multiplicity = 1
  Basis Set: 6-31G*
  Basis Set:

    Orbital Energies (a.u.)
    -----------------------

    Doubly Occupied:

       1A    -20.552172     2A    -11.266905     3A    -11.221393
       4A    -11.217909     5A    -11.217294     6A    -11.216688
       7A    -11.216146     8A    -11.209896     9A     -1.359298
      10A     -1.093255    11A     -1.050876    12A     -0.988206
      13A     -0.920533    14A     -0.854814    15A     -0.796670
      16A     -0.781204    17A     -0.692030    18A     -0.653876
      19A     -0.625363    20A     -0.612980    21A     -0.604401
      22A     -0.588053    23A     -0.562523    24A     -0.539289
      25A     -0.523913    26A     -0.511556    27A     -0.490203
      28A     -0.488763    29A     -0.474012    30A     -0.463535
      31A     -0.457938    32A     -0.444784    33A     -0.423762

  @DF-RHF Final Energy:  -349.24589512558470

   => Energetics <=

    Nuclear Repulsion Energy =            385.5088180006140988
    One-Electron Energy =               -1237.2687400979302765
    Two-Electron Energy =                 502.5140269717312549
    DFT Exchange-Correlation Energy =       0.0000000000000000
    Empirical Dispersion Energy =           0.0000000000000000
    PCM Polarization Energy =               0.0000000000000000
    EFP Energy =                            0.0000000000000000
    Total Energy =                       -349.2458951255848660

  Mulliken Charges: (a.u.)
   Center  Symbol    Alpha    Beta     Spin     Total
       1     H     0.27844  0.27844  0.00000  0.44312
       2     O     4.37143  4.37143  0.00000 -0.74286
       3     C     2.99605  2.99605  0.00000  0.00790
       4     C     3.16236  3.16236  0.00000 -0.32472
       5     H     0.41430  0.41430  0.00000  0.17140
       6     H     0.43168  0.43168  0.00000  0.13664
       7     C     3.16658  3.16658  0.00000 -0.33317
       8     H     0.42326  0.42326  0.00000  0.15347
       9     H     0.41680  0.41680  0.00000  0.16640
      10     C     3.15226  3.15226  0.00000 -0.30452
      11     H     0.42467  0.42467  0.00000  0.15066
      12     H     0.42183  0.42183  0.00000  0.15635
      13     C     3.15288  3.15288  0.00000 -0.30575
      14     H     0.42080  0.42080  0.00000  0.15839
      15     H     0.42138  0.42138  0.00000  0.15724
      16     C     3.15264  3.15264  0.00000 -0.30527
      17     H     0.42461  0.42461  0.00000  0.15077
      18     H     0.42211  0.42211  0.00000  0.15578
      19     C     3.24133  3.24133  0.00000 -0.48266
      20     H     0.42063  0.42063  0.00000  0.15873
      21     H     0.42272  0.42272  0.00000  0.15456
      22     H     0.42237  0.42237  0.00000  0.15526
      23     H     0.41879  0.41879  0.00000  0.16242
      24     H     0.42008  0.42008  0.00000  0.15985

   Total alpha = 33.00000, Total beta = 33.00000, Total charge =  0.00000
