  ==> Input File <==

--------------------------------------------------------------------------
set {
	reference rhf
	basis 6-31G*
}

set_num_threads( 1 )
memory 2 gb

molecule MOL {
0 1

H	 2.377793	 -1.122257	 0.575425
N	 2.434251	 -0.367735	 -0.081097
C	 1.267428	 0.496480	 0.024474
H	 2.483919	 -0.780777	 -0.993152
C	 -0.016086	 -0.325158	 -0.029487
H	 1.288818	 1.183521	 -0.816092
H	 1.267576	 1.109062	 0.929528
C	 -1.282277	 0.529072	 0.046735
H	 -0.012495	 -0.908639	 -0.945788
H	 -0.015903	 -1.041248	 0.791956
C	 -2.563920	 -0.301775	 -0.006060
H	 -1.284084	 1.244622	 -0.773004
H	 -1.271387	 1.115393	 0.963286
H	 -2.621848	 -0.873522	 -0.927727
H	 -3.445135	 0.329952	 0.047812
H	 -2.609542	 -1.004582	 0.821105

	symmetry c1
}
set optking {
	frozen_dihedral = ("
		6 3 5 9,
		12 8 5 9
	")
}

ee = energy('scf')
oeprop('DIPOLE', 'QUADRUPOLE', 'MULLIKEN_CHARGES')
f=open( 'psi4out.xyz', 'w' )
f.write( "16  " )
f.write( str(ee) + "\n" )
f.write( MOL.save_string_xyz() )
f.close()
--------------------------------------------------------------------------

    Molecular point group: c1

    Geometry (in Angstrom), charge = 0, multiplicity = 1:

       Center              X                  Y                   Z               Mass
    ------------   -----------------  -----------------  -----------------  -----------------
           H          2.390429856985    -1.106928811481     0.589611378638     1.007825032070
           N          2.446887856985    -0.352406811481    -0.066910621362    14.003074004780
           C          1.280064856985     0.511808188519     0.038660378638    12.000000000000
           H          2.496555856985    -0.765448811481    -0.978965621362     1.007825032070
           C         -0.003449143015    -0.309829811481    -0.015300621362    12.000000000000
           H          1.301454856985     1.198849188519    -0.801905621362     1.007825032070
           H          1.280212856985     1.124390188519     0.943714378638     1.007825032070
           C         -1.269640143015     0.544400188519     0.060921378638    12.000000000000
           H          0.000141856985    -0.893310811481    -0.931601621362     1.007825032070
           H         -0.003266143015    -1.025919811481     0.806142378638     1.007825032070
           C         -2.551283143015    -0.286446811481     0.008126378638    12.000000000000
           H         -1.271447143015     1.259950188519    -0.758817621362     1.007825032070
           H         -1.258750143015     1.130721188519     0.977472378638     1.007825032070
           H         -2.609211143015    -0.858193811481    -0.913540621362     1.007825032070
           H         -3.432498143015     0.345280188519     0.061998378638     1.007825032070
           H         -2.596905143015    -0.989253811481     0.835291378638     1.007825032070

  Charge       = 0
  Multiplicity = 1
  Basis Set: 6-31G*
  Basis Set:

    Orbital Energies (a.u.)
    -----------------------

    Doubly Occupied:

       1A    -15.531419     2A    -11.241289     3A    -11.217403
       4A    -11.212664     5A    -11.210570     6A     -1.178863
       7A     -1.061488     8A     -0.959310     9A     -0.847822
      10A     -0.797905    11A     -0.679287    12A     -0.625266
      13A     -0.595217    14A     -0.590869    15A     -0.553733
      16A     -0.528975    17A     -0.498598    18A     -0.491274
      19A     -0.473814    20A     -0.467639    21A     -0.372391

  @DF-RHF Final Energy:  -212.31461858875988

   => Energetics <=

    Nuclear Repulsion Energy =            186.8282448900297084
    One-Electron Energy =                -656.0141413704259321
    Two-Electron Energy =                 256.8712778916357138
    DFT Exchange-Correlation Energy =       0.0000000000000000
    Empirical Dispersion Energy =           0.0000000000000000
    PCM Polarization Energy =               0.0000000000000000
    EFP Energy =                            0.0000000000000000
    Total Energy =                       -212.3146185887604815

  Mulliken Charges: (a.u.)
   Center  Symbol    Alpha    Beta     Spin     Total
       1     H     0.33527  0.33527  0.00000  0.32946
       2     N     3.91751  3.91751  0.00000 -0.83503
       3     C     3.06187  3.06187  0.00000 -0.12374
       4     H     0.33412  0.33412  0.00000  0.33176
       5     C     3.15640  3.15640  0.00000 -0.31279
       6     H     0.41957  0.41957  0.00000  0.16087
       7     H     0.41848  0.41848  0.00000  0.16304
       8     C     3.15616  3.15616  0.00000 -0.31231
       9     H     0.42699  0.42699  0.00000  0.14602
      10     H     0.42745  0.42745  0.00000  0.14510
      11     C     3.23857  3.23857  0.00000 -0.47713
      12     H     0.42266  0.42266  0.00000  0.15469
      13     H     0.42225  0.42225  0.00000  0.15550
      14     H     0.42184  0.42184  0.00000  0.15632
      15     H     0.41905  0.41905  0.00000  0.16191
      16     H     0.42183  0.42183  0.00000  0.15635

   Total alpha = 21.00000, Total beta = 21.00000, Total charge = -0.00000
