  ==> Input File <==

--------------------------------------------------------------------------
set {
	reference rhf
	basis 6-31G*
}

set_num_threads( 1 )
memory 2 gb

molecule MOL {
0 1

H	 -3.261111	 -0.295142	 1.469456
C	 -3.306842	 -0.277400	 0.373456
C	 -2.660244	 0.921717	 -0.272021
O	 -3.838538	 -1.161155	 -0.216482
C	 -3.197054	 2.249056	 0.281389
H	 -1.586915	 0.841679	 -0.144480
H	 -2.874870	 0.865453	 -1.338523
C	 -2.828535	 2.492890	 1.747007
H	 -2.806912	 3.058680	 -0.328186
H	 -4.279405	 2.277485	 0.165349
C	 -3.360130	 3.824196	 2.281652
H	 -1.745795	 2.466073	 1.850932
H	 -3.209964	 1.681074	 2.363454
C	 -2.976105	 4.072181	 3.742808
H	 -2.984465	 4.630007	 1.656130
H	 -4.445082	 3.843178	 2.187294
C	 -3.556198	 5.355896	 4.347489
H	 -1.891020	 4.092272	 3.831584
H	 -3.313113	 3.227008	 4.339315
C	 -3.022025	 6.648275	 3.727782
H	 -3.335798	 5.363581	 5.412061
H	 -4.640808	 5.335714	 4.263028
H	 -1.937334	 6.688437	 3.783456
H	 -3.303649	 6.745605	 2.684619
H	 -3.411389	 7.516005	 4.251648

	symmetry c1
}
set optking {
	frozen_dihedral = ("
		6 3 5 8,
		3 5 8 12,
		12 8 11 14,
		8 11 14 18,
		20 17 14 18
	")
}

ee = energy('scf')
oeprop('DIPOLE', 'QUADRUPOLE', 'MULLIKEN_CHARGES')
f=open( 'psi4out.xyz', 'w' )
f.write( "25  " )
f.write( str(ee) + "\n" )
f.write( MOL.save_string_xyz() )
f.close()
--------------------------------------------------------------------------

    Molecular point group: c1

    Geometry (in Angstrom), charge = 0, multiplicity = 1:

       Center              X                  Y                   Z               Mass
    ------------   -----------------  -----------------  -----------------  -----------------
           H         -0.063377717239    -2.977490164516    -0.310315034963     1.007825032070
           C         -0.109108717239    -2.959748164516    -1.406315034963    12.000000000000
           C          0.537489282761    -1.760631164516    -2.051792034963    12.000000000000
           O         -0.640804717239    -3.843503164516    -1.996253034963    15.994914619560
           C          0.000679282761    -0.433292164516    -1.498382034963    12.000000000000
           H          1.610818282761    -1.840669164516    -1.924251034963     1.007825032070
           H          0.322863282761    -1.816895164516    -3.118294034963     1.007825032070
           C          0.369198282761    -0.189458164516    -0.032764034963    12.000000000000
           H          0.390821282761     0.376331835484    -2.107957034963     1.007825032070
           H         -1.081671717239    -0.404863164516    -1.614422034963     1.007825032070
           C         -0.162396717239     1.141847835484     0.501880965037    12.000000000000
           H          1.451938282761    -0.216275164516     0.071160965037     1.007825032070
           H         -0.012230717239    -1.001274164516     0.583682965037     1.007825032070
           C          0.221628282761     1.389832835484     1.963036965037    12.000000000000
           H          0.213268282761     1.947658835484    -0.123641034963     1.007825032070
           H         -1.247348717239     1.160829835484     0.407522965037     1.007825032070
           C         -0.358464717239     2.673547835484     2.567717965037    12.000000000000
           H          1.306713282761     1.409923835484     2.051812965037     1.007825032070
           H         -0.115379717239     0.544659835484     2.559543965037     1.007825032070
           C          0.175708282761     3.965926835484     1.948010965037    12.000000000000
           H         -0.138064717239     2.681232835484     3.632289965037     1.007825032070
           H         -1.443074717239     2.653365835484     2.483256965037     1.007825032070
           H          1.260399282761     4.006088835484     2.003684965037     1.007825032070
           H         -0.105915717239     4.063256835484     0.904847965037     1.007825032070
           H         -0.213655717239     4.833656835484     2.471876965037     1.007825032070

  Charge       = 0
  Multiplicity = 1
  Basis Set: 6-31G*
  Basis Set:

    Orbital Energies (a.u.)
    -----------------------

    Doubly Occupied:

       1A    -20.561864     2A    -11.325050     3A    -11.235429
       4A    -11.234111     5A    -11.227722     6A    -11.222242
       7A    -11.220159     8A    -11.219573     9A    -11.212298
      10A     -1.401570    11A     -1.106261    12A     -1.071176
      13A     -1.014361    14A     -0.943343    15A     -0.877113
      16A     -0.829055    17A     -0.784449    18A     -0.780031
      19A     -0.674648    20A     -0.661241    21A     -0.633651
      22A     -0.619858    23A     -0.603159    24A     -0.597190
      25A     -0.568897    26A     -0.558419    27A     -0.543397
      28A     -0.519601    29A     -0.510921    30A     -0.502094
      31A     -0.489934    32A     -0.481788    33A     -0.467305
      34A     -0.461711    35A     -0.443289    36A     -0.406196

  @DF-RHF Final Energy:  -387.11939710879619

   => Energetics <=

    Nuclear Repulsion Energy =            437.3370129181688526
    One-Electron Energy =               -1390.8947315098030231
    Two-Electron Energy =                 566.4383214828396831
    DFT Exchange-Correlation Energy =       0.0000000000000000
    Empirical Dispersion Energy =           0.0000000000000000
    PCM Polarization Energy =               0.0000000000000000
    EFP Energy =                            0.0000000000000000
    Total Energy =                       -387.1193971087944874

  Mulliken Charges: (a.u.)
   Center  Symbol    Alpha    Beta     Spin     Total
       1     H     0.43089  0.43089  0.00000  0.13821
       2     C     2.83041  2.83041  0.00000  0.33918
       3     C     3.21041  3.21041  0.00000 -0.42082
       4     O     4.23821  4.23821  0.00000 -0.47643
       5     C     3.16576  3.16576  0.00000 -0.33151
       6     H     0.40689  0.40689  0.00000  0.18623
       7     H     0.39919  0.39919  0.00000  0.20162
       8     C     3.15823  3.15823  0.00000 -0.31646
       9     H     0.41223  0.41223  0.00000  0.17554
      10     H     0.41357  0.41357  0.00000  0.17287
      11     C     3.15360  3.15360  0.00000 -0.30720
      12     H     0.42096  0.42096  0.00000  0.15808
      13     H     0.42148  0.42148  0.00000  0.15705
      14     C     3.15308  3.15308  0.00000 -0.30615
      15     H     0.42014  0.42014  0.00000  0.15972
      16     H     0.42207  0.42207  0.00000  0.15585
      17     C     3.15281  3.15281  0.00000 -0.30561
      18     H     0.42371  0.42371  0.00000  0.15258
      19     H     0.42174  0.42174  0.00000  0.15653
      20     C     3.24148  3.24148  0.00000 -0.48295
      21     H     0.42002  0.42002  0.00000  0.15996
      22     H     0.42256  0.42256  0.00000  0.15487
      23     H     0.42210  0.42210  0.00000  0.15580
      24     H     0.42023  0.42023  0.00000  0.15954
      25     H     0.41824  0.41824  0.00000  0.16352

   Total alpha = 36.00000, Total beta = 36.00000, Total charge =  0.00000
