                              Psi4 1.0.54 Driver

  ==> Input File <==

--------------------------------------------------------------------------
set {
	reference rhf
	basis cc-pvtz
}

set_num_threads( 4 )
memory 2 gb

molecule MOL {
0 1

O	 0.536497	 1.224421	 0.802357
C	 0.438768	 0.106353	 0.425234
C	 1.567268	 -0.891940	 0.363921
O	 -0.695554	 -0.422406	 0.000602
C	 2.896720	 -0.331799	 0.843264
H	 1.632062	 -1.240476	 -0.660908
H	 1.266638	 -1.752640	 0.951077
H	 3.200714	 0.516232	 0.244392
H	 3.666080	 -1.091375	 0.776342
H	 2.831982	 -0.000571	 1.871041
C	 -1.852370	 0.402254	 0.000718
C	 -3.063338	 -0.501097	 -0.000437
H	 -1.831732	 1.039442	 -0.872158
H	 -1.832493	 1.038301	 0.874430
H	 -3.071944	 -1.133732	 -0.879113
H	 -3.966302	 0.097976	 -0.000483
H	 -3.072764	 -1.134834	 0.877435

	symmetry c1
}
set optking {
	frozen_dihedral = ("
		2 4 11 13
	")
}

ee,wfn = optimize('scf', return_wfn=True)
oeprop( wfn, 'DIPOLE', 'QUADRUPOLE', 'MULLIKEN_CHARGES')
f=open( 'psi4out.xyz', 'w' )
f.write( "17  " )
f.write( str(ee) + "\n" )
f.write( MOL.save_string_xyz() )
f.close()
--------------------------------------------------------------------------

    Molecular point group: c1
  Charge       = 0
  Multiplicity = 1
  Basis Set: CC-PVTZ
  Basis Set:
  @DF-RHF Final Energy:  -345.03986339675112
    Total Energy =                       -345.0398633967511159
    Molecular point group: c1
  Basis Set: CC-PVTZ
  Basis Set:
  Basis Set: CC-PVTZ
  Basis Set:
  @DF-RHF Final Energy:  -345.03991527716511
    Total Energy =                       -345.0399152771652780
  Basis Set: CC-PVTZ
  Basis Set:
  Basis Set: CC-PVTZ
  Basis Set:
  @DF-RHF Final Energy:  -345.03965259176260
    Total Energy =                       -345.0396525917627173
  Basis Set: CC-PVTZ
  Basis Set:
  Basis Set: CC-PVTZ
  Basis Set:
  @DF-RHF Final Energy:  -345.03997866547115
    Total Energy =                       -345.0399786654713807
  Basis Set: CC-PVTZ
  Basis Set:
  Basis Set: CC-PVTZ
  Basis Set:
  @DF-RHF Final Energy:  -345.03999249998429
    Total Energy =                       -345.0399924999842369
  Basis Set: CC-PVTZ
  Basis Set:
  Charge       = 0
  Multiplicity = 1
  Basis Set: CC-PVTZ
  Basis Set:

    Orbital Energies (a.u.)
    -----------------------

    Doubly Occupied:

       1A    -20.593209     2A    -20.532693     3A    -11.363882
       4A    -11.282322     5A    -11.235700     6A    -11.220259
       7A    -11.213672     8A     -1.469696     9A     -1.365085
      10A     -1.070797    11A     -1.032413    12A     -0.912171
      13A     -0.847990    14A     -0.774097    15A     -0.699972
      16A     -0.690458    17A     -0.667142    18A     -0.630214
      19A     -0.586228    20A     -0.573141    21A     -0.558113
      22A     -0.526139    23A     -0.520378    24A     -0.515507
      25A     -0.503596    26A     -0.494082    27A     -0.455324
      28A     -0.438948

  @DF-RHF Final Energy:  -345.03999261525780

   => Energetics <=

    Nuclear Repulsion Energy =            315.1977380505946940
    One-Electron Energy =               -1094.9290063405742330
    Two-Electron Energy =                 434.6912756747213393
    DFT Exchange-Correlation Energy =       0.0000000000000000
    Empirical Dispersion Energy =           0.0000000000000000
    PCM Polarization Energy =               0.0000000000000000
    EFP Energy =                            0.0000000000000000
    Total Energy =                       -345.0399926152581997
    Molecular point group: c1
  Basis Set: CC-PVTZ
  Basis Set:

  -Total Gradient:
     Atom            X                  Y                   Z
    ------   -----------------  -----------------  -----------------
       1        0.000039219604     0.000013874396     0.000013342710
       2       -0.000287647489    -0.000406342063     0.001277835928
       3       -0.000022257677    -0.000002718022     0.000018759659
       4        0.000218187275     0.000267108102    -0.002040043937
       5       -0.000001483608     0.000010788374    -0.000005519369
       6       -0.000001843936     0.000006945306    -0.000009000851
       7       -0.000001884585     0.000004402286    -0.000007588119
       8       -0.000000891926    -0.000000283864     0.000000980950
       9       -0.000004086565    -0.000000960255     0.000000597703
      10        0.000001015495     0.000000438943     0.000003580883
      11        0.000842004933     0.001184448032     0.001534781795
      12        0.000015640038     0.000003878619     0.000009803489
      13       -0.000790675104    -0.001071920051    -0.000801697562
      14       -0.000007709521    -0.000006204540    -0.000003765216
      15        0.000002050750     0.000004269513     0.000001764496
      16        0.000004534404    -0.000000093301     0.000001667023
      17       -0.000004172091    -0.000007631475     0.000004500417

  **** Optimization is complete! (in 6 steps) ****
    Final optimized geometry and variables:
    Molecular point group: c1

    Geometry (in Angstrom), charge = 0, multiplicity = 1:

    O            0.603570006539     1.287147549395     0.431219456042
    C            0.481746838478     0.165305979348     0.073171769985
    C            1.591719163885    -0.854424678800     0.023632071049
    O           -0.661988698006    -0.352425106696    -0.340925476136
    C            2.933767932280    -0.310603955574     0.486351527779
    H            1.644508721004    -1.221054100936    -0.995560905521
    H            1.278782143390    -1.699628147073     0.626573363809
    H            3.249772599368     0.521468467223    -0.128452984071
    H            3.688767283377    -1.085177781659     0.428314767216
    H            2.880871403798     0.039067739754     1.508679045338
    C           -1.823103534670     0.466900651733    -0.327407564563
    C           -3.031730055508    -0.440906660412    -0.352097504735
    H           -1.804648383124     1.104678739761    -1.201665488674
    H           -1.811139144409     1.092865817244     0.550645677170
    H           -3.022781205512    -1.072780247708    -1.231270436578
    H           -3.936575206839     0.155300914892    -0.368141647676
    H           -3.055015976946    -1.075444495358     0.525067000569

  Mulliken Charges: (a.u.)
   Center  Symbol    Alpha    Beta     Spin     Total
       1     O     4.19744  4.19744  0.00000 -0.39488
       2     C     2.80691  2.80691  0.00000  0.38617
       3     C     3.09428  3.09428  0.00000 -0.18855
       4     O     4.15245  4.15245  0.00000 -0.30490
       5     C     3.13984  3.13984  0.00000 -0.27968
       6     H     0.44133  0.44133  0.00000  0.11735
       7     H     0.44200  0.44200  0.00000  0.11599
       8     H     0.44839  0.44839  0.00000  0.10322
       9     H     0.45060  0.45060  0.00000  0.09879
      10     H     0.44856  0.44856  0.00000  0.10289
      11     C     2.98271  2.98271  0.00000  0.03457
      12     C     3.13268  3.13268  0.00000 -0.26536
      13     H     0.45635  0.45635  0.00000  0.08730
      14     H     0.44866  0.44866  0.00000  0.10267
      15     H     0.45135  0.45135  0.00000  0.09729
      16     H     0.45460  0.45460  0.00000  0.09079
      17     H     0.45183  0.45183  0.00000  0.09633

   Total alpha = 28.00000, Total beta = 28.00000, Total charge =  0.00000

*** Psi4 exiting successfully. Buy a developer a beer!
