  ==> Input File <==

--------------------------------------------------------------------------
set {
	reference rhf
	basis 6-31G*
}

set_num_threads( 4 )
memory 2 gb

molecule MOL {
0 1

H	 -3.654266	 1.363636	 0.002584
C	 -3.055204	 0.564864	 0.394692
C	 -1.953678	 0.208335	 -0.224605
H	 -3.378281	 0.074374	 1.293554
O	 -1.180634	 -0.819263	 0.215062
H	 -1.609032	 0.691433	 -1.121840
C	 0.051604	 -1.018856	 -0.387932
C	 1.043764	 0.054862	 -0.001873
H	 -0.017620	 -1.041351	 -1.469781
H	 0.437898	 -1.966374	 -0.042284
F	 2.212596	 -0.199467	 -0.571921
F	 0.652529	 1.252447	 -0.405055
F	 1.230877	 0.110694	 1.300533

	symmetry c1
}
set optking {
	frozen_dihedral = ("
		3 5 7 9
	")
}

ee = optimize('scf')
oeprop('DIPOLE', 'QUADRUPOLE', 'MULLIKEN_CHARGES')
f=open( 'psi4out.xyz', 'w' )
f.write( "13  " )
f.write( str(ee) + "\n" )
f.write( MOL.save_string_xyz() )
f.close()
--------------------------------------------------------------------------

    Molecular point group: c1
  Charge       = 0
  Multiplicity = 1
  Basis Set: 6-31G*
  Basis Set:
  @DF-RHF Final Energy:  -527.53469652908484
    Total Energy =                       -527.5346965290848402
    Molecular point group: c1
  Basis Set: 6-31G*
  Basis Set:
  Basis Set: 6-31G*
  Basis Set:
  @DF-RHF Final Energy:  -527.53518866958484
    Total Energy =                       -527.5351886695849544
  Basis Set: 6-31G*
  Basis Set:
  Basis Set: 6-31G*
  Basis Set:
  @DF-RHF Final Energy:  -527.53530698059922
    Total Energy =                       -527.5353069805991026
  Basis Set: 6-31G*
  Basis Set:
  Basis Set: 6-31G*
  Basis Set:
  @DF-RHF Final Energy:  -527.53533246358188
    Total Energy =                       -527.5353324635821082
  Basis Set: 6-31G*
  Basis Set:
  Basis Set: 6-31G*
  Basis Set:
  @DF-RHF Final Energy:  -527.53533456679816
    Total Energy =                       -527.5353345667983831
  Basis Set: 6-31G*
  Basis Set:
  Charge       = 0
  Multiplicity = 1
  Basis Set: 6-31G*
  Basis Set:

    Orbital Energies (a.u.)
    -----------------------

    Doubly Occupied:

       1A    -26.345219     2A    -26.344853     3A    -26.341453
       4A    -20.607532     5A    -11.504455     6A    -11.318365
       7A    -11.297879     8A    -11.216298     9A     -1.742748
      10A     -1.640643    11A     -1.639249    12A     -1.436904
      13A     -1.083026    14A     -1.017207    15A     -0.926069
      16A     -0.836633    17A     -0.831474    18A     -0.824877
      19A     -0.787586    20A     -0.721032    21A     -0.711526
      22A     -0.695182    23A     -0.675697    24A     -0.661583
      25A     -0.655434    26A     -0.643947    27A     -0.636897
      28A     -0.586224    29A     -0.562918    30A     -0.523189
      31A     -0.508181    32A     -0.352942

  @DF-RHF Final Energy:  -527.53533491613643

   => Energetics <=

    Nuclear Repulsion Energy =            415.1192804018850211
    One-Electron Energy =               -1553.9547884103203614
    Two-Electron Energy =                 611.3001730922985644
    DFT Exchange-Correlation Energy =       0.0000000000000000
    Empirical Dispersion Energy =           0.0000000000000000
    PCM Polarization Energy =               0.0000000000000000
    EFP Energy =                            0.0000000000000000
    Total Energy =                       -527.5353349161366623
    Molecular point group: c1
  Basis Set: 6-31G*
  Basis Set:

  -Total Gradient:
     Atom            X                  Y                   Z
    ------   -----------------  -----------------  -----------------
       1       -0.000006839666    -0.000015391651    -0.000006501684
       2       -0.000010799231     0.000000704241    -0.000015982815
       3        0.000835876300     0.001319036076     0.001445916477
       4       -0.000001330524    -0.000007225058    -0.000001625415
       5       -0.001230097468    -0.002587717619    -0.002100782424
       6       -0.000040108346    -0.000016114766     0.000009450989
       7        0.000682862549     0.003671497230     0.000655196856
       8        0.000013793821     0.000071486168    -0.000037534217
       9       -0.000274879580    -0.002435597124     0.000012304250
      10       -0.000009927257     0.000012180676    -0.000004226577
      11       -0.000008332637    -0.000017645185     0.000045235785
      12        0.000007412286     0.000046059289    -0.000037837555
      13        0.000042369753    -0.000041272280     0.000036386336

  **** Optimization is complete! (in 6 steps) ****
    Final optimized geometry and variables:
    Molecular point group: c1

    Geometry (in Angstrom), charge = 0, multiplicity = 1:

    H           -3.685609121285     1.311856310770    -0.034623690420
    C           -3.049641275965     0.543701411575     0.360719219087
    C           -2.023705509449     0.117732471107    -0.338841655480
    H           -3.276363021420     0.137152843045     1.328431688412
    O           -1.225020431600    -0.892901668560     0.098882237910
    H           -1.774131847542     0.513489527120    -1.307490674348
    C            0.028131843311    -1.034907546993    -0.476668480368
    C            1.015762216187     0.019397462463    -0.026757442533
    H           -0.015850152308    -1.034947156220    -1.560884506802
    H            0.413770775965    -1.990722277563    -0.154300795702
    F            2.205422343119    -0.252720803503    -0.542441368732
    F            0.675814046230     1.233152392834    -0.429104291606
    F            1.137572925323     0.051354621406     1.284170027501

  Mulliken Charges: (a.u.)
   Center  Symbol    Alpha    Beta     Spin     Total
       1     H     0.40695  0.40695  0.00000  0.18609
       2     C     3.23286  3.23286  0.00000 -0.46573
       3     C     2.89883  2.89883  0.00000  0.20235
       4     H     0.40183  0.40183  0.00000  0.19635
       5     O     4.30137  4.30137  0.00000 -0.60274
       6     H     0.40633  0.40633  0.00000  0.18734
       7     C     3.06245  3.06245  0.00000 -0.12489
       8     C     2.45868  2.45868  0.00000  1.08263
       9     H     0.40552  0.40552  0.00000  0.18897
      10     H     0.38927  0.38927  0.00000  0.22145
      11     F     4.68250  4.68250  0.00000 -0.36500
      12     F     4.67932  4.67932  0.00000 -0.35864
      13     F     4.67409  4.67409  0.00000 -0.34818

   Total alpha = 32.00000, Total beta = 32.00000, Total charge =  0.00000
