  ==> Input File <==

--------------------------------------------------------------------------
set {
	reference rhf
	basis cc-pvtz
}

set_num_threads( 4 )
memory 2 gb

molecule MOL {
0 1

H	 -2.599262	 -0.495334	 -0.023082
N	 -1.852575	 0.166496	 -0.019739
C	 -0.561396	 -0.500007	 0.035200
H	 -1.984056	 0.755106	 0.776242
C	 0.575129	 0.507849	 -0.048832
H	 -0.500767	 -1.176977	 -0.810526
H	 -0.434401	 -1.108054	 0.932176
C	 1.951750	 -0.141983	 0.035101
H	 0.478254	 1.061643	 -0.975981
H	 0.467676	 1.231891	 0.755499
H	 2.101550	 -0.848142	 -0.774949
H	 2.738260	 0.600794	 -0.026526
H	 2.078939	 -0.679792	 0.968824

	symmetry c1
}
set optking {
	frozen_dihedral = ("
		6 3 5 9
	")
}

ee = optimize('scf')
oeprop('DIPOLE', 'QUADRUPOLE', 'MULLIKEN_CHARGES')
f=open( 'psi4out.xyz', 'w' )
f.write( "13  " )
f.write( str(ee) + "\n" )
f.write( MOL.save_string_xyz() )
f.close()
--------------------------------------------------------------------------

    Molecular point group: c1
  Charge       = 0
  Multiplicity = 1
  Basis Set: CC-PVTZ
  Basis Set:
  @DF-RHF Final Energy:  -173.35258612883283
    Total Energy =                       -173.3525861288328827
    Molecular point group: c1
  Basis Set: CC-PVTZ
  Basis Set:
  Basis Set: CC-PVTZ
  Basis Set:
  @DF-RHF Final Energy:  -173.35258919401792
    Total Energy =                       -173.3525891940179804
  Basis Set: CC-PVTZ
  Basis Set:
  Charge       = 0
  Multiplicity = 1
  Basis Set: CC-PVTZ
  Basis Set:

    Orbital Energies (a.u.)
    -----------------------

    Doubly Occupied:

       1A    -15.526690     2A    -11.238379     3A    -11.210468
       4A    -11.207013     5A     -1.178459     6A     -1.036377
       7A     -0.899327     8A     -0.800131     9A     -0.663687
      10A     -0.630215    11A     -0.604574    12A     -0.566232
      13A     -0.531457    14A     -0.492492    15A     -0.477773
      16A     -0.469040    17A     -0.384420

  @DF-RHF Final Energy:  -173.35259013090555

   => Energetics <=

    Nuclear Repulsion Energy =            131.9907071796219782
    One-Electron Energy =                -494.8531267316659523
    Two-Electron Energy =                 189.5098294211384200
    DFT Exchange-Correlation Energy =       0.0000000000000000
    Empirical Dispersion Energy =           0.0000000000000000
    PCM Polarization Energy =               0.0000000000000000
    EFP Energy =                            0.0000000000000000
    Total Energy =                       -173.3525901309055826
    Molecular point group: c1
  Basis Set: CC-PVTZ
  Basis Set:

  -Total Gradient:
     Atom            X                  Y                   Z
    ------   -----------------  -----------------  -----------------
       1       -0.000007066990     0.000004898141     0.000001669687
       2        0.000026945747    -0.000014446573     0.000008621470
       3        0.000414478357    -0.000438273363     0.000269449810
       4       -0.000011328480     0.000010688925     0.000001324886
       5       -0.000413757636     0.000460462050     0.000223479249
       6       -0.000281019326     0.000302925676    -0.000283957921
       7       -0.000001069661    -0.000009165957     0.000017416278
       8       -0.000018045608     0.000016062703    -0.000002533624
       9        0.000286824851    -0.000334189468    -0.000245939591
      10        0.000000297617     0.000003914524     0.000008795322
      11        0.000000736041     0.000003144500     0.000002829193
      12        0.000002424931    -0.000002887211    -0.000002232924
      13        0.000000580161    -0.000003133946     0.000001078165

  **** Optimization is complete! (in 3 steps) ****
    Final optimized geometry and variables:
    Molecular point group: c1

    Geometry (in Angstrom), charge = 0, multiplicity = 1:

    H           -2.599183801635    -0.496183067517    -0.045026294575
    N           -1.852299586901     0.165386788145    -0.036194643790
    C           -0.561296848008    -0.501223334600     0.023845985386
    H           -1.988095613727     0.752383944355     0.760240661776
    C            0.574707974772     0.507453627187    -0.059163579546
    H           -0.499381441127    -1.177244783384    -0.822534121562
    H           -0.437201624635    -1.108339725114     0.921791968065
    C            1.951458030409    -0.143037670195     0.019463755482
    H            0.477982307819     1.061912298858    -0.985931289671
    H            0.469157119417     1.229349501162     0.747119295145
    H            2.096201538656    -0.852415129054    -0.788759458287
    H            2.738106103482     0.598958902091    -0.049674899334
    H            2.083554233699    -0.677421897792     0.954444138218

  Mulliken Charges: (a.u.)
   Center  Symbol    Alpha    Beta     Spin     Total
       1     H     0.42981  0.42981  0.00000  0.14038
       2     N     3.68999  3.68999  0.00000 -0.37997
       3     C     3.02225  3.02225  0.00000 -0.04450
       4     H     0.43084  0.43084  0.00000  0.13831
       5     C     3.07752  3.07752  0.00000 -0.15504
       6     H     0.45735  0.45735  0.00000  0.08530
       7     H     0.46987  0.46987  0.00000  0.06026
       8     C     3.15291  3.15291  0.00000 -0.30582
       9     H     0.44938  0.44938  0.00000  0.10123
      10     H     0.46019  0.46019  0.00000  0.07963
      11     H     0.45516  0.45516  0.00000  0.08969
      12     H     0.44778  0.44778  0.00000  0.10444
      13     H     0.45695  0.45695  0.00000  0.08610

   Total alpha = 17.00000, Total beta = 17.00000, Total charge = -0.00000
