  ==> Input File <==

--------------------------------------------------------------------------
set {
	reference rhf
	basis 6-31G*
}

set_num_threads( 4 )
memory 2 gb

molecule MOL {
0 1

H	 -2.980170	 2.113834	 0.429556
C	 -2.315563	 2.105074	 1.291161
O	 -0.986816	 1.954949	 0.907455
H	 -2.400737	 3.050695	 1.808548
H	 -2.631394	 1.307490	 1.962382
C	 -0.719715	 0.768384	 0.229244
C	 0.719720	 0.768376	 -0.229267
H	 -0.887256	 -0.087487	 0.884308
H	 -1.371485	 0.661653	 -0.635516
O	 1.392611	 -0.295398	 0.366430
H	 0.750534	 0.687200	 -1.313918
H	 1.185043	 1.714359	 0.050526
C	 2.706965	 -0.449871	 -0.062409
H	 2.756559	 -0.644779	 -1.131878
H	 3.305899	 0.433456	 0.155466
H	 3.125548	 -1.294566	 0.467107

	symmetry c1
}
set optking {
	frozen_dihedral = ("
		3 6 7 11
	")
}

ee = optimize('scf')
oeprop('DIPOLE', 'QUADRUPOLE', 'MULLIKEN_CHARGES')
f=open( 'psi4out.xyz', 'w' )
f.write( "16  " )
f.write( str(ee) + "\n" )
f.write( MOL.save_string_xyz() )
f.close()
--------------------------------------------------------------------------

    Molecular point group: c1
  Charge       = 0
  Multiplicity = 1
  Basis Set: 6-31G*
  Basis Set:
  @DF-RHF Final Energy:  -306.97330492001663
    Total Energy =                       -306.9733049200167443
    Molecular point group: c1
  Basis Set: 6-31G*
  Basis Set:
  Basis Set: 6-31G*
  Basis Set:
  @DF-RHF Final Energy:  -306.97390377047105
    Total Energy =                       -306.9739037704709972
  Basis Set: 6-31G*
  Basis Set:
  Basis Set: 6-31G*
  Basis Set:
  @DF-RHF Final Energy:  -306.97399166721272
    Total Energy =                       -306.9739916672127720
  Basis Set: 6-31G*
  Basis Set:
  Charge       = 0
  Multiplicity = 1
  Basis Set: 6-31G*
  Basis Set:

    Orbital Energies (a.u.)
    -----------------------

    Doubly Occupied:

       1A    -20.556376     2A    -20.556364     3A    -11.267899
       4A    -11.267289     5A    -11.265211     6A    -11.265207
       7A     -1.386993     8A     -1.374502     9A     -1.027260
      10A     -0.939058    11A     -0.885953    12A     -0.830941
      13A     -0.685603    14A     -0.677403    15A     -0.656734
      16A     -0.641900    17A     -0.627265    18A     -0.598924
      19A     -0.555740    20A     -0.529324    21A     -0.507952
      22A     -0.480420    23A     -0.465411    24A     -0.420649
      25A     -0.411439

  @DF-RHF Final Energy:  -306.97399756099003

   => Energetics <=

    Nuclear Repulsion Energy =            255.4223729945552179
    One-Electron Energy =                -925.0291068739536513
    Two-Electron Energy =                 362.6327363184084902
    DFT Exchange-Correlation Energy =       0.0000000000000000
    Empirical Dispersion Energy =           0.0000000000000000
    PCM Polarization Energy =               0.0000000000000000
    EFP Energy =                            0.0000000000000000
    Total Energy =                       -306.9739975609899716
    Molecular point group: c1
  Basis Set: 6-31G*
  Basis Set:

  -Total Gradient:
     Atom            X                  Y                   Z
    ------   -----------------  -----------------  -----------------
       1       -0.000012478094    -0.000007726612     0.000011407403
       2        0.000015111410     0.000085069702     0.000012598589
       3        0.000028008650    -0.000212207729    -0.000002171992
       4       -0.000040434805    -0.000000845673     0.000017239123
       5        0.000002589551    -0.000002939417    -0.000004973634
       6       -0.000049859439     0.000214448571    -0.000005839365
       7        0.000074057500    -0.000095072638     0.000076052123
       8        0.000005232935    -0.000015753290     0.000001586045
       9       -0.000011632111    -0.000020126583    -0.000030917792
      10       -0.000050252622     0.000174933267    -0.000069078577
      11       -0.000009700674    -0.000065908106    -0.000029360668
      12       -0.000004269861     0.000014909491     0.000002088993
      13        0.000000048685    -0.000081516828     0.000033341315
      14        0.000016595613     0.000008946106     0.000000256534
      15       -0.000005740852     0.000002057172    -0.000002782031
      16        0.000042724112     0.000001732566    -0.000009446067

  **** Optimization is complete! (in 4 steps) ****
    Final optimized geometry and variables:
    Molecular point group: c1

    Geometry (in Angstrom), charge = 0, multiplicity = 1:

    H           -3.149442244780     1.251431640065     0.135912677632
    C           -2.411198364511     1.295618646796     0.935056386413
    O           -1.116089010064     1.174046210603     0.440733410533
    H           -2.484942527707     2.256092176227     1.426347682418
    H           -2.637377778567     0.512335477424     1.655986888084
    C           -0.872846552490    -0.029504132600    -0.226020447018
    C            0.582317561089    -0.058211042288    -0.686673130879
    H           -1.043258199270    -0.875193208117     0.434088609520
    H           -1.552120704198    -0.123682023107    -1.071845764554
    O            1.229821279046    -1.139513123990    -0.083433513549
    H            0.647166941912    -0.150709967989    -1.769700479811
    H            1.053607013018     0.878452050051    -0.402970521325
    C            2.578523511121    -1.245221749577    -0.409411243391
    H            2.721059264360    -1.381286868694    -1.480281864580
    H            3.133825381614    -0.362595451913    -0.097897638241
    H            2.973436284497    -2.108566629560     0.108271165927

  Mulliken Charges: (a.u.)
   Center  Symbol    Alpha    Beta     Spin     Total
       1     H     0.43046  0.43046  0.00000  0.13908
       2     C     3.08046  3.08046  0.00000 -0.16092
       3     O     4.30719  4.30719  0.00000 -0.61438
       4     H     0.41161  0.41161  0.00000  0.17678
       5     H     0.42808  0.42808  0.00000  0.14385
       6     C     2.99998  2.99998  0.00000  0.00004
       7     C     2.99996  2.99996  0.00000  0.00008
       8     H     0.41266  0.41266  0.00000  0.17467
       9     H     0.42956  0.42956  0.00000  0.14088
      10     O     4.30720  4.30720  0.00000 -0.61440
      11     H     0.42957  0.42957  0.00000  0.14087
      12     H     0.41266  0.41266  0.00000  0.17468
      13     C     3.08045  3.08045  0.00000 -0.16091
      14     H     0.43047  0.43047  0.00000  0.13906
      15     H     0.42808  0.42808  0.00000  0.14384
      16     H     0.41161  0.41161  0.00000  0.17678

   Total alpha = 25.00000, Total beta = 25.00000, Total charge = -0.00000
