  ==> Input File <==

--------------------------------------------------------------------------
set {
	reference rhf
	basis 6-31G*
}

set_num_threads( 1 )
memory 2 gb

molecule MOL {
0 1

H	 3.463771	 0.168298	 -0.756243
C	 2.752674	 -0.045734	 0.033351
C	 1.322923	 0.120767	 -0.479465
H	 2.934561	 -1.059086	 0.377456
H	 2.958358	 0.631174	 0.856809
C	 0.306652	 -0.176050	 0.621399
H	 1.144658	 -0.551717	 -1.312180
H	 1.166477	 1.131798	 -0.836680
N	 -1.068537	 -0.011044	 0.085269
H	 0.372515	 -1.192590	 0.973735
H	 0.391664	 0.520566	 1.441230
O	 -1.567485	 1.068326	 0.171208
O	 -1.592930	 -0.982730	 -0.367349

	symmetry c1
}
set optking {
	frozen_dihedral = ("
		7 3 6 9
	")
}

ee = energy('scf')
oeprop('DIPOLE', 'QUADRUPOLE', 'MULLIKEN_CHARGES')
f=open( 'psi4out.xyz', 'w' )
f.write( "13  " )
f.write( str(ee) + "\n" )
f.write( MOL.save_string_xyz() )
f.close()
--------------------------------------------------------------------------

    Molecular point group: c1

    Geometry (in Angstrom), charge = 0, multiplicity = 1:

       Center              X                  Y                   Z               Mass
    ------------   -----------------  -----------------  -----------------  -----------------
           H          3.468230385714     0.172251625613    -0.766463809820     1.007825032070
           C          2.757133385714    -0.041780374387     0.023130190180    12.000000000000
           C          1.327382385714     0.124720625613    -0.489685809820    12.000000000000
           H          2.939020385714    -1.055132374387     0.367235190180     1.007825032070
           H          2.962817385714     0.635127625613     0.846588190180     1.007825032070
           C          0.311111385714    -0.172096374387     0.611178190180    12.000000000000
           H          1.149117385714    -0.547763374387    -1.322400809820     1.007825032070
           H          1.170936385714     1.135751625613    -0.846900809820     1.007825032070
           N         -1.064077614286    -0.007090374387     0.075048190180    14.003074004780
           H          0.376974385714    -1.188636374387     0.963514190180     1.007825032070
           H          0.396123385714     0.524519625613     1.431009190180     1.007825032070
           O         -1.563025614286     1.072279625613     0.160987190180    15.994914619560
           O         -1.588470614286    -0.978776374387    -0.377569809820    15.994914619560

  Charge       = 0
  Multiplicity = 1
  Basis Set: 6-31G*
  Basis Set:

    Orbital Energies (a.u.)
    -----------------------

    Doubly Occupied:

       1A    -20.600631     2A    -20.599961     3A    -15.846730
       4A    -11.299030     5A    -11.257732     6A    -11.240366
       7A     -1.630294     8A     -1.415820     9A     -1.135749
      10A     -1.028588    11A     -0.884051    12A     -0.834079
      13A     -0.758080    14A     -0.734017    15A     -0.722575
      16A     -0.672893    17A     -0.604507    18A     -0.589348
      19A     -0.551749    20A     -0.521777    21A     -0.515906
      22A     -0.483110    23A     -0.473295    24A     -0.447518

  @DF-RHF Final Energy:  -321.73526275691586

   => Energetics <=

    Nuclear Repulsion Energy =            247.2505061182338011
    One-Electron Energy =                -928.2759366028969907
    Two-Electron Energy =                 359.2901677277470753
    DFT Exchange-Correlation Energy =       0.0000000000000000
    Empirical Dispersion Energy =           0.0000000000000000
    PCM Polarization Energy =               0.0000000000000000
    EFP Energy =                            0.0000000000000000
    Total Energy =                       -321.7352627569160859

  Mulliken Charges: (a.u.)
   Center  Symbol    Alpha    Beta     Spin     Total
       1     H     0.40732  0.40732  0.00000  0.18536
       2     C     3.24797  3.24797  0.00000 -0.49593
       3     C     3.17368  3.17368  0.00000 -0.34735
       4     H     0.41440  0.41440  0.00000  0.17119
       5     H     0.41457  0.41457  0.00000  0.17085
       6     C     3.08261  3.08261  0.00000 -0.16521
       7     H     0.39947  0.39947  0.00000  0.20107
       8     H     0.39903  0.39903  0.00000  0.20195
       9     N     3.22316  3.22316  0.00000  0.55367
      10     H     0.38747  0.38747  0.00000  0.22506
      11     H     0.38825  0.38825  0.00000  0.22351
      12     O     4.23092  4.23092  0.00000 -0.46184
      13     O     4.23116  4.23116  0.00000 -0.46232

   Total alpha = 24.00000, Total beta = 24.00000, Total charge = -0.00000
