                              Psi4 1.0.54 Driver

  ==> Input File <==

--------------------------------------------------------------------------
set {
	reference rhf
	basis cc-pvtz
}

set_num_threads( 4 )
memory 2 gb

molecule MOL {
0 1

H	 1.590656	 -1.439680	 1.507901
C	 1.749223	 -0.439246	 1.084060
C	 0.508571	 0.398549	 0.943772
O	 2.836309	 -0.094566	 0.772493
C	 -0.554654	 -0.292621	 0.086567
H	 0.787666	 1.357778	 0.528055
H	 0.113555	 0.565150	 1.943815
C	 -1.846385	 0.513195	 -0.016346
H	 -0.155115	 -0.462764	 -0.909103
H	 -0.775202	 -1.272763	 0.501720
C	 -3.089953	 -0.365049	 -0.098564
H	 -1.798267	 1.154820	 -0.891143
H	 -1.925398	 1.173265	 0.842889
H	 -3.055079	 -1.012299	 -0.968245
H	 -3.988403	 0.236438	 -0.170014
H	 -3.183055	 -0.995885	 0.779079

	symmetry c1
}
set optking {
	frozen_dihedral = ("
		9 5 8 12
	")
}

ee,wfn = optimize('scf', return_wfn=True)
oeprop( wfn, 'DIPOLE', 'QUADRUPOLE', 'MULLIKEN_CHARGES')
f=open( 'psi4out.xyz', 'w' )
f.write( "16  " )
f.write( str(ee) + "\n" )
f.write( MOL.save_string_xyz() )
f.close()
--------------------------------------------------------------------------

    Molecular point group: c1
  Charge       = 0
  Multiplicity = 1
  Basis Set: CC-PVTZ
  Basis Set:
  @DF-RHF Final Energy:  -270.11557214272517
    Total Energy =                       -270.1155721427253411
    Molecular point group: c1
  Basis Set: CC-PVTZ
  Basis Set:
  Basis Set: CC-PVTZ
  Basis Set:
  @DF-RHF Final Energy:  -270.11582917411920
    Total Energy =                       -270.1158291741194262
  Basis Set: CC-PVTZ
  Basis Set:
  Basis Set: CC-PVTZ
  Basis Set:
  @DF-RHF Final Energy:  -270.11590877568062
    Total Energy =                       -270.1159087756807367
  Basis Set: CC-PVTZ
  Basis Set:
  Basis Set: CC-PVTZ
  Basis Set:
  @DF-RHF Final Energy:  -270.11594551282928
    Total Energy =                       -270.1159455128293416
  Basis Set: CC-PVTZ
  Basis Set:
  Basis Set: CC-PVTZ
  Basis Set:
  @DF-RHF Final Energy:  -270.11594927726583
    Total Energy =                       -270.1159492772655994
  Basis Set: CC-PVTZ
  Basis Set:
  Basis Set: CC-PVTZ
  Basis Set:
  @DF-RHF Final Energy:  -270.11595061461549
    Total Energy =                       -270.1159506146154854
  Basis Set: CC-PVTZ
  Basis Set:
  Charge       = 0
  Multiplicity = 1
  Basis Set: CC-PVTZ
  Basis Set:

    Orbital Energies (a.u.)
    -----------------------

    Doubly Occupied:

       1A    -20.552010     2A    -11.321014     3A    -11.234732
       4A    -11.233911     5A    -11.227483     6A    -11.217025
       7A     -1.406672     8A     -1.096509     9A     -1.019819
      10A     -0.906293    11A     -0.812592    12A     -0.793712
      13A     -0.682716    14A     -0.644144    15A     -0.634290
      16A     -0.610502    17A     -0.580121    18A     -0.550240
      19A     -0.534171    20A     -0.508956    21A     -0.488259
      22A     -0.483102    23A     -0.477352    24A     -0.411011

  @DF-RHF Final Energy:  -270.11595102194497

   => Energetics <=

    Nuclear Repulsion Energy =            229.3381968678617966
    One-Electron Energy =                -820.0550211436916470
    Two-Electron Energy =                 320.6008732538850836
    DFT Exchange-Correlation Energy =       0.0000000000000000
    Empirical Dispersion Energy =           0.0000000000000000
    PCM Polarization Energy =               0.0000000000000000
    EFP Energy =                            0.0000000000000000
    Total Energy =                       -270.1159510219447384
    Molecular point group: c1
  Basis Set: CC-PVTZ
  Basis Set:

  -Total Gradient:
     Atom            X                  Y                   Z
    ------   -----------------  -----------------  -----------------
       1       -0.000004270748    -0.000002810327    -0.000001529228
       2       -0.000001308202    -0.000009972927    -0.000002440525
       3       -0.000026093536    -0.000021277423    -0.000027658867
       4        0.000022468857     0.000013475592     0.000013563364
       5       -0.003442330654    -0.005361638385    -0.000863429213
       6        0.000006876278     0.000003816756    -0.000005723413
       7        0.000011166841     0.000005958260     0.000006220975
       8        0.002905473854     0.004845922939     0.003068157865
       9        0.002425656648     0.003761765215     0.000246233752
      10       -0.000002495567    -0.000006946666     0.000009667891
      11        0.000013519437    -0.000000056819    -0.000006902186
      12       -0.001893937876    -0.003227201585    -0.002452373773
      13        0.000000071650     0.000001000737     0.000013972483
      14        0.000000878814    -0.000005714048    -0.000010640647
      15       -0.000014648525     0.000011992572    -0.000002434199
      16       -0.000001027262    -0.000008313891     0.000015315721

  **** Optimization is complete! (in 7 steps) ****
    Final optimized geometry and variables:
    Molecular point group: c1

    Geometry (in Angstrom), charge = 0, multiplicity = 1:

    H            1.714605020033    -1.381825150109     1.032129884808
    C            1.844429724244    -0.387056395580     0.585493851286
    C            0.592380179641     0.440506153150     0.496453068367
    O            2.911764581651    -0.041389493929     0.212351932915
    C           -0.503601545170    -0.265632767025    -0.310408266196
    H            0.844320530413     1.399015066072     0.061362877015
    H            0.240212323135     0.611297667288     1.511419308763
    C           -1.786624589032     0.570204483010    -0.417783202617
    H           -0.111130457674    -0.452335468291    -1.304733848847
    H           -0.720505660514    -1.228155556017     0.141916569937
    C           -3.042481201006    -0.289495428037    -0.541514160203
    H           -1.726377143511     1.201436070912    -1.297811813183
    H           -1.881400732872     1.222921191006     0.443217381503
    H           -2.979017290852    -0.951669755496    -1.398718839332
    H           -3.926744119115     0.325057300261    -0.663894305868
    H           -3.184824795020    -0.904787945712     0.340544296102

  Mulliken Charges: (a.u.)
   Center  Symbol    Alpha    Beta     Spin     Total
       1     H     0.46540  0.46540  0.00000  0.06919
       2     C     2.91052  2.91052  0.00000  0.17897
       3     C     3.07814  3.07814  0.00000 -0.15627
       4     O     4.16378  4.16378  0.00000 -0.32757
       5     C     3.10319  3.10319  0.00000 -0.20639
       6     H     0.44201  0.44201  0.00000  0.11597
       7     H     0.45061  0.45061  0.00000  0.09878
       8     C     3.08499  3.08499  0.00000 -0.16999
       9     H     0.44437  0.44437  0.00000  0.11127
      10     H     0.45144  0.45144  0.00000  0.09711
      11     C     3.14810  3.14810  0.00000 -0.29620
      12     H     0.44895  0.44895  0.00000  0.10211
      13     H     0.45269  0.45269  0.00000  0.09462
      14     H     0.45291  0.45291  0.00000  0.09418
      15     H     0.44740  0.44740  0.00000  0.10521
      16     H     0.45550  0.45550  0.00000  0.08900

   Total alpha = 24.00000, Total beta = 24.00000, Total charge = -0.00000

*** Psi4 exiting successfully. Buy a developer a beer!
