  ==> Input File <==

--------------------------------------------------------------------------
set {
	reference rhf
	basis cc-pvtz
}

set_num_threads( 4 )
memory 2 gb

molecule MOL {
0 1

H	 -4.017483	 -0.513665	 -0.328116
C	 -2.955337	 -0.359240	 -0.341300
C	 -2.439217	 0.850621	 -0.769669
C	 -2.107251	 -1.370021	 0.069861
H	 -3.098099	 1.634723	 -1.088663
C	 -1.074249	 1.048310	 -0.786327
H	 -2.508501	 -2.307908	 0.401884
C	 -0.740263	 -1.173601	 0.053758
H	 -0.657729	 1.978684	 -1.114922
C	 -0.219785	 0.037175	 -0.374769
H	 -0.080705	 -1.954330	 0.371526
C	 1.247274	 0.300433	 -0.411560
O	 1.968286	 -0.725612	 -0.000027
O	 1.724762	 1.323724	 -0.772198
C	 3.373556	 -0.568203	 0.000011
H	 3.695416	 -0.031588	 -0.879663
H	 3.782700	 -1.565294	 -0.000152
H	 3.695405	 -0.031851	 0.879862

	symmetry c1
}
set optking {
	frozen_dihedral = ("
		12 13 15 16
	")
}

ee = optimize('scf')
oeprop('DIPOLE', 'QUADRUPOLE', 'MULLIKEN_CHARGES')
f=open( 'psi4out.xyz', 'w' )
f.write( "18  " )
f.write( str(ee) + "\n" )
f.write( MOL.save_string_xyz() )
f.close()
--------------------------------------------------------------------------

    Molecular point group: c1
  Charge       = 0
  Multiplicity = 1
  Basis Set: CC-PVTZ
  Basis Set:
  @DF-RHF Final Energy:  -457.50953569879130
    Total Energy =                       -457.5095356987911828
    Molecular point group: c1
  Basis Set: CC-PVTZ
  Basis Set:
  Basis Set: CC-PVTZ
  Basis Set:
  @DF-RHF Final Energy:  -457.50958098603650
    Total Energy =                       -457.5095809860366671
  Basis Set: CC-PVTZ
  Basis Set:
  Basis Set: CC-PVTZ
  Basis Set:
  @DF-RHF Final Energy:  -457.50937487365530
    Total Energy =                       -457.5093748736555881
  Basis Set: CC-PVTZ
  Basis Set:
  Basis Set: CC-PVTZ
  Basis Set:
  @DF-RHF Final Energy:  -457.50962973184852
    Total Energy =                       -457.5096297318483494
  Basis Set: CC-PVTZ
  Basis Set:
  Charge       = 0
  Multiplicity = 1
  Basis Set: CC-PVTZ
  Basis Set:

    Orbital Energies (a.u.)
    -----------------------

    Doubly Occupied:

       1A    -20.600704     2A    -20.534284     3A    -11.372173
       4A    -11.280913     5A    -11.244921     6A    -11.243437
       7A    -11.242616     8A    -11.239970     9A    -11.235994
      10A    -11.235231    11A     -1.476382    12A     -1.368660
      13A     -1.170699    14A     -1.051795    15A     -1.028979
      16A     -0.980850    17A     -0.863125    18A     -0.838388
      19A     -0.781162    20A     -0.745130    21A     -0.688097
      22A     -0.680832    23A     -0.676354    24A     -0.634199
      25A     -0.630040    26A     -0.601250    27A     -0.588112
      28A     -0.566024    29A     -0.530802    30A     -0.520318
      31A     -0.509567    32A     -0.502104    33A     -0.463217
      34A     -0.449412    35A     -0.350176    36A     -0.346180

  @DF-RHF Final Energy:  -457.50963973007680

   => Energetics <=

    Nuclear Repulsion Energy =            493.9170085366392300
    One-Electron Energy =               -1602.3091056984651459
    Two-Electron Energy =                 650.8824574317492306
    DFT Exchange-Correlation Energy =       0.0000000000000000
    Empirical Dispersion Energy =           0.0000000000000000
    PCM Polarization Energy =               0.0000000000000000
    EFP Energy =                            0.0000000000000000
    Total Energy =                       -457.5096397300766284
    Molecular point group: c1
  Basis Set: CC-PVTZ
  Basis Set:

  -Total Gradient:
     Atom            X                  Y                   Z
    ------   -----------------  -----------------  -----------------
       1       -0.000002482434    -0.000000476273     0.000000670970
       2       -0.000001103639     0.000012507848    -0.000005566731
       3       -0.000006755933    -0.000011475698     0.000002031862
       4        0.000012331073    -0.000008590780     0.000007409095
       5       -0.000000865412    -0.000000249610    -0.000001482358
       6        0.000005134145    -0.000008013710    -0.000000255616
       7       -0.000005413258     0.000001106779     0.000000452528
       8       -0.000034500985    -0.000025518821     0.000011603684
       9       -0.000000832845    -0.000001419269     0.000003223158
      10        0.000008968501     0.000005647237     0.000000979920
      11       -0.000003812112     0.000007812986    -0.000005500510
      12       -0.000039072299    -0.000388300475    -0.001322969717
      13       -0.000011208188     0.001076668312     0.002039820764
      14        0.000060363533    -0.000084064130     0.000052206656
      15        0.000200482567    -0.001905420880    -0.001511946754
      16       -0.000128796730     0.001349059412     0.000739970299
      17       -0.000000945914    -0.000012557198    -0.000011682075
      18       -0.000051490078    -0.000006715732     0.000001034827

  **** Optimization is complete! (in 5 steps) ****
    Final optimized geometry and variables:
    Molecular point group: c1

    Geometry (in Angstrom), charge = 0, multiplicity = 1:

    H           -4.022510502565    -0.465936296712    -0.007938083692
    C           -2.960843044574    -0.307754551663    -0.018044140408
    C           -2.447855340216     0.904860590201    -0.442578757744
    C           -2.110134116496    -1.316197812313     0.393344981872
    H           -3.108688366873     1.687355416312    -0.761677513782
    C           -1.083576971334     1.107505127109    -0.455083235238
    H           -2.508716072776    -2.256249325673     0.722557274373
    C           -0.743695672391    -1.114868584944     0.381128511871
    H           -0.669731908061     2.040260841966    -0.780403213353
    C           -0.226403881876     0.098543479153    -0.043595033004
    H           -0.082369789565    -1.893978535884     0.699227392690
    C            1.240256536296     0.367991815193    -0.076638586601
    O            1.961839653404    -0.655717257085     0.339831966856
    O            1.712707745415     1.393747485550    -0.436423854868
    C            3.369727216207    -0.523245799113     0.319666368751
    H            3.694069679780    -0.008122019050    -0.569614426363
    H            3.767927260869    -1.524311163245     0.351951295731
    H            3.700224207200     0.032926035197     1.185901898975

  Mulliken Charges: (a.u.)
   Center  Symbol    Alpha    Beta     Spin     Total
       1     H     0.42030  0.42030  0.00000  0.15939
       2     C     3.06974  3.06974  0.00000 -0.13949
       3     C     3.07552  3.07552  0.00000 -0.15104
       4     C     3.07494  3.07494  0.00000 -0.14988
       5     H     0.42040  0.42040  0.00000  0.15919
       6     C     3.07588  3.07588  0.00000 -0.15175
       7     H     0.42190  0.42190  0.00000  0.15620
       8     C     3.08208  3.08208  0.00000 -0.16416
       9     H     0.40659  0.40659  0.00000  0.18682
      10     C     3.01452  3.01452  0.00000 -0.02905
      11     H     0.41109  0.41109  0.00000  0.17782
      12     C     2.77980  2.77980  0.00000  0.44040
      13     O     4.14888  4.14888  0.00000 -0.29776
      14     O     4.21156  4.21156  0.00000 -0.42313
      15     C     3.03757  3.03757  0.00000 -0.07515
      16     H     0.44768  0.44768  0.00000  0.10464
      17     H     0.44618  0.44618  0.00000  0.10764
      18     H     0.45535  0.45535  0.00000  0.08930

   Total alpha = 36.00000, Total beta = 36.00000, Total charge =  0.00000
