  ==> Input File <==

--------------------------------------------------------------------------
set {
	reference rhf
	basis 6-31G*
}

set_num_threads( 4 )
memory 2 gb

molecule MOL {
0 1

H	 -1.056866	 -0.498549	 -0.504731
C	 -0.790252	 0.431209	 0.000000
N	 0.538815	 0.649616	 0.000000
O	 -1.616061	 1.146781	 0.484981
C	 1.521968	 -0.411503	 0.000000
H	 0.852804	 1.592852	 0.000000
H	 2.150599	 -0.357004	 -0.881901
H	 0.999455	 -1.354525	 0.000000
H	 2.150599	 -0.357004	 0.881901

	symmetry c1
}
set optking {
	frozen_dihedral = ("
		1 2 3 6
	")
}

ee = optimize('scf')
oeprop('DIPOLE', 'QUADRUPOLE', 'MULLIKEN_CHARGES')
f=open( 'psi4out.xyz', 'w' )
f.write( "9  " )
f.write( str(ee) + "\n" )
f.write( MOL.save_string_xyz() )
f.close()
--------------------------------------------------------------------------

    Molecular point group: c1
  Charge       = 0
  Multiplicity = 1
  Basis Set: 6-31G*
  Basis Set:
  @DF-RHF Final Energy:  -207.94969094038450
    Total Energy =                       -207.9496909403844711
    Molecular point group: c1
  Basis Set: 6-31G*
  Basis Set:
  Basis Set: 6-31G*
  Basis Set:
  @DF-RHF Final Energy:  -207.95055038620336
    Total Energy =                       -207.9505503862033891
  Basis Set: 6-31G*
  Basis Set:
  Basis Set: 6-31G*
  Basis Set:
  @DF-RHF Final Energy:  -207.95233720178499
    Total Energy =                       -207.9523372017849852
  Basis Set: 6-31G*
  Basis Set:
  Basis Set: 6-31G*
  Basis Set:
  @DF-RHF Final Energy:  -207.95329562653279
    Total Energy =                       -207.9532956265327073
  Basis Set: 6-31G*
  Basis Set:
  @DF-RHF Final Energy:  -207.95472595018856
    Total Energy =                       -207.9547259501885605
  @DF-RHF Final Energy:  -207.95528187945683
    Total Energy =                       -207.9552818794568338
  @DF-RHF Final Energy:  -207.95538310377117
    Total Energy =                       -207.9553831037712825
  @DF-RHF Final Energy:  -207.95555516465080
    Total Energy =                       -207.9555551646507183
  @DF-RHF Final Energy:  -207.95560304318911
    Total Energy =                       -207.9556030431890008
  Basis Set: 6-31G*
  Basis Set:
  @DF-RHF Final Energy:  -207.95563632496976
    Total Energy =                       -207.9556363249697597
  Basis Set: 6-31G*
  Basis Set:
  Basis Set: 6-31G*
  Basis Set:
  @DF-RHF Final Energy:  -207.95566171107322
    Total Energy =                       -207.9556617110732759
  Basis Set: 6-31G*
  Basis Set:
  Basis Set: 6-31G*
  Basis Set:
  @DF-RHF Final Energy:  -207.95566373349624
    Total Energy =                       -207.9556637334962659
  Basis Set: 6-31G*
  Basis Set:
  Charge       = 0
  Multiplicity = 1
  Basis Set: 6-31G*
  Basis Set:

    Orbital Energies (a.u.)
    -----------------------

    Doubly Occupied:

       1A    -20.533784     2A    -15.587827     3A    -11.347247
       4A    -11.273767     5A     -1.395698     6A     -1.239386
       7A     -0.961318     8A     -0.843319     9A     -0.691708
      10A     -0.677248    11A     -0.635266    12A     -0.590133
      13A     -0.568979    14A     -0.543330    15A     -0.429848
      16A     -0.394872

  @DF-RHF Final Energy:  -207.95566384433772

   => Energetics <=

    Nuclear Repulsion Energy =            120.3580431205588184
    One-Electron Energy =                -521.1999506040043570
    Two-Electron Energy =                 192.8862436391077892
    DFT Exchange-Correlation Energy =       0.0000000000000000
    Empirical Dispersion Energy =           0.0000000000000000
    PCM Polarization Energy =               0.0000000000000000
    EFP Energy =                            0.0000000000000000
    Total Energy =                       -207.9556638443377494
    Molecular point group: c1
  Basis Set: 6-31G*
  Basis Set:

  -Total Gradient:
     Atom            X                  Y                   Z
    ------   -----------------  -----------------  -----------------
       1        0.001576660814     0.002930868753    -0.007188067669
       2       -0.001487871581    -0.004225792600     0.007273172585
       3       -0.002391601838     0.002580895547     0.007776797450
       4       -0.000006132210    -0.000001335783    -0.000024982241
       5        0.000021376885    -0.000105850169     0.000165765235
       6        0.002272276808    -0.001194077240    -0.007999788292
       7        0.000010378770     0.000003533180     0.000007930273
       8       -0.000009029901     0.000016365426     0.000001859875
       9        0.000013942252    -0.000004607113    -0.000012687216

  **** Optimization is complete! (in 13 steps) ****
    Final optimized geometry and variables:
    Molecular point group: c1

    Geometry (in Angstrom), charge = 0, multiplicity = 1:

    H           -0.925997904019    -1.008758424046    -0.554263587641
    C           -0.705472391939    -0.036149296483    -0.109879001437
    N            0.600939819800     0.116492234858     0.238381445926
    O           -1.538454009385     0.809715442118    -0.004571011726
    C            1.589640360080    -0.890482040790    -0.090992802188
    H            0.918189527424     1.061601801484     0.188449593145
    H            1.953598319529    -0.813114786622    -1.112511268876
    H            1.161806449275    -1.874878495159     0.047660565970
    H            2.431480294546    -0.800965086896     0.582800816584

  Mulliken Charges: (a.u.)
   Center  Symbol    Alpha    Beta     Spin     Total
       1     H     0.43002  0.43002  0.00000  0.13997
       2     C     2.74563  2.74563  0.00000  0.50873
       3     N     3.86207  3.86207  0.00000 -0.72414
       4     O     4.27537  4.27537  0.00000 -0.55074
       5     C     3.15108  3.15108  0.00000 -0.30216
       6     H     0.30737  0.30737  0.00000  0.38525
       7     H     0.41581  0.41581  0.00000  0.16838
       8     H     0.40805  0.40805  0.00000  0.18390
       9     H     0.40460  0.40460  0.00000  0.19080

   Total alpha = 16.00000, Total beta = 16.00000, Total charge = -0.00000
