  ==> Input File <==

--------------------------------------------------------------------------
set {
	reference rhf
	basis 6-31G*
}

set_num_threads( 4 )
memory 2 gb

molecule MOL {
0 1

H	 3.272406	 0.161195	 0.180729
N	 2.423210	 -0.369486	 0.208215
C	 1.267428	 0.496480	 0.024474
H	 2.389146	 -0.814849	 1.105659
C	 -0.016086	 -0.325158	 -0.029487
H	 1.395973	 1.022729	 -0.916575
H	 1.176004	 1.260588	 0.800464
C	 -1.282277	 0.529072	 0.046735
H	 -0.012495	 -0.908639	 -0.945788
H	 -0.015903	 -1.041248	 0.791956
C	 -2.563920	 -0.301775	 -0.006060
H	 -1.284084	 1.244622	 -0.773004
H	 -1.271387	 1.115393	 0.963286
H	 -2.621848	 -0.873522	 -0.927727
H	 -3.445135	 0.329952	 0.047812
H	 -2.609542	 -1.004582	 0.821105

	symmetry c1
}
set optking {
	frozen_dihedral = ("
		6 3 5 9
	")
}

ee = optimize('scf')
oeprop('DIPOLE', 'QUADRUPOLE', 'MULLIKEN_CHARGES')
f=open( 'psi4out.xyz', 'w' )
f.write( "16  " )
f.write( str(ee) + "\n" )
f.write( MOL.save_string_xyz() )
f.close()
--------------------------------------------------------------------------

    Molecular point group: c1
  Charge       = 0
  Multiplicity = 1
  Basis Set: 6-31G*
  Basis Set:
  @DF-RHF Final Energy:  -212.31639961041301
    Total Energy =                       -212.3163996104131002
    Molecular point group: c1
  Basis Set: 6-31G*
  Basis Set:
  Basis Set: 6-31G*
  Basis Set:
  @DF-RHF Final Energy:  -212.31645284489372
    Total Energy =                       -212.3164528448936608
  Basis Set: 6-31G*
  Basis Set:
  Basis Set: 6-31G*
  Basis Set:
  @DF-RHF Final Energy:  -212.31649598635300
    Total Energy =                       -212.3164959863530612
  Basis Set: 6-31G*
  Basis Set:
  Charge       = 0
  Multiplicity = 1
  Basis Set: 6-31G*
  Basis Set:

    Orbital Energies (a.u.)
    -----------------------

    Doubly Occupied:

       1A    -15.532377     2A    -11.240035     3A    -11.214867
       4A    -11.209794     5A    -11.207856     6A     -1.176392
       7A     -1.059340     8A     -0.958316     9A     -0.843821
      10A     -0.791513    11A     -0.666642    12A     -0.632723
      13A     -0.608928    14A     -0.574824    15A     -0.561862
      16A     -0.527525    17A     -0.500482    18A     -0.470759
      19A     -0.465213    20A     -0.459937    21A     -0.381043

  @DF-RHF Final Energy:  -212.31649660623805

   => Energetics <=

    Nuclear Repulsion Energy =            186.2636706059862490
    One-Electron Energy =                -654.9918403928560338
    Two-Electron Energy =                 256.4116731806317375
    DFT Exchange-Correlation Energy =       0.0000000000000000
    Empirical Dispersion Energy =           0.0000000000000000
    PCM Polarization Energy =               0.0000000000000000
    EFP Energy =                            0.0000000000000000
    Total Energy =                       -212.3164966062380472
    Molecular point group: c1
  Basis Set: 6-31G*
  Basis Set:

  -Total Gradient:
     Atom            X                  Y                   Z
    ------   -----------------  -----------------  -----------------
       1        0.000002125190    -0.000016595677     0.000000800686
       2       -0.000014629365     0.000049514051     0.000001281414
       3       -0.001814743077     0.002804032882     0.000833895491
       4       -0.000001864655     0.000007089300    -0.000014542305
       5        0.001721698943    -0.002737925075     0.001237554189
       6        0.001294029811    -0.001951557727    -0.000909257212
       7       -0.000003970419    -0.000015194354     0.000004299148
       8        0.000005932169    -0.000023208661     0.000085985441
       9       -0.001147203286     0.001845017492    -0.001207495890
      10       -0.000027889393     0.000026078238    -0.000006363969
      11       -0.000010970690     0.000004408637    -0.000047064676
      12       -0.000011879323    -0.000005575921     0.000008499112
      13        0.000009260168     0.000018344972     0.000013776058
      14        0.000001761915    -0.000024623130     0.000007949436
      15        0.000001201783     0.000001222190    -0.000020638561
      16       -0.000002859768     0.000018972784     0.000011321638

  **** Optimization is complete! (in 4 steps) ****
    Final optimized geometry and variables:
    Molecular point group: c1

    Geometry (in Angstrom), charge = 0, multiplicity = 1:

    H            3.278698166238     0.157745922169     0.062855328204
    N            2.429383335985    -0.369640103995     0.126378019902
    C            1.268908773561     0.497164496588    -0.028281413124
    H            2.425345516436    -0.805811670758     1.028794860628
    C           -0.013025211810    -0.330835485824    -0.061297287785
    H            1.383969725386     1.014257021746    -0.975749931264
    H            1.196051937210     1.259878283458     0.750330783223
    C           -1.279596502807     0.525985372150    -0.005587742322
    H           -0.018671923176    -0.923642805307    -0.971437325818
    H           -0.013609359113    -1.030338520851     0.773051519684
    C           -2.561866495759    -0.301393578684    -0.088562820354
    H           -1.264039917093     1.246570207983    -0.821089134393
    H           -1.285247495471     1.107468672950     0.914019686513
    H           -2.603175302091    -0.868260899228    -1.014182065920
    H           -3.442644372200     0.332053420691    -0.048596972716
    H           -2.625328580121    -1.008637599573     0.733695642813

  Mulliken Charges: (a.u.)
   Center  Symbol    Alpha    Beta     Spin     Total
       1     H     0.33266  0.33266  0.00000  0.33468
       2     N     3.92220  3.92220  0.00000 -0.84441
       3     C     3.06101  3.06101  0.00000 -0.12203
       4     H     0.33545  0.33545  0.00000  0.32910
       5     C     3.14853  3.14853  0.00000 -0.29705
       6     H     0.42027  0.42027  0.00000  0.15947
       7     H     0.43421  0.43421  0.00000  0.13159
       8     C     3.15630  3.15630  0.00000 -0.31260
       9     H     0.41483  0.41483  0.00000  0.17035
      10     H     0.42665  0.42665  0.00000  0.14670
      11     C     3.23863  3.23863  0.00000 -0.47726
      12     H     0.42314  0.42314  0.00000  0.15373
      13     H     0.42382  0.42382  0.00000  0.15237
      14     H     0.42075  0.42075  0.00000  0.15851
      15     H     0.41968  0.41968  0.00000  0.16063
      16     H     0.42189  0.42189  0.00000  0.15622

   Total alpha = 21.00000, Total beta = 21.00000, Total charge = -0.00000
