                              Psi4 1.0.54 Driver

  ==> Input File <==

--------------------------------------------------------------------------
set {
	reference rhf
	basis cc-pvtz
}

set_num_threads( 4 )
memory 2 gb

molecule MOL {
0 1

H	 -3.509888	 -0.951480	 -0.091070
O	 -3.515113	 -0.019339	 -0.206321
C	 -2.302264	 0.528872	 0.237390
C	 -1.175688	 -0.398187	 -0.171891
H	 -2.148018	 1.514076	 -0.197759
H	 -2.310727	 0.646384	 1.319032
C	 0.196029	 0.106276	 0.266738
H	 -1.201873	 -0.515469	 -1.250677
H	 -1.365975	 -1.378728	 0.252664
C	 1.330220	 -0.826136	 -0.155230
H	 0.359542	 1.097229	 -0.145561
H	 0.212134	 0.218135	 1.348778
C	 2.719700	 -0.407669	 0.328325
H	 1.339388	 -0.911200	 -1.239363
H	 1.119001	 -1.821953	 0.224128
C	 3.241564	 0.893452	 -0.276737
H	 3.418299	 -1.204729	 0.093035
H	 2.711776	 -0.323368	 1.411960
H	 3.254204	 0.841071	 -1.360784
H	 2.634460	 1.745075	 0.005842
H	 4.254264	 1.092401	 0.054971

	symmetry c1
}
set optking {
	frozen_dihedral = ("
		1 2 3 5
	")
}

ee,wfn = optimize('scf', return_wfn=True)
oeprop( wfn, 'DIPOLE', 'QUADRUPOLE', 'MULLIKEN_CHARGES')
f=open( 'psi4out.xyz', 'w' )
f.write( "21  " )
f.write( str(ee) + "\n" )
f.write( MOL.save_string_xyz() )
f.close()
--------------------------------------------------------------------------

    Molecular point group: c1
  Charge       = 0
  Multiplicity = 1
  Basis Set: CC-PVTZ
  Basis Set:
  @DF-RHF Final Energy:  -310.33048508514923
    Total Energy =                       -310.3304850851492347
    Molecular point group: c1
  Basis Set: CC-PVTZ
  Basis Set:
  Basis Set: CC-PVTZ
  Basis Set:
  @DF-RHF Final Energy:  -310.33184152553520
    Total Energy =                       -310.3318415255353671
  Basis Set: CC-PVTZ
  Basis Set:
  Basis Set: CC-PVTZ
  Basis Set:
  @DF-RHF Final Energy:  -310.33220841485820
    Total Energy =                       -310.3322084148585418
  Basis Set: CC-PVTZ
  Basis Set:
  Basis Set: CC-PVTZ
  Basis Set:
  @DF-RHF Final Energy:  -310.33221293614554
    Total Energy =                       -310.3322129361457655
  Basis Set: CC-PVTZ
  Basis Set:
  Charge       = 0
  Multiplicity = 1
  Basis Set: CC-PVTZ
  Basis Set:

    Orbital Energies (a.u.)
    -----------------------

    Doubly Occupied:

       1A    -20.544232     2A    -11.264358     3A    -11.218575
       4A    -11.217938     5A    -11.216509     6A    -11.215821
       7A    -11.208510     8A     -1.362621     9A     -1.091799
      10A     -1.037218    11A     -0.956980    12A     -0.881303
      13A     -0.823630    14A     -0.782721    15A     -0.684567
      16A     -0.654440    17A     -0.624082    18A     -0.614133
      19A     -0.596115    20A     -0.578940    21A     -0.541126
      22A     -0.535511    23A     -0.507865    24A     -0.490463
      25A     -0.489709    26A     -0.465666    27A     -0.460182
      28A     -0.453131    29A     -0.428503

  @DF-RHF Final Energy:  -310.33221323042767

   => Energetics <=

    Nuclear Repulsion Energy =            312.8845014515334242
    One-Electron Energy =               -1040.5401355564833921
    Two-Electron Energy =                 417.3234208745225260
    DFT Exchange-Correlation Energy =       0.0000000000000000
    Empirical Dispersion Energy =           0.0000000000000000
    PCM Polarization Energy =               0.0000000000000000
    EFP Energy =                            0.0000000000000000
    Total Energy =                       -310.3322132304274419
    Molecular point group: c1
  Basis Set: CC-PVTZ
  Basis Set:

  -Total Gradient:
     Atom            X                  Y                   Z
    ------   -----------------  -----------------  -----------------
       1        0.000605200720    -0.000169960003    -0.001524961075
       2       -0.000578937949     0.000100414997     0.001646849855
       3       -0.000595586215     0.000669975602     0.001015610414
       4       -0.000041300457    -0.000002679414     0.000015110303
       5        0.000594733643    -0.000602781280    -0.001126498663
       6       -0.000013938586    -0.000010071210    -0.000003798912
       7       -0.000033450391     0.000000409530    -0.000020540336
       8       -0.000001897681    -0.000002275608     0.000002942816
       9       -0.000007523879     0.000009884246    -0.000011453478
      10        0.000036672233     0.000023748636    -0.000012762838
      11       -0.000013047988    -0.000027154411     0.000004866215
      12        0.000010166098     0.000008584090     0.000000720684
      13       -0.000001956528    -0.000006956556     0.000026224497
      14       -0.000004956583     0.000015358369    -0.000002834643
      15        0.000006496902     0.000000523350    -0.000009363154
      16        0.000007636112    -0.000001342982    -0.000007579939
      17        0.000004805368    -0.000003970974     0.000011141368
      18        0.000000027674     0.000008683829     0.000006216825
      19       -0.000001042868     0.000005199292    -0.000007524009
      20        0.000027986890    -0.000007500649     0.000001577087
      21       -0.000000086511    -0.000008088857    -0.000003943018

  **** Optimization is complete! (in 5 steps) ****
    Final optimized geometry and variables:
    Molecular point group: c1

    Geometry (in Angstrom), charge = 0, multiplicity = 1:

    H           -3.610701763466    -0.905710968207    -0.076332527714
    O           -3.565185162174     0.028161931178    -0.170504391595
    C           -2.311554491814     0.492638182807     0.252748078355
    C           -1.169426513939    -0.417461626926    -0.169022234451
    H           -2.182975722592     1.468746029075    -0.197740523045
    H           -2.303574354729     0.623518351778     1.332441398719
    C            0.198138418499     0.106962978339     0.259838857209
    H           -1.199810542618    -0.536211812279    -1.248108388767
    H           -1.326839992483    -1.406338221710     0.259381518957
    C            1.345031337128    -0.809195435633    -0.163297347848
    H            0.341487103627     1.097940324823    -0.158679662233
    H            0.216463080346     0.225039232019     1.340764275214
    C            2.729067266332    -0.368015191262     0.315743094122
    H            1.352771630101    -0.896558005969    -1.247229593041
    H            1.150749526850    -1.807427683619     0.219327600392
    C            3.230717459251     0.937243157596    -0.297194209504
    H            3.438502333926    -1.156142286846     0.083158824628
    H            2.721669836699    -0.278351545290     1.398870427353
    H            3.240783032286     0.879849785737    -1.380962588135
    H            2.613086571848     1.781813167675    -0.016565377776
    H            4.241515832402     1.151430664538     0.030432158035

  Mulliken Charges: (a.u.)
   Center  Symbol    Alpha    Beta     Spin     Total
       1     H     0.39376  0.39376  0.00000  0.21248
       2     O     4.20302  4.20302  0.00000 -0.40605
       3     C     2.95715  2.95715  0.00000  0.08570
       4     C     3.09890  3.09890  0.00000 -0.19780
       5     H     0.45951  0.45951  0.00000  0.08098
       6     H     0.47337  0.47337  0.00000  0.05325
       7     C     3.10270  3.10270  0.00000 -0.20540
       8     H     0.44869  0.44869  0.00000  0.10262
       9     H     0.46239  0.46239  0.00000  0.07523
      10     C     3.09449  3.09449  0.00000 -0.18898
      11     H     0.45022  0.45022  0.00000  0.09957
      12     H     0.45378  0.45378  0.00000  0.09244
      13     C     3.09043  3.09043  0.00000 -0.18085
      14     H     0.45287  0.45287  0.00000  0.09426
      15     H     0.44943  0.44943  0.00000  0.10114
      16     C     3.15234  3.15234  0.00000 -0.30468
      17     H     0.44818  0.44818  0.00000  0.10363
      18     H     0.45454  0.45454  0.00000  0.09091
      19     H     0.45450  0.45450  0.00000  0.09099
      20     H     0.45369  0.45369  0.00000  0.09262
      21     H     0.44604  0.44604  0.00000  0.10793

   Total alpha = 29.00000, Total beta = 29.00000, Total charge =  0.00000

*** Psi4 exiting successfully. Buy a developer a beer!
