  ==> Input File <==

--------------------------------------------------------------------------
set {
	reference rhf
	basis 6-31G*
}

set_num_threads( 4 )
memory 2 gb

molecule MOL {
0 1

H	 -0.688875	 1.759616	 -4.777973
C	 -0.295614	 1.471919	 -3.819140
C	 -0.569611	 2.243461	 -2.699856
C	 0.483388	 0.331128	 -3.706513
H	 -1.173897	 3.127957	 -2.788586
C	 -0.063604	 1.872899	 -1.467329
H	 0.694729	 -0.265711	 -4.575262
C	 0.990973	 -0.041743	 -2.473753
H	 -0.265369	 2.457847	 -0.590518
C	 0.718174	 0.729398	 -1.350061
H	 1.594260	 -0.923755	 -2.381986
C	 1.239129	 0.373821	 0.000060
O	 1.970282	 -0.730723	 0.000018
O	 1.026216	 1.009975	 0.984355
C	 3.377318	 -0.566646	 -0.000065
H	 3.695437	 -0.028981	 -0.881264
H	 3.789299	 -1.563704	 0.000236
H	 3.695516	 -0.028316	 0.880770

	symmetry c1
}
set optking {
	frozen_dihedral = ("
		10 12 13 15
	")
}

ee = optimize('scf')
oeprop('DIPOLE', 'QUADRUPOLE', 'MULLIKEN_CHARGES')
f=open( 'psi4out.xyz', 'w' )
f.write( "18  " )
f.write( str(ee) + "\n" )
f.write( MOL.save_string_xyz() )
f.close()
--------------------------------------------------------------------------

    Molecular point group: c1
  Charge       = 0
  Multiplicity = 1
  Basis Set: 6-31G*
  Basis Set:
  @DF-RHF Final Energy:  -457.33160689431099
    Total Energy =                       -457.3316068943111077
    Molecular point group: c1
  Basis Set: 6-31G*
  Basis Set:
  Basis Set: 6-31G*
  Basis Set:
  @DF-RHF Final Energy:  -457.33219583792601
    Total Energy =                       -457.3321958379256102
  Basis Set: 6-31G*
  Basis Set:
  Basis Set: 6-31G*
  Basis Set:
  @DF-RHF Final Energy:  -457.33170483172091
    Total Energy =                       -457.3317048317209128
  Basis Set: 6-31G*
  Basis Set:
  Basis Set: 6-31G*
  Basis Set:
  @DF-RHF Final Energy:  -457.33273769839866
    Total Energy =                       -457.3327376983984323
  Basis Set: 6-31G*
  Basis Set:
  Basis Set: 6-31G*
  Basis Set:
  @DF-RHF Final Energy:  -457.33274704927464
    Total Energy =                       -457.3327470492748716
  Basis Set: 6-31G*
  Basis Set:
  Charge       = 0
  Multiplicity = 1
  Basis Set: 6-31G*
  Basis Set:

    Orbital Energies (a.u.)
    -----------------------

    Doubly Occupied:

       1A    -20.588226     2A    -20.555092     3A    -11.379561
       4A    -11.290141     5A    -11.249582     6A    -11.249425
       7A    -11.248030     8A    -11.245694     9A    -11.241556
      10A    -11.240625    11A     -1.461182    12A     -1.366889
      13A     -1.168680    14A     -1.046199    15A     -1.028789
      16A     -0.973785    17A     -0.869919    18A     -0.838905
      19A     -0.778534    20A     -0.737648    21A     -0.684752
      22A     -0.675385    23A     -0.661808    24A     -0.638371
      25A     -0.627151    26A     -0.608005    27A     -0.597787
      28A     -0.558825    29A     -0.527375    30A     -0.521178
      31A     -0.503871    32A     -0.494853    33A     -0.460670
      34A     -0.442684    35A     -0.348741    36A     -0.345008

  @DF-RHF Final Energy:  -457.33274784140849

   => Energetics <=

    Nuclear Repulsion Energy =            495.3454421002035133
    One-Electron Energy =               -1604.8465264810454300
    Two-Electron Energy =                 652.1683365394331986
    DFT Exchange-Correlation Energy =       0.0000000000000000
    Empirical Dispersion Energy =           0.0000000000000000
    PCM Polarization Energy =               0.0000000000000000
    EFP Energy =                            0.0000000000000000
    Total Energy =                       -457.3327478414086045
    Molecular point group: c1
  Basis Set: 6-31G*
  Basis Set:

  -Total Gradient:
     Atom            X                  Y                   Z
    ------   -----------------  -----------------  -----------------
       1       -0.000012783196    -0.000001960951     0.000006980570
       2        0.000002221721     0.000034489874     0.000014189021
       3       -0.000030960784    -0.000021691623    -0.000025118626
       4        0.000065366030     0.000005702720     0.000014174251
       5        0.000006816201     0.000010264720    -0.000000459028
       6        0.000016406654    -0.000006264114     0.000025782665
       7       -0.000012865717    -0.000010281930     0.000009713837
       8       -0.000068306336    -0.000024975913    -0.000035626846
       9       -0.000004429500     0.000005269480    -0.000005381373
      10        0.002814459793     0.002057946072    -0.000460604919
      11        0.000017218143    -0.000000583131     0.000010734859
      12       -0.003941737189    -0.003060850359    -0.000983766672
      13        0.001074114973     0.000915118851     0.005158715680
      14       -0.000039121744     0.000022624889    -0.000013254556
      15        0.000112357250     0.000084410208    -0.003717893766
      16        0.000010183455    -0.000001967169    -0.000003916875
      17       -0.000005945478     0.000001480220     0.000004071034
      18       -0.000002994276    -0.000008731841     0.000001660736

  **** Optimization is complete! (in 6 steps) ****
    Final optimized geometry and variables:
    Molecular point group: c1

    Geometry (in Angstrom), charge = 0, multiplicity = 1:

    H           -1.620463738690     1.193097811546    -3.410816619481
    C           -1.239329320723     0.882857120444    -2.454216760606
    C           -1.478310506995     1.660817221514    -1.329791212218
    C           -0.514817104306    -0.292922017407    -2.348537358566
    H           -2.042691777769     2.571703973666    -1.414285786836
    C           -0.990815803454     1.261532888488    -0.100118323460
    H           -0.336316240671    -0.897311019473    -3.219346230088
    C           -0.022681720195    -0.693010376434    -1.117107605125
    H           -1.169127331308     1.849316612188     0.779937152821
    C           -0.255360592727     0.084853854787     0.010663149562
    H            0.530536577947    -1.607740080494    -1.027383167250
    C            0.265432505375    -0.304902922443     1.351719514260
    O            1.067863130268    -1.390293840574     1.352512286716
    O            0.027724974830     0.293722614229     2.346215462189
    C            2.457147196111    -1.127258785796     1.398602943990
    H            2.772702981291    -0.580389498980     0.516893462384
    H            2.949413810799    -2.086854511163     1.422880876449
    H            2.707264491117    -0.564900859541     2.288511462814

  Mulliken Charges: (a.u.)
   Center  Symbol    Alpha    Beta     Spin     Total
       1     H     0.39443  0.39443  0.00000  0.21113
       2     C     3.08985  3.08985  0.00000 -0.17970
       3     C     3.10670  3.10670  0.00000 -0.21341
       4     C     3.10629  3.10629  0.00000 -0.21257
       5     H     0.39442  0.39442  0.00000  0.21117
       6     C     3.08528  3.08528  0.00000 -0.17056
       7     H     0.39543  0.39543  0.00000  0.20915
       8     C     3.09201  3.09201  0.00000 -0.18401
       9     H     0.37598  0.37598  0.00000  0.24803
      10     C     3.07689  3.07689  0.00000 -0.15378
      11     H     0.38238  0.38238  0.00000  0.23524
      12     C     2.59281  2.59281  0.00000  0.81439
      13     O     4.32300  4.32300  0.00000 -0.64601
      14     O     4.26165  4.26165  0.00000 -0.52329
      15     C     3.09458  3.09458  0.00000 -0.18916
      16     H     0.41869  0.41869  0.00000  0.16262
      17     H     0.40385  0.40385  0.00000  0.19230
      18     H     0.40577  0.40577  0.00000  0.18847

   Total alpha = 36.00000, Total beta = 36.00000, Total charge = -0.00000
