  ==> Input File <==

--------------------------------------------------------------------------
set {
	reference rhf
	basis 6-31G*
}

set_num_threads( 4 )
memory 2 gb

molecule MOL {
0 1

H	 2.176868	 -0.646004	 -0.217325
O	 1.337496	 -0.537251	 0.205931
C	 0.702312	 0.627605	 -0.264544
C	 -0.714990	 0.596302	 0.266387
H	 0.682322	 0.642550	 -1.350929
H	 1.215941	 1.520383	 0.085680
O	 -1.405996	 -0.526611	 -0.195820
H	 -1.257453	 1.468809	 -0.075599
H	 -0.688972	 0.618407	 1.353696
H	 -0.815018	 -1.022137	 -0.748280

	symmetry c1
}
set optking {
	frozen_dihedral = ("
		10 7 4 3
	")
}

ee = optimize('scf')
oeprop('DIPOLE', 'QUADRUPOLE', 'MULLIKEN_CHARGES')
f=open( 'psi4out.xyz', 'w' )
f.write( "10  " )
f.write( str(ee) + "\n" )
f.write( MOL.save_string_xyz() )
f.close()
--------------------------------------------------------------------------

    Molecular point group: c1
  Charge       = 0
  Multiplicity = 1
  Basis Set: 6-31G*
  Basis Set:
  @DF-RHF Final Energy:  -228.91881375730333
    Total Energy =                       -228.9188137573032122
    Molecular point group: c1
  Basis Set: 6-31G*
  Basis Set:
  Basis Set: 6-31G*
  Basis Set:
  @DF-RHF Final Energy:  -228.91972851146309
    Total Energy =                       -228.9197285114632336
  Basis Set: 6-31G*
  Basis Set:
  Basis Set: 6-31G*
  Basis Set:
  @DF-RHF Final Energy:  -228.92002951451528
    Total Energy =                       -228.9200295145151358
  Basis Set: 6-31G*
  Basis Set:
  Basis Set: 6-31G*
  Basis Set:
  @DF-RHF Final Energy:  -228.92003284971457
    Total Energy =                       -228.9200328497146586
  Basis Set: 6-31G*
  Basis Set:
  Charge       = 0
  Multiplicity = 1
  Basis Set: 6-31G*
  Basis Set:

    Orbital Energies (a.u.)
    -----------------------

    Doubly Occupied:

       1A    -20.571604     2A    -20.545828     3A    -11.283377
       4A    -11.268742     5A     -1.384762     6A     -1.349180
       7A     -1.004919     8A     -0.848726     9A     -0.725702
      10A     -0.668807    11A     -0.665453    12A     -0.598991
      13A     -0.574520    14A     -0.548769    15A     -0.473779
      16A     -0.457493    17A     -0.432537

  @DF-RHF Final Energy:  -228.92003317911789

   => Energetics <=

    Nuclear Repulsion Energy =            134.4501961023382535
    One-Electron Energy =                -579.9340812502684912
    Two-Electron Energy =                 216.5638519688124006
    DFT Exchange-Correlation Energy =       0.0000000000000000
    Empirical Dispersion Energy =           0.0000000000000000
    PCM Polarization Energy =               0.0000000000000000
    EFP Energy =                            0.0000000000000000
    Total Energy =                       -228.9200331791178087
    Molecular point group: c1
  Basis Set: 6-31G*
  Basis Set:

  -Total Gradient:
     Atom            X                  Y                   Z
    ------   -----------------  -----------------  -----------------
       1        0.000009377740    -0.000003864659     0.000005450392
       2        0.000005629020     0.000020084418    -0.000009630288
       3        0.000691359571    -0.001141359001     0.001947633550
       4       -0.001301426064     0.002031520640    -0.003545056002
       5        0.000015311142    -0.000015897005     0.000019762693
       6        0.000036491576     0.000004338479     0.000011033632
       7        0.001661152655    -0.002687706791     0.004712869001
       8        0.000003946087     0.000007380729     0.000002788396
       9       -0.000013801370    -0.000012321724    -0.000004923443
      10       -0.001108040353     0.001797824916    -0.003139927931

  **** Optimization is complete! (in 5 steps) ****
    Final optimized geometry and variables:
    Molecular point group: c1

    Geometry (in Angstrom), charge = 0, multiplicity = 1:

    H            2.217687813367    -0.595032375743    -0.181790044147
    O            1.331509635014    -0.567526227582     0.150016734925
    C            0.713298814256     0.631402877273    -0.236681784450
    C           -0.714642870063     0.609584766591     0.270799188887
    H            0.716883710621     0.726743030100    -1.322225669848
    H            1.227718828660     1.496352079983     0.175609894977
    O           -1.417088431237    -0.532497631472    -0.130619171297
    H           -1.228721997630     1.497091497292    -0.087138983105
    H           -0.703772240818     0.643072860291     1.355267395222
    H           -0.855595072888    -1.086277455161    -0.653806094105

  Mulliken Charges: (a.u.)
   Center  Symbol    Alpha    Beta     Spin     Total
       1     H     0.27697  0.27697  0.00000  0.44606
       2     O     4.36887  4.36887  0.00000 -0.73774
       3     C     3.03251  3.03251  0.00000 -0.06502
       4     C     2.97704  2.97704  0.00000  0.04592
       5     H     0.42729  0.42729  0.00000  0.14542
       6     H     0.42339  0.42339  0.00000  0.15323
       7     O     4.37649  4.37649  0.00000 -0.75298
       8     H     0.42564  0.42564  0.00000  0.14872
       9     H     0.41878  0.41878  0.00000  0.16243
      10     H     0.27301  0.27301  0.00000  0.45398

   Total alpha = 17.00000, Total beta = 17.00000, Total charge =  0.00000
