  ==> Input File <==

--------------------------------------------------------------------------
set {
	reference rhf
	basis 6-31G*
}

set_num_threads( 1 )
memory 2 gb

molecule MOL {
0 1

H	 -2.798360	 -0.862255	 -0.071053
N	 -1.863561	 -0.715187	 0.256814
C	 -1.344686	 0.554728	 -0.219830
H	 -1.300452	 -1.461917	 -0.101532
C	 -2.427405	 1.611619	 -0.157879
H	 -0.480812	 0.914222	 0.340962
H	 -1.035631	 0.437073	 -1.253959
O	 -2.765758	 1.814701	 1.184269
H	 -2.070981	 2.542206	 -0.599024
H	 -3.296893	 1.277797	 -0.719829
C	 -3.816262	 2.706029	 1.383134
H	 -3.984407	 2.782416	 2.448775
H	 -3.578932	 3.694277	 0.993234
H	 -4.729589	 2.356956	 0.905860

	symmetry c1
}
set optking {
	frozen_dihedral = ("
		8 5 3 6,
		5 8 11 13,
		11 8 5 3
	")
}

ee = energy('scf')
oeprop('DIPOLE', 'QUADRUPOLE', 'MULLIKEN_CHARGES')
f=open( 'psi4out.xyz', 'w' )
f.write( "14  " )
f.write( str(ee) + "\n" )
f.write( MOL.save_string_xyz() )
f.close()
--------------------------------------------------------------------------

    Molecular point group: c1

    Geometry (in Angstrom), charge = 0, multiplicity = 1:

       Center              X                  Y                   Z               Mass
    ------------   -----------------  -----------------  -----------------  -----------------
           H         -0.335911882066    -2.051195272659    -0.558104830678     1.007825032070
           N          0.598887117934    -1.904127272659    -0.230237830678    14.003074004780
           C          1.117762117934    -0.634212272659    -0.706881830678    12.000000000000
           H          1.161996117934    -2.650857272659    -0.588583830678     1.007825032070
           C          0.035043117934     0.422678727341    -0.644930830678    12.000000000000
           H          1.981636117934    -0.274718272659    -0.146089830678     1.007825032070
           H          1.426817117934    -0.751867272659    -1.741010830678     1.007825032070
           O         -0.303309882066     0.625760727341     0.697217169322    15.994914619560
           H          0.391467117934     1.353265727341    -1.086075830678     1.007825032070
           H         -0.834444882066     0.088856727341    -1.206880830678     1.007825032070
           C         -1.353813882066     1.517088727341     0.896082169322    12.000000000000
           H         -1.521958882066     1.593475727341     1.961723169322     1.007825032070
           H         -1.116483882066     2.505336727341     0.506182169322     1.007825032070
           H         -2.267140882066     1.168015727341     0.418808169322     1.007825032070

  Charge       = 0
  Multiplicity = 1
  Basis Set: 6-31G*
  Basis Set:

    Orbital Energies (a.u.)
    -----------------------

    Doubly Occupied:

       1A    -20.552381     2A    -15.528947     3A    -11.270933
       4A    -11.263356     5A    -11.242649     6A     -1.377146
       7A     -1.176684     8A     -0.999400     9A     -0.904445
      10A     -0.820865    11A     -0.685047    12A     -0.665526
      13A     -0.650379    14A     -0.610330    15A     -0.584361
      16A     -0.573025    17A     -0.523511    18A     -0.498918
      19A     -0.466418    20A     -0.416904    21A     -0.375343

  @DF-RHF Final Energy:  -248.11611319772769

   => Energetics <=

    Nuclear Repulsion Energy =            194.4367253547200391
    One-Electron Energy =                -722.7324229021469364
    Two-Electron Energy =                 280.1795843496987004
    DFT Exchange-Correlation Energy =       0.0000000000000000
    Empirical Dispersion Energy =           0.0000000000000000
    PCM Polarization Energy =               0.0000000000000000
    EFP Energy =                            0.0000000000000000
    Total Energy =                       -248.1161131977282253

  Mulliken Charges: (a.u.)
   Center  Symbol    Alpha    Beta     Spin     Total
       1     H     0.33449  0.33449  0.00000  0.33102
       2     N     3.91381  3.91381  0.00000 -0.82762
       3     C     3.06216  3.06216  0.00000 -0.12432
       4     H     0.33437  0.33437  0.00000  0.33125
       5     C     2.99744  2.99744  0.00000  0.00511
       6     H     0.41130  0.41130  0.00000  0.17740
       7     H     0.43383  0.43383  0.00000  0.13234
       8     O     4.29680  4.29680  0.00000 -0.59361
       9     H     0.42786  0.42786  0.00000  0.14428
      10     H     0.43551  0.43551  0.00000  0.12898
      11     C     3.07871  3.07871  0.00000 -0.15742
      12     H     0.41048  0.41048  0.00000  0.17903
      13     H     0.43179  0.43179  0.00000  0.13642
      14     H     0.43144  0.43144  0.00000  0.13713

   Total alpha = 21.00000, Total beta = 21.00000, Total charge = -0.00000
