  ==> Input File <==

--------------------------------------------------------------------------
set {
	reference rhf
	basis 6-31G*
}

set_num_threads( 4 )
memory 2 gb

molecule MOL {
0 1

H	 3.317314	 -0.169272	 -1.421981
O	 2.393029	 -0.360821	 -1.296438
C	 2.077727	 -0.067559	 -0.035091
C	 0.624473	 -0.343591	 0.253101
O	 2.877770	 0.357437	 0.733237
C	 -0.265902	 0.883932	 0.072916
H	 0.324016	 -1.163849	 -0.390541
H	 0.565024	 -0.726111	 1.268924
C	 -1.728698	 0.646073	 0.462102
H	 -0.209144	 1.219470	 -0.958188
H	 0.135059	 1.692851	 0.673903
C	 -2.482460	 -0.343073	 -0.431425
H	 -2.245265	 1.602650	 0.432430
H	 -1.779332	 0.308348	 1.496285
C	 -3.960546	 -0.461025	 -0.060175
H	 -2.395034	 -0.026811	 -1.468912
H	 -2.024850	 -1.327147	 -0.371646
H	 -4.472726	 -1.168004	 -0.705284
H	 -4.465146	 0.496508	 -0.151489
H	 -4.081218	 -0.800940	 0.964585

	symmetry c1
}
set optking {
	frozen_dihedral = ("
		5 3 4 7
	")
}

ee = optimize('scf')
oeprop('DIPOLE', 'QUADRUPOLE', 'MULLIKEN_CHARGES')
f=open( 'psi4out.xyz', 'w' )
f.write( "20  " )
f.write( str(ee) + "\n" )
f.write( MOL.save_string_xyz() )
f.close()
--------------------------------------------------------------------------

    Molecular point group: c1
  Charge       = 0
  Multiplicity = 1
  Basis Set: 6-31G*
  Basis Set:
  @DF-RHF Final Energy:  -383.94637043905777
    Total Energy =                       -383.9463704390578869
    Molecular point group: c1
  Basis Set: 6-31G*
  Basis Set:
  Basis Set: 6-31G*
  Basis Set:
  @DF-RHF Final Energy:  -383.94670907663738
    Total Energy =                       -383.9467090766374895
  Basis Set: 6-31G*
  Basis Set:
  Basis Set: 6-31G*
  Basis Set:
  @DF-RHF Final Energy:  -383.94608550167527
    Total Energy =                       -383.9460855016752134
  Basis Set: 6-31G*
  Basis Set:
  Basis Set: 6-31G*
  Basis Set:
  @DF-RHF Final Energy:  -383.94719882349847
    Total Energy =                       -383.9471988234984110
  Basis Set: 6-31G*
  Basis Set:
  Basis Set: 6-31G*
  Basis Set:
  @DF-RHF Final Energy:  -383.94720171277874
    Total Energy =                       -383.9472017127786216
  Basis Set: 6-31G*
  Basis Set:
  Basis Set: 6-31G*
  Basis Set:
  @DF-RHF Final Energy:  -383.94719969708109
    Total Energy =                       -383.9471996970812597
  Basis Set: 6-31G*
  Basis Set:
  Basis Set: 6-31G*
  Basis Set:
  @DF-RHF Final Energy:  -383.94720201844245
    Total Energy =                       -383.9472020184423400
  Basis Set: 6-31G*
  Basis Set:
  Charge       = 0
  Multiplicity = 1
  Basis Set: 6-31G*
  Basis Set:

    Orbital Energies (a.u.)
    -----------------------

    Doubly Occupied:

       1A    -20.613157     2A    -20.548375     3A    -11.379360
       4A    -11.238033     5A    -11.233408     6A    -11.224462
       7A    -11.222442     8A    -11.214047     9A     -1.473521
      10A     -1.363637    11A     -1.099582    12A     -1.042398
      13A     -0.961117    14A     -0.865945    15A     -0.820412
      16A     -0.789355    17A     -0.701086    18A     -0.686233
      19A     -0.647321    20A     -0.633960    21A     -0.617535
      22A     -0.592951    23A     -0.575676    24A     -0.553815
      25A     -0.549734    26A     -0.514780    27A     -0.503587
      28A     -0.480112    29A     -0.475734    30A     -0.465599
      31A     -0.461977    32A     -0.436058

  @DF-RHF Final Energy:  -383.94720201235276

   => Energetics <=

    Nuclear Repulsion Energy =            376.7254744913144009
    One-Electron Energy =               -1269.3745417320189972
    Two-Electron Energy =                 508.7018652283520623
    DFT Exchange-Correlation Energy =       0.0000000000000000
    Empirical Dispersion Energy =           0.0000000000000000
    PCM Polarization Energy =               0.0000000000000000
    EFP Energy =                            0.0000000000000000
    Total Energy =                       -383.9472020123525908
    Molecular point group: c1
  Basis Set: 6-31G*
  Basis Set:

  -Total Gradient:
     Atom            X                  Y                   Z
    ------   -----------------  -----------------  -----------------
       1       -0.000005043494     0.000000357240     0.000003974832
       2       -0.000004148697    -0.000001574869    -0.000005902880
       3        0.000158035462    -0.000591160664     0.000089741160
       4        0.000115981494    -0.000172766452     0.000335610759
       5       -0.000118625385     0.000458308669    -0.000104297573
       6       -0.000001040771    -0.000007667593    -0.000004163280
       7       -0.000130838816     0.000311987509    -0.000314950588
       8       -0.000000228616    -0.000002464072     0.000005215171
       9        0.000003145230     0.000000636381     0.000004756456
      10       -0.000003199475    -0.000000372270    -0.000003725637
      11        0.000000005745    -0.000001051490    -0.000000111982
      12       -0.000005272699     0.000009493857    -0.000005572393
      13        0.000000720270     0.000000169618     0.000001202767
      14       -0.000000897575    -0.000000560267    -0.000001000134
      15       -0.000000969157    -0.000006203793     0.000000826345
      16       -0.000003018654     0.000000687625    -0.000002733652
      17       -0.000004669922     0.000004478007     0.000000613686
      18       -0.000001740156    -0.000002465942     0.000001692860
      19        0.000001940232    -0.000001654618    -0.000001858228
      20       -0.000000135025     0.000001823126     0.000000682309

  **** Optimization is complete! (in 8 steps) ****
    Final optimized geometry and variables:
    Molecular point group: c1

    Geometry (in Angstrom), charge = 0, multiplicity = 1:

    H            3.314055737069    -0.053147634715    -1.375303325062
    O            2.405021681995    -0.309805638736    -1.253477792417
    C            2.088024590888    -0.112526292046     0.025469022029
    C            0.646064662583    -0.431924377595     0.318716758552
    O            2.871948102644     0.308595189859     0.813312693535
    C           -0.229637791653     0.817103187417     0.114483478750
    H            0.323280223973    -1.236483309601    -0.328716142160
    H            0.588234267856    -0.760426976684     1.349131247365
    C           -1.696954506399     0.610845886959     0.503917747025
    H           -0.168209507863     1.131530715292    -0.924148495287
    H            0.182638690758     1.623906937111     0.712898275253
    C           -2.463705235466    -0.382055289632    -0.373660951875
    H           -2.196148432832     1.575924400405     0.455464720713
    H           -1.751751389218     0.293579894945     1.543720509762
    C           -3.943931099856    -0.469714505638    -0.002413607858
    H           -2.369554437756    -0.086293868507    -1.416506930236
    H           -2.021304568629    -1.371387802882    -0.294789090518
    H           -4.465640515025    -1.180906562574    -0.634987227729
    H           -4.433785955762     0.493452420301    -0.112832487678
    H           -4.071253796121    -0.788324628286     1.028305261982

  Mulliken Charges: (a.u.)
   Center  Symbol    Alpha    Beta     Spin     Total
       1     H     0.26807  0.26807  0.00000  0.46385
       2     O     4.34746  4.34746  0.00000 -0.69492
       3     C     2.63281  2.63281  0.00000  0.73437
       4     C     3.19912  3.19912  0.00000 -0.39824
       5     O     4.27933  4.27933  0.00000 -0.55865
       6     C     3.16854  3.16854  0.00000 -0.33708
       7     H     0.40016  0.40016  0.00000  0.19968
       8     H     0.39900  0.39900  0.00000  0.20201
       9     C     3.15361  3.15361  0.00000 -0.30722
      10     H     0.41143  0.41143  0.00000  0.17715
      11     H     0.40597  0.40597  0.00000  0.18806
      12     C     3.15500  3.15500  0.00000 -0.30999
      13     H     0.41768  0.41768  0.00000  0.16464
      14     H     0.42056  0.42056  0.00000  0.15889
      15     C     3.23962  3.23962  0.00000 -0.47924
      16     H     0.42106  0.42106  0.00000  0.15788
      17     H     0.42138  0.42138  0.00000  0.15724
      18     H     0.41779  0.41779  0.00000  0.16442
      19     H     0.42068  0.42068  0.00000  0.15863
      20     H     0.42074  0.42074  0.00000  0.15852

   Total alpha = 32.00000, Total beta = 32.00000, Total charge =  0.00000
