  ==> Input File <==

--------------------------------------------------------------------------
set {
	reference rhf
	basis 6-31G*
}

set_num_threads( 1 )
memory 2 gb

molecule MOL {
0 1

H	 -2.144168	 -1.488506	 -2.154695
N	 -1.240905	 -1.543992	 -1.725728
C	 -1.308554	 -1.147662	 -0.330217
H	 -0.635824	 -0.918718	 -2.221732
C	 0.071870	 -1.201413	 0.290004
H	 -1.715468	 -0.147144	 -0.177293
H	 -1.951799	 -1.845021	 0.197710
O	 0.874168	 -0.245412	 -0.342030
H	 0.013147	 -0.993716	 1.358204
H	 0.493846	 -2.195210	 0.157569
C	 2.202317	 -0.244239	 0.074611
H	 2.711377	 -1.041390	 -0.449894
H	 2.692099	 0.699270	 -0.159667
H	 2.283185	 -0.418429	 1.145558

	symmetry c1
}
set optking {
	frozen_dihedral = ("
		8 5 3 6,
		6 3 2 4,
		11 8 5 3
	")
}

ee = energy('scf')
oeprop('DIPOLE', 'QUADRUPOLE', 'MULLIKEN_CHARGES')
f=open( 'psi4out.xyz', 'w' )
f.write( "14  " )
f.write( str(ee) + "\n" )
f.write( MOL.save_string_xyz() )
f.close()
--------------------------------------------------------------------------

    Molecular point group: c1

    Geometry (in Angstrom), charge = 0, multiplicity = 1:

       Center              X                  Y                   Z               Mass
    ------------   -----------------  -----------------  -----------------  -----------------
           H         -2.276759246482    -0.621564273625    -1.734468560529     1.007825032070
           N         -1.373496246482    -0.677050273625    -1.305501560529    14.003074004780
           C         -1.441145246482    -0.280720273625     0.090009439471    12.000000000000
           H         -0.768415246482    -0.051776273625    -1.801505560529     1.007825032070
           C         -0.060721246482    -0.334471273625     0.710230439471    12.000000000000
           H         -1.848059246482     0.719797726375     0.242933439471     1.007825032070
           H         -2.084390246482    -0.978079273625     0.617936439471     1.007825032070
           O          0.741576753518     0.621529726375     0.078196439471    15.994914619560
           H         -0.119444246482    -0.126774273625     1.778430439471     1.007825032070
           H          0.361254753518    -1.328268273625     0.577795439471     1.007825032070
           C          2.069725753518     0.622702726375     0.494837439471    12.000000000000
           H          2.578785753518    -0.174448273625    -0.029667560529     1.007825032070
           H          2.559507753518     1.566211726375     0.260559439471     1.007825032070
           H          2.150593753518     0.448512726375     1.565784439471     1.007825032070

  Charge       = 0
  Multiplicity = 1
  Basis Set: 6-31G*
  Basis Set:

    Orbital Energies (a.u.)
    -----------------------

    Doubly Occupied:

       1A    -20.555583     2A    -15.528421     3A    -11.266204
       4A    -11.266117     5A    -11.240842     6A     -1.380739
       7A     -1.173603     8A     -0.998554     9A     -0.907169
      10A     -0.815505    11A     -0.683981    12A     -0.674527
      13A     -0.642292    14A     -0.610181    15A     -0.607272
      16A     -0.539820    17A     -0.531865    18A     -0.497218
      19A     -0.472132    20A     -0.415002    21A     -0.380119

  @DF-RHF Final Energy:  -248.12322699139818

   => Energetics <=

    Nuclear Repulsion Energy =            194.7176216482760367
    One-Electron Energy =                -723.3073650069061387
    Two-Electron Energy =                 280.4665163672316339
    DFT Exchange-Correlation Energy =       0.0000000000000000
    Empirical Dispersion Energy =           0.0000000000000000
    PCM Polarization Energy =               0.0000000000000000
    EFP Energy =                            0.0000000000000000
    Total Energy =                       -248.1232269913984965

  Mulliken Charges: (a.u.)
   Center  Symbol    Alpha    Beta     Spin     Total
       1     H     0.33284  0.33284  0.00000  0.33432
       2     N     3.92532  3.92532  0.00000 -0.85063
       3     C     3.06878  3.06878  0.00000 -0.13757
       4     H     0.32365  0.32365  0.00000  0.35270
       5     C     2.99048  2.99048  0.00000  0.01903
       6     H     0.42651  0.42651  0.00000  0.14697
       7     H     0.42048  0.42048  0.00000  0.15904
       8     O     4.31089  4.31089  0.00000 -0.62178
       9     H     0.43035  0.43035  0.00000  0.13931
      10     H     0.42297  0.42297  0.00000  0.15406
      11     C     3.07872  3.07872  0.00000 -0.15743
      12     H     0.42447  0.42447  0.00000  0.15106
      13     H     0.41401  0.41401  0.00000  0.17197
      14     H     0.43052  0.43052  0.00000  0.13895

   Total alpha = 21.00000, Total beta = 21.00000, Total charge = -0.00000
