  ==> Input File <==

--------------------------------------------------------------------------
set {
	reference rhf
	basis 6-31G*
}

set_num_threads( 1 )
memory 2 gb

molecule MOL {
0 1

H	 -3.420663	 1.227371	 -1.044276
O	 -3.452007	 0.283848	 -0.965577
C	 -3.181085	 -0.079926	 0.364119
C	 -1.765924	 0.277073	 0.805136
H	 -3.327791	 -1.152017	 0.410903
H	 -3.905698	 0.375695	 1.036898
C	 -0.677594	 -0.417312	 -0.014550
H	 -1.637766	 1.358238	 0.744969
H	 -1.659588	 0.017670	 1.857098
C	 0.738335	 -0.034840	 0.421385
H	 -0.814977	 -0.178223	 -1.064632
H	 -0.802730	 -1.495410	 0.071702
C	 1.822265	 -0.738362	 -0.399735
H	 0.853533	 1.043532	 0.342250
H	 0.871597	 -0.279636	 1.474438
C	 2.808510	 0.203007	 -1.100663
H	 1.350966	 -1.380796	 -1.141928
H	 2.383836	 -1.398168	 0.258376
C	 2.188715	 1.071744	 -2.196817
H	 3.603433	 -0.395612	 -1.538890
H	 3.284418	 0.841949	 -0.359402
H	 1.694183	 0.459729	 -2.946494
H	 2.950787	 1.658261	 -2.700881
H	 1.455137	 1.765466	 -1.799604

	symmetry c1
}
set optking {
	frozen_dihedral = ("
		20 16 13 17,
		13 10 7 11,
		11 7 4 3,
		1 2 3 5,
		7 4 3 2
	")
}

ee = energy('scf')
oeprop('DIPOLE', 'QUADRUPOLE', 'MULLIKEN_CHARGES')
f=open( 'psi4out.xyz', 'w' )
f.write( "24  " )
f.write( str(ee) + "\n" )
f.write( MOL.save_string_xyz() )
f.close()
--------------------------------------------------------------------------

    Molecular point group: c1

    Geometry (in Angstrom), charge = 0, multiplicity = 1:

       Center              X                  Y                   Z               Mass
    ------------   -----------------  -----------------  -----------------  -----------------
           H         -3.169933912641     1.137773309922    -0.636531220373     1.007825032070
           O         -3.201277912641     0.194250309922    -0.557832220373    15.994914619560
           C         -2.930355912641    -0.169523690078     0.771863779627    12.000000000000
           C         -1.515194912641     0.187475309922     1.212880779627    12.000000000000
           H         -3.077061912641    -1.241614690078     0.818647779627     1.007825032070
           H         -3.654968912641     0.286097309922     1.444642779627     1.007825032070
           C         -0.426864912641    -0.506909690078     0.393194779627    12.000000000000
           H         -1.387036912641     1.268640309922     1.152713779627     1.007825032070
           H         -1.408858912641    -0.071927690078     2.264842779627     1.007825032070
           C          0.989064087359    -0.124437690078     0.829129779627    12.000000000000
           H         -0.564247912641    -0.267820690078    -0.656887220373     1.007825032070
           H         -0.552000912641    -1.585007690078     0.479446779627     1.007825032070
           C          2.072994087359    -0.827959690078     0.008009779627    12.000000000000
           H          1.104262087359     0.953934309922     0.749994779627     1.007825032070
           H          1.122326087359    -0.369233690078     1.882182779627     1.007825032070
           C          3.059239087359     0.113409309922    -0.692918220373    12.000000000000
           H          1.601695087359    -1.470393690078    -0.734183220373     1.007825032070
           H          2.634565087359    -1.487765690078     0.666120779627     1.007825032070
           C          2.439444087359     0.982146309922    -1.789072220373    12.000000000000
           H          3.854162087359    -0.485209690078    -1.131145220373     1.007825032070
           H          3.535147087359     0.752351309922     0.048342779627     1.007825032070
           H          1.944912087359     0.370131309922    -2.538749220373     1.007825032070
           H          3.201516087359     1.568663309922    -2.293136220373     1.007825032070
           H          1.705866087359     1.675868309922    -1.391859220373     1.007825032070

  Charge       = 0
  Multiplicity = 1
  Basis Set: 6-31G*
  Basis Set:

    Orbital Energies (a.u.)
    -----------------------

    Doubly Occupied:

       1A    -20.553387     2A    -11.267451     3A    -11.216741
       4A    -11.214028     5A    -11.211342     6A    -11.210743
       7A    -11.209888     8A    -11.207395     9A     -1.359979
      10A     -1.088823    11A     -1.047386    12A     -0.984994
      13A     -0.915924    14A     -0.849748    15A     -0.800850
      16A     -0.776132    17A     -0.679067    18A     -0.653345
      19A     -0.624407    20A     -0.618086    21A     -0.599487
      22A     -0.576403    23A     -0.568563    24A     -0.532957
      25A     -0.521373    26A     -0.509564    27A     -0.494220
      28A     -0.477110    29A     -0.467107    30A     -0.458713
      31A     -0.453749    32A     -0.447065    33A     -0.417818

  @DF-RHF Final Energy:  -349.24219741040719

   => Energetics <=

    Nuclear Repulsion Energy =            390.1036810753153645
    One-Electron Energy =               -1246.6639774212949305
    Two-Electron Energy =                 507.3180989355734027
    DFT Exchange-Correlation Energy =       0.0000000000000000
    Empirical Dispersion Energy =           0.0000000000000000
    PCM Polarization Energy =               0.0000000000000000
    EFP Energy =                            0.0000000000000000
    Total Energy =                       -349.2421974104062201

  Mulliken Charges: (a.u.)
   Center  Symbol    Alpha    Beta     Spin     Total
       1     H     0.28339  0.28339  0.00000  0.43322
       2     O     4.36834  4.36834  0.00000 -0.73668
       3     C     2.99613  2.99613  0.00000  0.00774
       4     C     3.16942  3.16942  0.00000 -0.33883
       5     H     0.41644  0.41644  0.00000  0.16712
       6     H     0.42831  0.42831  0.00000  0.14338
       7     C     3.15518  3.15518  0.00000 -0.31036
       8     H     0.42852  0.42852  0.00000  0.14297
       9     H     0.42244  0.42244  0.00000  0.15513
      10     C     3.15522  3.15522  0.00000 -0.31045
      11     H     0.41110  0.41110  0.00000  0.17780
      12     H     0.42295  0.42295  0.00000  0.15410
      13     C     3.15585  3.15585  0.00000 -0.31169
      14     H     0.42218  0.42218  0.00000  0.15564
      15     H     0.42213  0.42213  0.00000  0.15575
      16     C     3.15355  3.15355  0.00000 -0.30711
      17     H     0.41993  0.41993  0.00000  0.16014
      18     H     0.42048  0.42048  0.00000  0.15903
      19     C     3.24047  3.24047  0.00000 -0.48094
      20     H     0.42196  0.42196  0.00000  0.15608
      21     H     0.42375  0.42375  0.00000  0.15250
      22     H     0.42094  0.42094  0.00000  0.15812
      23     H     0.41943  0.41943  0.00000  0.16114
      24     H     0.42190  0.42190  0.00000  0.15619

   Total alpha = 33.00000, Total beta = 33.00000, Total charge =  0.00000
