  ==> Input File <==

--------------------------------------------------------------------------
set {
	reference rhf
	basis cc-pvtz
}

set_num_threads( 4 )
memory 2 gb

molecule MOL {
0 1

H	 -0.000105	 1.988529	 0.748933
O	 -0.000098	 1.879786	 -0.188206
C	 -0.000014	 0.545691	 -0.532416
C	 -1.286000	 -0.125171	 -0.046657
C	 1.286016	 -0.125031	 -0.046584
H	 0.000021	 0.481103	 -1.610604
F	 -2.176707	 0.795074	 0.230199
F	 -1.800594	 -0.924921	 -0.946271
F	 -1.077783	 -0.821832	 1.050012
F	 2.317750	 0.468717	 -0.594166
F	 1.336617	 -1.393765	 -0.365123
F	 1.414467	 -0.024806	 1.259108

	symmetry c1
}
set optking {
	frozen_dihedral = ("
		7 4 3 6
	")
}

ee = optimize('scf')
oeprop('DIPOLE', 'QUADRUPOLE', 'MULLIKEN_CHARGES')
f=open( 'psi4out.xyz', 'w' )
f.write( "12  " )
f.write( str(ee) + "\n" )
f.write( MOL.save_string_xyz() )
f.close()
--------------------------------------------------------------------------

    Molecular point group: c1
  Charge       = 0
  Multiplicity = 1
  Basis Set: CC-PVTZ
  Basis Set:
  @DF-RHF Final Energy:  -786.58323791725638
    Total Energy =                       -786.5832379172568380
    Molecular point group: c1
  Basis Set: CC-PVTZ
  Basis Set:
  Basis Set: CC-PVTZ
  Basis Set:
  @DF-RHF Final Energy:  -786.58453476283808
    Total Energy =                       -786.5845347628384161
  Basis Set: CC-PVTZ
  Basis Set:
  Basis Set: CC-PVTZ
  Basis Set:
  @DF-RHF Final Energy:  -786.58508735054068
    Total Energy =                       -786.5850873505418122
  Basis Set: CC-PVTZ
  Basis Set:
  Basis Set: CC-PVTZ
  Basis Set:
  @DF-RHF Final Energy:  -786.58514725947839
    Total Energy =                       -786.5851472594785037
  Basis Set: CC-PVTZ
  Basis Set:
  Basis Set: CC-PVTZ
  Basis Set:
  @DF-RHF Final Energy:  -786.58516989668385
    Total Energy =                       -786.5851698966832828
  Basis Set: CC-PVTZ
  Basis Set:
  Basis Set: CC-PVTZ
  Basis Set:
  @DF-RHF Final Energy:  -786.58518662010829
    Total Energy =                       -786.5851866201085159
  Basis Set: CC-PVTZ
  Basis Set:
  Basis Set: CC-PVTZ
  Basis Set:
  @DF-RHF Final Energy:  -786.58518796180249
    Total Energy =                       -786.5851879618023759
  Basis Set: CC-PVTZ
  Basis Set:
  Charge       = 0
  Multiplicity = 1
  Basis Set: CC-PVTZ
  Basis Set:

    Orbital Energies (a.u.)
    -----------------------

    Doubly Occupied:

       1A    -26.357682     2A    -26.357399     3A    -26.356396
       4A    -26.355267     5A    -26.354023     6A    -26.353189
       7A    -20.610525     8A    -11.520125     9A    -11.518366
      10A    -11.351557    11A     -1.771452    12A     -1.765443
      13A     -1.665813    14A     -1.663751    15A     -1.663111
      16A     -1.659023    17A     -1.440454    18A     -1.102153
      19A     -1.000164    20A     -0.944025    21A     -0.871037
      22A     -0.866496    23A     -0.857989    24A     -0.853348
      25A     -0.839998    26A     -0.819691    27A     -0.741812
      28A     -0.737130    29A     -0.733733    30A     -0.728653
      31A     -0.695306    32A     -0.691235    33A     -0.689887
      34A     -0.683542    35A     -0.675033    36A     -0.667520
      37A     -0.663189    38A     -0.656824    39A     -0.623273
      40A     -0.551201    41A     -0.509860

  @DF-RHF Final Energy:  -786.58518809112400

   => Energetics <=

    Nuclear Repulsion Energy =            670.8771846605267228
    One-Electron Energy =               -2428.9913946503661464
    Two-Electron Energy =                 971.5290218987148592
    DFT Exchange-Correlation Energy =       0.0000000000000000
    Empirical Dispersion Energy =           0.0000000000000000
    PCM Polarization Energy =               0.0000000000000000
    EFP Energy =                            0.0000000000000000
    Total Energy =                       -786.5851880911244507
    Molecular point group: c1
  Basis Set: CC-PVTZ
  Basis Set:

  -Total Gradient:
     Atom            X                  Y                   Z
    ------   -----------------  -----------------  -----------------
       1       -0.000004201066     0.000002043058    -0.000001497291
       2        0.000001381292     0.000005442422     0.000006810154
       3       -0.002365001467     0.004664832789     0.000701696867
       4       -0.001049275792    -0.001052866903    -0.004581864542
       5        0.000001236745     0.000020223996     0.000053850984
       6        0.002280980321    -0.003844271038     0.000275816926
       7        0.001156451235     0.000213537249     0.003580138051
       8        0.000007118863     0.000024970369     0.000014271188
       9       -0.000005679604    -0.000009980818    -0.000001385525
      10       -0.000014991287     0.000007187275    -0.000000235212
      11       -0.000008060297    -0.000049154252    -0.000027099859
      12        0.000000041063     0.000018035849    -0.000020501741

  **** Optimization is complete! (in 8 steps) ****
    Final optimized geometry and variables:
    Molecular point group: c1

    Geometry (in Angstrom), charge = 0, multiplicity = 1:

    H            0.029972304657     2.036550071016     0.779627284476
    O            0.030430454195     1.926128929067    -0.156892109765
    C            0.000523046727     0.598955728025    -0.509399242023
    C           -1.283493400911    -0.127865478518    -0.046611323117
    C            1.274358630634    -0.107413343340    -0.043869962484
    H            0.020145682372     0.530925096141    -1.586447392100
    F           -2.230807743113     0.735805620797     0.216870808712
    F           -1.710390850307    -0.942485395798    -0.980840832362
    F           -1.099832351622    -0.836857939107     1.046330673015
    F            2.309582864621     0.398410707332    -0.668519108700
    F            1.233257870037    -1.391621166559    -0.305684740215
    F            1.475351343831     0.049215013934     1.245635831935

  Mulliken Charges: (a.u.)
   Center  Symbol    Alpha    Beta     Spin     Total
       1     H     0.38361  0.38361  0.00000  0.23278
       2     O     4.18290  4.18290  0.00000 -0.36581
       3     C     3.01457  3.01457  0.00000 -0.02914
       4     C     2.67798  2.67798  0.00000  0.64403
       5     C     2.67978  2.67978  0.00000  0.64043
       6     H     0.42863  0.42863  0.00000  0.14273
       7     F     4.60152  4.60152  0.00000 -0.20305
       8     F     4.60536  4.60536  0.00000 -0.21071
       9     F     4.60668  4.60668  0.00000 -0.21336
      10     F     4.60243  4.60243  0.00000 -0.20486
      11     F     4.60578  4.60578  0.00000 -0.21156
      12     F     4.61075  4.61075  0.00000 -0.22149

   Total alpha = 41.00000, Total beta = 41.00000, Total charge = -0.00000
