                              Psi4 1.0.54 Driver

  ==> Input File <==

--------------------------------------------------------------------------
set {
	reference rhf
	basis cc-pvtz
}

set_num_threads( 4 )
memory 2 gb

molecule MOL {
0 1

H	 -2.576835	 -0.628571	 -0.764950
O	 -2.346257	 -0.289210	 0.080372
C	 -1.183935	 0.486039	 -0.009831
C	 0.062853	 -0.375310	 0.027457
H	 -1.178881	 1.094526	 -0.908634
H	 -1.184406	 1.155156	 0.838676
O	 1.172093	 0.457955	 -0.054438
H	 0.052476	 -1.081302	 -0.804627
H	 0.076323	 -0.955658	 0.947560
C	 2.395478	 -0.199028	 -0.000366
H	 2.505946	 -0.901710	 -0.823354
H	 3.174616	 0.545641	 -0.071768
H	 2.513730	 -0.742241	 0.934223

	symmetry c1
}
set optking {
	frozen_dihedral = ("
		1 2 3 5
	")
}

ee,wfn = optimize('scf', return_wfn=True)
oeprop( wfn, 'DIPOLE', 'QUADRUPOLE', 'MULLIKEN_CHARGES')
f=open( 'psi4out.xyz', 'w' )
f.write( "13  " )
f.write( str(ee) + "\n" )
f.write( MOL.save_string_xyz() )
f.close()
--------------------------------------------------------------------------

    Molecular point group: c1
  Charge       = 0
  Multiplicity = 1
  Basis Set: CC-PVTZ
  Basis Set:
  @DF-RHF Final Energy:  -268.06221399231288
    Total Energy =                       -268.0622139923127065
    Molecular point group: c1
  Basis Set: CC-PVTZ
  Basis Set:
  Basis Set: CC-PVTZ
  Basis Set:
  @DF-RHF Final Energy:  -268.06222306549614
    Total Energy =                       -268.0622230654962550
  Basis Set: CC-PVTZ
  Basis Set:
  Charge       = 0
  Multiplicity = 1
  Basis Set: CC-PVTZ
  Basis Set:

    Orbital Energies (a.u.)
    -----------------------

    Doubly Occupied:

       1A    -20.555287     2A    -20.552746     3A    -11.268182
       4A    -11.267493     5A    -11.267220     6A     -1.391256
       7A     -1.369061     8A     -1.019472     9A     -0.913642
      10A     -0.841068    11A     -0.713527    12A     -0.676461
      13A     -0.660677    14A     -0.640391    15A     -0.598603
      16A     -0.567396    17A     -0.547463    18A     -0.489256
      19A     -0.485455    20A     -0.441214    21A     -0.423971

  @DF-RHF Final Energy:  -268.06222623160545

   => Energetics <=

    Nuclear Repulsion Energy =            190.4621787355026470
    One-Electron Energy =                -743.6691300762109904
    Two-Electron Energy =                 285.1447251091030921
    DFT Exchange-Correlation Energy =       0.0000000000000000
    Empirical Dispersion Energy =           0.0000000000000000
    PCM Polarization Energy =               0.0000000000000000
    EFP Energy =                            0.0000000000000000
    Total Energy =                       -268.0622262316052229
    Molecular point group: c1
  Basis Set: CC-PVTZ
  Basis Set:

  -Total Gradient:
     Atom            X                  Y                   Z
    ------   -----------------  -----------------  -----------------
       1       -0.000309354522     0.000503830452    -0.000075285238
       2        0.000494172626    -0.000713468792     0.000071118095
       3       -0.000478902652     0.000571793949     0.000225020102
       4       -0.000012638838     0.000043263173     0.000013688016
       5        0.000279333867    -0.000360326688    -0.000263290974
       6        0.000013375871    -0.000003390752     0.000008791000
       7       -0.000033333707    -0.000015707363     0.000002816866
       8       -0.000011291704     0.000008036926     0.000015529735
       9        0.000023311104    -0.000040328091     0.000001440092
      10        0.000037444333     0.000005582781    -0.000000330297
      11       -0.000002956118     0.000001196804     0.000003393724
      12        0.000006503394    -0.000004179189     0.000000791556
      13       -0.000005663657     0.000003696789    -0.000003682677

  **** Optimization is complete! (in 3 steps) ****
    Final optimized geometry and variables:
    Molecular point group: c1

    Geometry (in Angstrom), charge = 0, multiplicity = 1:

    H           -2.572643605628    -0.635569963338    -0.758130583128
    O           -2.343060921482    -0.290698037193     0.084639564345
    C           -1.182676475243     0.488182535311    -0.009185525900
    C            0.062221873344    -0.376041535626     0.024540861006
    H           -1.178335444875     1.092007299842    -0.910819298584
    H           -1.177170473100     1.160301039061     0.837198650731
    O            1.173123994089     0.455863293241    -0.053704773398
    H            0.049459262696    -1.078579086958    -0.809771426245
    H            0.074519789140    -0.959811410950     0.942507847252
    C            2.395273091867    -0.203360141788    -0.000952192989
    H            2.505039111814    -0.903803067233    -0.825942852657
    H            3.175922359644     0.540030814105    -0.069496206679
    H            2.511911677497    -0.749737397770     0.932000542459

  Mulliken Charges: (a.u.)
   Center  Symbol    Alpha    Beta     Spin     Total
       1     H     0.39330  0.39330  0.00000  0.21339
       2     O     4.20303  4.20303  0.00000 -0.40606
       3     C     2.97483  2.97483  0.00000  0.05035
       4     C     2.96278  2.96278  0.00000  0.07444
       5     H     0.46683  0.46683  0.00000  0.06634
       6     H     0.45310  0.45310  0.00000  0.09380
       7     O     4.17583  4.17583  0.00000 -0.35166
       8     H     0.48148  0.48148  0.00000  0.03705
       9     H     0.46998  0.46998  0.00000  0.06004
      10     C     3.03162  3.03162  0.00000 -0.06325
      11     H     0.47126  0.47126  0.00000  0.05748
      12     H     0.44611  0.44611  0.00000  0.10778
      13     H     0.46985  0.46985  0.00000  0.06030

   Total alpha = 21.00000, Total beta = 21.00000, Total charge = -0.00000

*** Psi4 exiting successfully. Buy a developer a beer!
