                              Psi4 1.0.54 Driver

  ==> Input File <==

--------------------------------------------------------------------------
set {
	reference rhf
	basis cc-pvtz
}

set_num_threads( 4 )
memory 2 gb

molecule MOL {
0 1

H	 -4.239371	 0.023641	 0.657693
O	 -3.520448	 -0.329658	 0.167259
C	 -2.308455	 0.193930	 0.641964
C	 -1.175688	 -0.398187	 -0.171891
H	 -2.301325	 1.278266	 0.552877
H	 -2.174921	 -0.049010	 1.694094
C	 0.196029	 0.106276	 0.266738
H	 -1.343017	 -0.160370	 -1.217675
H	 -1.220254	 -1.479293	 -0.087387
C	 1.330220	 -0.826136	 -0.155230
H	 0.359542	 1.097229	 -0.145561
H	 0.212134	 0.218135	 1.348778
C	 2.719700	 -0.407669	 0.328325
H	 1.339388	 -0.911200	 -1.239363
H	 1.119001	 -1.821953	 0.224128
C	 3.241564	 0.893452	 -0.276737
H	 3.418299	 -1.204729	 0.093035
H	 2.711776	 -0.323368	 1.411960
H	 3.254204	 0.841071	 -1.360784
H	 2.634460	 1.745075	 0.005842
H	 4.254264	 1.092401	 0.054971

	symmetry c1
}
set optking {
	frozen_dihedral = ("
		8 4 7 10
	")
}

ee,wfn = optimize('scf', return_wfn=True)
oeprop( wfn, 'DIPOLE', 'QUADRUPOLE', 'MULLIKEN_CHARGES')
f=open( 'psi4out.xyz', 'w' )
f.write( "21  " )
f.write( str(ee) + "\n" )
f.write( MOL.save_string_xyz() )
f.close()
--------------------------------------------------------------------------

    Molecular point group: c1
  Charge       = 0
  Multiplicity = 1
  Basis Set: CC-PVTZ
  Basis Set:
  @DF-RHF Final Energy:  -310.33163071816028
    Total Energy =                       -310.3316307181599996
    Molecular point group: c1
  Basis Set: CC-PVTZ
  Basis Set:
  Basis Set: CC-PVTZ
  Basis Set:
  @DF-RHF Final Energy:  -310.33174560503591
    Total Energy =                       -310.3317456050357350
  Basis Set: CC-PVTZ
  Basis Set:
  Basis Set: CC-PVTZ
  Basis Set:
  @DF-RHF Final Energy:  -310.33182125122994
    Total Energy =                       -310.3318212512301102
  Basis Set: CC-PVTZ
  Basis Set:
  Basis Set: CC-PVTZ
  Basis Set:
  @DF-RHF Final Energy:  -310.33181676362506
    Total Energy =                       -310.3318167636249427
  Basis Set: CC-PVTZ
  Basis Set:
  Basis Set: CC-PVTZ
  Basis Set:
  @DF-RHF Final Energy:  -310.33183147019861
    Total Energy =                       -310.3318314701983809
  Basis Set: CC-PVTZ
  Basis Set:
  Charge       = 0
  Multiplicity = 1
  Basis Set: CC-PVTZ
  Basis Set:

    Orbital Energies (a.u.)
    -----------------------

    Doubly Occupied:

       1A    -20.545360     2A    -11.264968     3A    -11.213220
       4A    -11.213086     5A    -11.211425     6A    -11.208925
       7A    -11.206014     8A     -1.363284     9A     -1.087082
      10A     -1.034303    11A     -0.955495    12A     -0.876158
      13A     -0.807492    14A     -0.779651    15A     -0.696542
      16A     -0.662368    17A     -0.621424    18A     -0.610002
      19A     -0.590790    20A     -0.564612    21A     -0.544544
      22A     -0.519229    23A     -0.508289    24A     -0.492979
      25A     -0.477361    26A     -0.458669    27A     -0.456858
      28A     -0.444643    29A     -0.437070

  @DF-RHF Final Energy:  -310.33183161739248

   => Energetics <=

    Nuclear Repulsion Energy =            312.7991356233044371
    One-Electron Energy =               -1040.5582551164297911
    Two-Electron Energy =                 417.4272878757332137
    DFT Exchange-Correlation Energy =       0.0000000000000000
    Empirical Dispersion Energy =           0.0000000000000000
    PCM Polarization Energy =               0.0000000000000000
    EFP Energy =                            0.0000000000000000
    Total Energy =                       -310.3318316173921403
    Molecular point group: c1
  Basis Set: CC-PVTZ
  Basis Set:

  -Total Gradient:
     Atom            X                  Y                   Z
    ------   -----------------  -----------------  -----------------
       1        0.000008105647     0.000007528452     0.000001172224
       2       -0.000000903767    -0.000018828907    -0.000015641183
       3        0.000023433826     0.000028876607     0.000041037907
       4        0.001541189061    -0.003834554071    -0.000430527230
       5       -0.000010807186    -0.000001553413    -0.000005621839
       6       -0.000006599919    -0.000003330383     0.000006637537
       7       -0.000045905117     0.002336431147    -0.002420621336
       8       -0.001300188174     0.002699335261     0.000923007950
       9        0.000006733840    -0.000001164449    -0.000006197933
      10       -0.000198887668    -0.001219449240     0.001906192942
      11        0.000005105904     0.000007601572    -0.000007922259
      12       -0.000008541773    -0.000000699698     0.000007986724
      13       -0.000004610949     0.000007618376     0.000000593123
      14        0.000001249127    -0.000003505802     0.000000688196
      15        0.000003840347     0.000001408959     0.000002937372
      16       -0.000002657210    -0.000003469043    -0.000001633302
      17       -0.000004437388     0.000003329438     0.000000159752
      18       -0.000002033927    -0.000002719720    -0.000002463528
      19       -0.000003058253     0.000001996246    -0.000000774401
      20       -0.000001086737    -0.000003096268     0.000001011618
      21        0.000000060321    -0.000001755064    -0.000000022335

  **** Optimization is complete! (in 6 steps) ****
    Final optimized geometry and variables:
    Molecular point group: c1

    Geometry (in Angstrom), charge = 0, multiplicity = 1:

    H           -4.242536028850     0.152281368578     0.497512533983
    O           -3.522251052001    -0.194434769794     0.004445810451
    C           -2.307328042371     0.255552143436     0.542263781055
    C           -1.170745550222    -0.331900402512    -0.271914563861
    H           -2.258114594665     1.342486411985     0.515931085935
    H           -2.214288664257    -0.051037215951     1.581897858636
    C            0.197319930933     0.170890806055     0.191123668851
    H           -1.338346533321    -0.057333361080    -1.308019882871
    H           -1.224035344880    -1.413216322637    -0.209142473733
    C            1.346968638531    -0.729233434944    -0.258623733183
    H            0.344627624532     1.184518653589    -0.165059989017
    H            0.213454434365     0.224936049437     1.278136917612
    C            2.734653154962    -0.274309701059     0.195941387155
    H            1.336640230940    -0.815564649989    -1.343085126567
    H            1.167608746225    -1.729100764183     0.125357681798
    C            3.220095602604     1.026754985178    -0.438716392073
    H            3.446163647996    -1.060350468733    -0.037599195287
    H            2.741905456314    -0.172397183698     1.278153563819
    H            3.219889417913     0.954879994389    -1.521635925229
    H            2.598385461170     1.870144678979    -0.163535842000
    H            4.232400047098     1.253492282026    -0.124079164701

  Mulliken Charges: (a.u.)
   Center  Symbol    Alpha    Beta     Spin     Total
       1     H     0.39742  0.39742  0.00000  0.20515
       2     O     4.19476  4.19476  0.00000 -0.38953
       3     C     2.96254  2.96254  0.00000  0.07493
       4     C     3.08409  3.08409  0.00000 -0.16819
       5     H     0.47521  0.47521  0.00000  0.04958
       6     H     0.47463  0.47463  0.00000  0.05074
       7     C     3.10453  3.10453  0.00000 -0.20905
       8     H     0.44992  0.44992  0.00000  0.10017
       9     H     0.45157  0.45157  0.00000  0.09687
      10     C     3.09416  3.09416  0.00000 -0.18832
      11     H     0.45037  0.45037  0.00000  0.09927
      12     H     0.45802  0.45802  0.00000  0.08396
      13     C     3.08999  3.08999  0.00000 -0.17998
      14     H     0.45295  0.45295  0.00000  0.09411
      15     H     0.44873  0.44873  0.00000  0.10253
      16     C     3.15177  3.15177  0.00000 -0.30354
      17     H     0.44839  0.44839  0.00000  0.10322
      18     H     0.45531  0.45531  0.00000  0.08937
      19     H     0.45456  0.45456  0.00000  0.09089
      20     H     0.45438  0.45438  0.00000  0.09124
      21     H     0.44671  0.44671  0.00000  0.10658

   Total alpha = 29.00000, Total beta = 29.00000, Total charge = -0.00000

*** Psi4 exiting successfully. Buy a developer a beer!
