  ==> Input File <==

--------------------------------------------------------------------------
set {
	reference rhf
	basis 6-31G*
}

set_num_threads( 4 )
memory 2 gb

molecule MOL {
0 1

O	 -0.988096	 -1.408613	 0.050699
C	 -0.676749	 -0.249230	 -0.009274
C	 -1.746085	 0.827156	 -0.009539
N	 0.623947	 0.147590	 -0.102813
H	 -1.701500	 1.431508	 -0.908902
H	 -2.703425	 0.330732	 0.036390
H	 -1.647323	 1.487769	 0.845106
C	 1.160236	 1.017967	 0.925153
C	 1.413555	 0.056937	 -1.311344
H	 2.184446	 0.734058	 1.140578
H	 0.568130	 0.924474	 1.818803
H	 1.152965	 2.057830	 0.605694
H	 2.451604	 -0.103199	 -1.045167
H	 1.103220	 -0.772179	 -1.927130
H	 1.355996	 0.968376	 -1.903609

	symmetry c1
}
set optking {
	frozen_dihedral = ("
		8 4 2 3
	")
}

ee = optimize('scf')
oeprop('DIPOLE', 'QUADRUPOLE', 'MULLIKEN_CHARGES')
f=open( 'psi4out.xyz', 'w' )
f.write( "15  " )
f.write( str(ee) + "\n" )
f.write( MOL.save_string_xyz() )
f.close()
--------------------------------------------------------------------------

    Molecular point group: c1
  Charge       = 0
  Multiplicity = 1
  Basis Set: 6-31G*
  Basis Set:
  @DF-RHF Final Energy:  -285.99808560582767
    Total Energy =                       -285.9980856058275549
    Molecular point group: c1
  Basis Set: 6-31G*
  Basis Set:
  Basis Set: 6-31G*
  Basis Set:
  @DF-RHF Final Energy:  -286.00233331131699
    Total Energy =                       -286.0023333113168178
  Basis Set: 6-31G*
  Basis Set:
  Basis Set: 6-31G*
  Basis Set:
  @DF-RHF Final Energy:  -286.00466479723002
    Total Energy =                       -286.0046647972299070
  Basis Set: 6-31G*
  Basis Set:
  Basis Set: 6-31G*
  Basis Set:
  @DF-RHF Final Energy:  -286.00815948327033
    Total Energy =                       -286.0081594832706742
  Basis Set: 6-31G*
  Basis Set:
  @DF-RHF Final Energy:  -286.01213408380727
    Total Energy =                       -286.0121340838072115
  @DF-RHF Final Energy:  -285.99977234610492
    Total Energy =                       -285.9997723461049191
  @DF-RHF Final Energy:  -286.01377312242113
    Total Energy =                       -286.0137731224210142
  @DF-RHF Final Energy:  -286.01644137150265
    Total Energy =                       -286.0164413715026512
  @DF-RHF Final Energy:  -286.01979545721315
    Total Energy =                       -286.0197954572132630
  @DF-RHF Final Energy:  -286.02156876846834
    Total Energy =                       -286.0215687684683985
  @DF-RHF Final Energy:  -286.02217836971852
    Total Energy =                       -286.0221783697187448
  @DF-RHF Final Energy:  -286.02231645641172
    Total Energy =                       -286.0223164564115450
  @DF-RHF Final Energy:  -286.02233033860773
    Total Energy =                       -286.0223303386078442
  @DF-RHF Final Energy:  -286.02233579975234
    Total Energy =                       -286.0223357997521703
  @DF-RHF Final Energy:  -286.02233739294132
    Total Energy =                       -286.0223373929416084
  @DF-RHF Final Energy:  -286.02233774686522
    Total Energy =                       -286.0223377468650483
  @DF-RHF Final Energy:  -286.02233938582395
    Total Energy =                       -286.0223393858238978
  @DF-RHF Final Energy:  -286.01780842752464
    Total Energy =                       -286.0178084275243577
  @DF-RHF Final Energy:  -286.01963556914910
    Total Energy =                       -286.0196355691489316
  @DF-RHF Final Energy:  -286.02185238145847
    Total Energy =                       -286.0218523814584159
  @DF-RHF Final Energy:  -286.02227534247447
    Total Energy =                       -286.0222753424746998
  @DF-RHF Final Energy:  -286.02239090563342
    Total Energy =                       -286.0223909056335287
  @DF-RHF Final Energy:  -286.02240485026476
    Total Energy =                       -286.0224048502648202
  @DF-RHF Final Energy:  -286.02241092077008
    Total Energy =                       -286.0224109207698007
  @DF-RHF Final Energy:  -286.02241326468248
    Total Energy =                       -286.0224132646824273
  @DF-RHF Final Energy:  -286.02240825345154
    Total Energy =                       -286.0224082534517720
  @DF-RHF Final Energy:  -286.02240935242145
    Total Energy =                       -286.0224093524212776
  @DF-RHF Final Energy:  -286.02241190496920
    Total Energy =                       -286.0224119049690898
  @DF-RHF Final Energy:  -286.02241002492940
    Total Energy =                       -286.0224100249295702
  @DF-RHF Final Energy:  -286.02240939199851
    Total Energy =                       -286.0224093919986217
  @DF-RHF Final Energy:  -286.02241346174344
    Total Energy =                       -286.0224134617434402
  @DF-RHF Final Energy:  -286.02240671307379
    Total Energy =                       -286.0224067130739058
  @DF-RHF Final Energy:  -286.02241140084323
    Total Energy =                       -286.0224114008430547
  @DF-RHF Final Energy:  -286.02241296392174
    Total Energy =                       -286.0224129639215107
  @DF-RHF Final Energy:  -286.02240783275067
    Total Energy =                       -286.0224078327505595
  @DF-RHF Final Energy:  -286.02241289100385
    Total Energy =                       -286.0224128910040235
  Basis Set: 6-31G*
  Basis Set:
  @DF-RHF Final Energy:  -286.02241261157747
    Total Energy =                       -286.0224126115778063
  Basis Set: 6-31G*
  Basis Set:
  Basis Set: 6-31G*
  Basis Set:
  @DF-RHF Final Energy:  -286.02240946514917
    Total Energy =                       -286.0224094651490532
  Basis Set: 6-31G*
  Basis Set:
  Basis Set: 6-31G*
  Basis Set:
  @DF-RHF Final Energy:  -286.02241288797711
    Total Energy =                       -286.0224128879772252
  Basis Set: 6-31G*
  Basis Set:
  Charge       = 0
  Multiplicity = 1
  Basis Set: 6-31G*
  Basis Set:

    Orbital Energies (a.u.)
    -----------------------

    Doubly Occupied:

       1A    -20.533592     2A    -15.576946     3A    -11.344551
       4A    -11.263920     5A    -11.244408     6A    -11.228036
       7A     -1.398052     8A     -1.239312     9A     -1.012648
      10A     -0.967394    11A     -0.909860    12A     -0.736124
      13A     -0.681272    14A     -0.656300    15A     -0.648402
      16A     -0.600464    17A     -0.578962    18A     -0.568211
      19A     -0.558358    20A     -0.538791    21A     -0.524785
      22A     -0.497425    23A     -0.421042    24A     -0.377084

  @DF-RHF Final Energy:  -286.02241259164498

   => Energetics <=

    Nuclear Repulsion Energy =            252.5623553616358379
    One-Electron Energy =                -888.9576629070488707
    Two-Electron Energy =                 350.3728949537679682
    DFT Exchange-Correlation Energy =       0.0000000000000000
    Empirical Dispersion Energy =           0.0000000000000000
    PCM Polarization Energy =               0.0000000000000000
    EFP Energy =                            0.0000000000000000
    Total Energy =                       -286.0224125916450930
    Molecular point group: c1
  Basis Set: 6-31G*
  Basis Set:

  -Total Gradient:
     Atom            X                  Y                   Z
    ------   -----------------  -----------------  -----------------
       1       -0.000013910721     0.000288608617    -0.000856436862
       2        0.004151910784    -0.004314080118     0.010348621804
       3       -0.001993966492     0.000640482449    -0.006028089160
       4       -0.006721922339     0.007476528085    -0.004495587133
       5       -0.000098836794     0.000090613936    -0.000269987726
       6        0.000549990827     0.000288603956    -0.000034249762
       7        0.000264278081     0.000125823910     0.000139667439
       8        0.003489318839    -0.004866440081     0.001876182464
       9        0.000384019936     0.000358738117    -0.000096596108
      10        0.000050719279     0.000049633865    -0.000169949969
      11       -0.000016011984    -0.000094397551    -0.000139017424
      12        0.000120809534    -0.000035935535    -0.000390644996
      13       -0.000406602812    -0.000104729663    -0.000053543005
      14       -0.000153079187    -0.000366000440     0.000303224563
      15        0.000393283051     0.000462550459    -0.000133594126

    Molecular point group: c1

    Geometry (in Angstrom), charge = 0, multiplicity = 1:

    O           -0.742609771441    -1.425278729449    -0.400410880066
    C           -0.636106153168    -0.309844390636     0.018117373338
    C           -1.840555964933     0.424434524428     0.571459186306
    N            0.515583081376     0.441442945660    -0.178044005075
    H           -2.148826753211     1.161797088652    -0.162844305829
    H           -2.636980602518    -0.287580862975     0.722415550206
    H           -1.646758761256     0.945821001207     1.500652588082
    C            1.115737288284     1.100209390767     0.974170207743
    C            1.518910486827    -0.212486913657    -1.005970442331
    H            1.607458956089     0.390809391577     1.637436891494
    H            0.378427405675     1.651445045257     1.539440307684
    H            1.856819732973     1.807474664265     0.624077557049
    H            2.016617368712    -1.027814927489    -0.486114786266
    H            1.055530921538    -0.614743907358    -1.892506357938
    H            2.258667625826     0.525072786502    -1.295287583387

  Mulliken Charges: (a.u.)
   Center  Symbol    Alpha    Beta     Spin     Total
       1     O     4.28346  4.28346  0.00000 -0.56693
       2     C     2.64820  2.64820  0.00000  0.70361
       3     C     3.28270  3.28270  0.00000 -0.56540
       4     N     3.81056  3.81056  0.00000 -0.62112
       5     H     0.39955  0.39955  0.00000  0.20089
       6     H     0.39585  0.39585  0.00000  0.20830
       7     H     0.41204  0.41204  0.00000  0.17593
       8     C     3.15192  3.15192  0.00000 -0.30384
       9     C     3.14382  3.14382  0.00000 -0.28763
      10     H     0.41755  0.41755  0.00000  0.16490
      11     H     0.40999  0.40999  0.00000  0.18003
      12     H     0.40857  0.40857  0.00000  0.18285
      13     H     0.41866  0.41866  0.00000  0.16268
      14     H     0.39896  0.39896  0.00000  0.20208
      15     H     0.41817  0.41817  0.00000  0.16365

   Total alpha = 24.00000, Total beta = 24.00000, Total charge =  0.00000
