  ==> Input File <==

--------------------------------------------------------------------------
set {
	reference rhf
	basis cc-pvtz
}

set_num_threads( 4 )
memory 2 gb

molecule MOL {
0 1

H	 -2.362939	 -1.309000	 -0.383250
C	 -1.359344	 -1.272457	 0.020748
C	 -0.684082	 0.000127	 -0.464918
H	 -0.825835	 -2.151141	 -0.318537
H	 -1.416276	 -1.292399	 1.099455
C	 -1.359089	 1.272668	 0.021259
N	 0.742439	 -0.000109	 0.007333
H	 -0.596914	 0.000345	 -1.538146
H	 -2.362696	 1.309620	 -0.382686
H	 -0.825392	 2.151374	 -0.317674
H	 -1.415983	 1.292181	 1.099973
O	 0.948337	 -0.360280	 1.117075
O	 1.572269	 0.359736	 -0.759599

	symmetry c1
}
set optking {
	frozen_dihedral = ("
		12 7 3 8
	")
}

ee = optimize('scf')
oeprop('DIPOLE', 'QUADRUPOLE', 'MULLIKEN_CHARGES')
f=open( 'psi4out.xyz', 'w' )
f.write( "13  " )
f.write( str(ee) + "\n" )
f.write( MOL.save_string_xyz() )
f.close()
--------------------------------------------------------------------------

    Molecular point group: c1
  Charge       = 0
  Multiplicity = 1
  Basis Set: CC-PVTZ
  Basis Set:
  @DF-RHF Final Energy:  -321.86415510222031
    Total Energy =                       -321.8641551022202520
    Molecular point group: c1
  Basis Set: CC-PVTZ
  Basis Set:
  Basis Set: CC-PVTZ
  Basis Set:
  @DF-RHF Final Energy:  -321.86085020263124
    Total Energy =                       -321.8608502026313545
  Basis Set: CC-PVTZ
  Basis Set:
  Basis Set: CC-PVTZ
  Basis Set:
  @DF-RHF Final Energy:  -321.86407849731478
    Total Energy =                       -321.8640784973148357
  Basis Set: CC-PVTZ
  Basis Set:
  Basis Set: CC-PVTZ
  Basis Set:
  @DF-RHF Final Energy:  -321.86441594930034
    Total Energy =                       -321.8644159493004508
  Basis Set: CC-PVTZ
  Basis Set:
  Basis Set: CC-PVTZ
  Basis Set:
  @DF-RHF Final Energy:  -321.86441776916348
    Total Energy =                       -321.8644177691637083
  Basis Set: CC-PVTZ
  Basis Set:
  Charge       = 0
  Multiplicity = 1
  Basis Set: CC-PVTZ
  Basis Set:

    Orbital Energies (a.u.)
    -----------------------

    Doubly Occupied:

       1A    -20.589109     2A    -20.588734     3A    -15.832696
       4A    -11.304430     5A    -11.245312     6A    -11.240314
       7A     -1.633917     8A     -1.418187     9A     -1.142512
      10A     -0.973764    11A     -0.957265    12A     -0.816454
      13A     -0.753302    14A     -0.732357    15A     -0.726431
      16A     -0.649569    17A     -0.594867    18A     -0.588033
      19A     -0.571222    20A     -0.529969    21A     -0.522357
      22A     -0.485298    23A     -0.470116    24A     -0.452111

  @DF-RHF Final Energy:  -321.86441840588282

   => Energetics <=

    Nuclear Repulsion Energy =            257.3605862640461055
    One-Electron Energy =                -948.8133566285994220
    Two-Electron Energy =                 369.5883519586703301
    DFT Exchange-Correlation Energy =       0.0000000000000000
    Empirical Dispersion Energy =           0.0000000000000000
    PCM Polarization Energy =               0.0000000000000000
    EFP Energy =                            0.0000000000000000
    Total Energy =                       -321.8644184058829865
    Molecular point group: c1
  Basis Set: CC-PVTZ
  Basis Set:

  -Total Gradient:
     Atom            X                  Y                   Z
    ------   -----------------  -----------------  -----------------
       1       -0.000006319024    -0.000001341096    -0.000000873592
       2       -0.000004848260    -0.000027439019     0.000004292335
       3       -0.000007775918     0.000503037101    -0.000046980161
       4       -0.000004125674     0.000002122558     0.000004091254
       5        0.000006540115     0.000001589922    -0.000006081831
       6        0.000030980656    -0.000021867973    -0.000021131494
       7       -0.000074632761     0.000654125639     0.000278434391
       8        0.000020525592    -0.000576250687     0.000003723199
       9       -0.000001751662    -0.000000573432     0.000000670311
      10       -0.000001293577     0.000010732279     0.000002911910
      11        0.000001686825    -0.000005792763     0.000000162960
      12        0.000042687904    -0.000545624637    -0.000192855451
      13       -0.000001674211     0.000007282106    -0.000026363828

  **** Optimization is complete! (in 6 steps) ****
    Final optimized geometry and variables:
    Molecular point group: c1

    Geometry (in Angstrom), charge = 0, multiplicity = 1:

    H           -2.368723220609    -1.318719371932    -0.411213038002
    C           -1.374945602875    -1.288147444794     0.017942431765
    C           -0.683898033788    -0.025822903589    -0.462831285052
    H           -0.840793256142    -2.173526788019    -0.301145942283
    H           -1.458250870844    -1.304607864942     1.094208014213
    C           -1.346409289750     1.256942425188     0.021679928033
    N            0.743718856669     0.000434822007     0.007898640181
    H           -0.595920682824    -0.020304050079    -1.536451538014
    H           -2.357453087860     1.296348454583    -0.362084297217
    H           -0.812128065496     2.127797750221    -0.333617400036
    H           -1.386080468355     1.282832044263     1.102442436358
    O            0.969611816695    -0.357299908538     1.114927787116
    O            1.552744336241     0.406646106311    -0.757213113207

  Mulliken Charges: (a.u.)
   Center  Symbol    Alpha    Beta     Spin     Total
       1     H     0.44996  0.44996  0.00000  0.10008
       2     C     3.14451  3.14451  0.00000 -0.28901
       3     C     3.00771  3.00771  0.00000 -0.01543
       4     H     0.44118  0.44118  0.00000  0.11763
       5     H     0.43827  0.43827  0.00000  0.12345
       6     C     3.14301  3.14301  0.00000 -0.28602
       7     N     3.27453  3.27453  0.00000  0.45093
       8     H     0.42528  0.42528  0.00000  0.14945
       9     H     0.44845  0.44845  0.00000  0.10310
      10     H     0.43796  0.43796  0.00000  0.12408
      11     H     0.44150  0.44150  0.00000  0.11700
      12     O     4.17599  4.17599  0.00000 -0.35197
      13     O     4.17165  4.17165  0.00000 -0.34329

   Total alpha = 24.00000, Total beta = 24.00000, Total charge =  0.00000
