  ==> Input File <==

--------------------------------------------------------------------------
set {
	reference rhf
	basis 6-31G*
}

set_num_threads( 1 )
memory 2 gb

molecule MOL {
0 1

O	 0.749854	 1.307668	 -0.000040
C	 0.576249	 0.131685	 -0.000108
C	 -0.766779	 -0.556801	 -0.000461
O	 1.568443	 -0.749345	 -0.000005
C	 -1.945214	 0.412366	 0.000161
H	 -0.796911	 -1.211249	 -0.867467
H	 -0.796854	 -1.212390	 0.865687
C	 -3.287791	 -0.317055	 0.000105
H	 -1.876087	 1.060580	 -0.866812
H	 -1.875822	 1.059691	 0.867761
H	 -3.394745	 -0.949193	 -0.877058
H	 -4.111778	 0.388953	 0.000015
H	 -3.394954	 -0.949187	 0.877259
C	 1.407312	 -1.898818	 -0.811150
H	 0.541671	 -2.465458	 -0.499498
H	 2.304557	 -2.482627	 -0.677044
H	 1.294069	 -1.619006	 -1.848642

	symmetry c1
}
set optking {
	frozen_dihedral = ("
		1 2 3 6,
		9 5 3 6
	")
}

ee = energy('scf')
oeprop('DIPOLE', 'QUADRUPOLE', 'MULLIKEN_CHARGES')
f=open( 'psi4out.xyz', 'w' )
f.write( "17  " )
f.write( str(ee) + "\n" )
f.write( MOL.save_string_xyz() )
f.close()
--------------------------------------------------------------------------

    Molecular point group: c1

    Geometry (in Angstrom), charge = 0, multiplicity = 1:

       Center              X                  Y                   Z               Mass
    ------------   -----------------  -----------------  -----------------  -----------------
           O          0.978282947067     1.564933604240     0.125245317413    15.994914619560
           C          0.804677947067     0.388950604240     0.125177317413    12.000000000000
           C         -0.538350052933    -0.299535395760     0.124824317413    12.000000000000
           O          1.796871947067    -0.492079395760     0.125280317413    15.994914619560
           C         -1.716785052933     0.669631604240     0.125446317413    12.000000000000
           H         -0.568482052933    -0.953983395760    -0.742181682587     1.007825032070
           H         -0.568425052933    -0.955124395760     0.990972317413     1.007825032070
           C         -3.059362052933    -0.059789395760     0.125390317413    12.000000000000
           H         -1.647658052933     1.317845604240    -0.741526682587     1.007825032070
           H         -1.647393052933     1.316956604240     0.993046317413     1.007825032070
           H         -3.166316052933    -0.691927395760    -0.751772682587     1.007825032070
           H         -3.883349052933     0.646218604240     0.125300317413     1.007825032070
           H         -3.166525052933    -0.691921395760     1.002544317413     1.007825032070
           C          1.635740947067    -1.641552395760    -0.685864682587    12.000000000000
           H          0.770099947067    -2.208192395760    -0.374212682587     1.007825032070
           H          2.532985947067    -2.225361395760    -0.551758682587     1.007825032070
           H          1.522497947067    -1.361740395760    -1.723356682587     1.007825032070

  Charge       = 0
  Multiplicity = 1
  Basis Set: 6-31G*
  Basis Set:

    Orbital Energies (a.u.)
    -----------------------

    Doubly Occupied:

       1A    -20.599846     2A    -20.549723     3A    -11.374969
       4A    -11.297607     5A    -11.240972     6A    -11.225395
       7A    -11.218276     8A     -1.466780     9A     -1.370055
      10A     -1.082931    11A     -0.990330    12A     -0.972774
      13A     -0.841798    14A     -0.765902    15A     -0.703906
      16A     -0.687697    17A     -0.680128    18A     -0.641800
      19A     -0.611218    20A     -0.578828    21A     -0.569929
      22A     -0.554902    23A     -0.523042    24A     -0.496311
      25A     -0.490378    26A     -0.482479    27A     -0.455607
      28A     -0.432028

  @DF-RHF Final Energy:  -344.88087537494050

   => Energetics <=

    Nuclear Repulsion Energy =            316.4877679033422737
    One-Electron Energy =               -1096.9262266758839814
    Two-Electron Energy =                 435.5575833975999558
    DFT Exchange-Correlation Energy =       0.0000000000000000
    Empirical Dispersion Energy =           0.0000000000000000
    PCM Polarization Energy =               0.0000000000000000
    EFP Energy =                            0.0000000000000000
    Total Energy =                       -344.8808753749417519

  Mulliken Charges: (a.u.)
   Center  Symbol    Alpha    Beta     Spin     Total
       1     O     4.26587  4.26587  0.00000 -0.53175
       2     C     2.59780  2.59780  0.00000  0.80440
       3     C     3.23680  3.23680  0.00000 -0.47360
       4     O     4.30175  4.30175  0.00000 -0.60350
       5     C     3.14901  3.14901  0.00000 -0.29802
       6     H     0.40387  0.40387  0.00000  0.19226
       7     H     0.39909  0.39909  0.00000  0.20182
       8     C     3.24274  3.24274  0.00000 -0.48548
       9     H     0.41043  0.41043  0.00000  0.17913
      10     H     0.40871  0.40871  0.00000  0.18258
      11     H     0.42301  0.42301  0.00000  0.15399
      12     H     0.41404  0.41404  0.00000  0.17192
      13     H     0.42163  0.42163  0.00000  0.15675
      14     C     3.10360  3.10360  0.00000 -0.20720
      15     H     0.41269  0.41269  0.00000  0.17462
      16     H     0.39766  0.39766  0.00000  0.20469
      17     H     0.41129  0.41129  0.00000  0.17741

   Total alpha = 28.00000, Total beta = 28.00000, Total charge = -0.00000
