                              Psi4 1.0.54 Driver

  ==> Input File <==

--------------------------------------------------------------------------
set {
	reference rhf
	basis cc-pvtz
}

set_num_threads( 4 )
memory 2 gb

molecule MOL {
0 1

H	 -3.436473	 1.252944	 -1.023892
O	 -3.458596	 0.315260	 -0.960865
C	 -3.176635	 -0.080824	 0.355601
C	 -1.763371	 0.265266	 0.799691
H	 -3.321825	 -1.153438	 0.379502
H	 -3.895468	 0.357385	 1.043382
C	 -0.673390	 -0.426948	 -0.013392
H	 -1.631049	 1.344913	 0.747560
H	 -1.664587	 -0.001624	 1.849167
C	 0.737842	 -0.043159	 0.423759
H	 -0.806103	 -0.190518	 -1.063345
H	 -0.797221	 -1.503753	 0.074146
C	 1.824000	 -0.743224	 -0.390623
H	 0.850588	 1.033777	 0.343840
H	 0.868587	 -0.286314	 1.476203
C	 3.256207	 -0.447696	 0.058036
H	 1.715156	 -0.474574	 -1.438874
H	 1.661058	 -1.816098	 -0.335752
C	 3.703008	 0.998192	 -0.144252
H	 3.928922	 -1.098887	 -0.491674
H	 3.366007	 -0.715215	 1.105794
H	 3.598641	 1.295970	 -1.182767
H	 4.744620	 1.120606	 0.130158
H	 3.125403	 1.689529	 0.457437

	symmetry c1
}
set optking {
	frozen_dihedral = ("
		17 13 10 7
	")
}

ee,wfn = optimize('scf', return_wfn=True)
oeprop( wfn, 'DIPOLE', 'QUADRUPOLE', 'MULLIKEN_CHARGES')
f=open( 'psi4out.xyz', 'w' )
f.write( "24  " )
f.write( str(ee) + "\n" )
f.write( MOL.save_string_xyz() )
f.close()
--------------------------------------------------------------------------

    Molecular point group: c1
  Charge       = 0
  Multiplicity = 1
  Basis Set: CC-PVTZ
  Basis Set:
  @DF-RHF Final Energy:  -349.38043197155457
    Total Energy =                       -349.3804319715545716
    Molecular point group: c1
  Basis Set: CC-PVTZ
  Basis Set:
  Charge       = 0
  Multiplicity = 1
  Basis Set: CC-PVTZ
  Basis Set:

    Orbital Energies (a.u.)
    -----------------------

    Doubly Occupied:

       1A    -20.546271     2A    -11.265508     3A    -11.215174
       4A    -11.212103     5A    -11.210204     6A    -11.209426
       7A    -11.208959     8A    -11.205299     9A     -1.364144
      10A     -1.089833    11A     -1.049410    12A     -0.986756
      13A     -0.916024    14A     -0.851180    15A     -0.801473
      16A     -0.776681    17A     -0.681878    18A     -0.654668
      19A     -0.626326    20A     -0.621344    21A     -0.598069
      22A     -0.585738    23A     -0.558831    24A     -0.541684
      25A     -0.515967    26A     -0.509948    27A     -0.499800
      28A     -0.473221    29A     -0.468057    30A     -0.461129
      31A     -0.456336    32A     -0.451196    33A     -0.421295

  @DF-RHF Final Energy:  -349.38043188962502

   => Energetics <=

    Nuclear Repulsion Energy =            384.8638979213883431
    One-Electron Energy =               -1236.4207936762782083
    Two-Electron Energy =                 502.1764638652645658
    DFT Exchange-Correlation Energy =       0.0000000000000000
    Empirical Dispersion Energy =           0.0000000000000000
    PCM Polarization Energy =               0.0000000000000000
    EFP Energy =                            0.0000000000000000
    Total Energy =                       -349.3804318896252994
    Molecular point group: c1
  Basis Set: CC-PVTZ
  Basis Set:

  -Total Gradient:
     Atom            X                  Y                   Z
    ------   -----------------  -----------------  -----------------
       1        0.000005204132    -0.000012516544     0.000023382706
       2        0.000018338032    -0.000048056905    -0.000004258570
       3       -0.000023301240     0.000060886911     0.000034114326
       4        0.000005535241    -0.000028973158     0.000005136496
       5       -0.000008607730     0.000009167505    -0.000033479228
       6       -0.000010793694    -0.000007281984    -0.000001001082
       7        0.000002829954     0.000061816381    -0.000039107518
       8       -0.000005458255    -0.000012872405    -0.000009782256
       9        0.000002981817     0.000004269190     0.000004408591
      10       -0.000008485750    -0.000067149728     0.000032906854
      11       -0.000010783288     0.000017426006    -0.000011186883
      12        0.000003911084     0.000007371880     0.000005364992
      13        0.000034142477     0.000068941027    -0.000024686310
      14       -0.000020760235    -0.000037616371    -0.000015998493
      15        0.000001635071     0.000012101509     0.000015001474
      16        0.000002404471     0.000000405075     0.000039528172
      17       -0.000037936223    -0.000032006787    -0.000007043447
      18        0.000001467511     0.000007205134    -0.000006967883
      19        0.000015464120    -0.000000551329    -0.000008307387
      20        0.000005797933     0.000001114334     0.000008550283
      21        0.000003538643     0.000004238730     0.000006436031
      22       -0.000005891803     0.000005256485    -0.000001331250
      23        0.000002078928    -0.000001009821    -0.000009770997
      24        0.000026688802    -0.000012165134    -0.000001908627

  **** Optimization is complete! (in 2 steps) ****
    Final optimized geometry and variables:
    Molecular point group: c1

    Geometry (in Angstrom), charge = 0, multiplicity = 1:

    H           -3.440149854456     1.245442263594    -1.023090131112
    O           -3.460351521490     0.307853870718    -0.958377545799
    C           -3.176730261977    -0.084905643116     0.358612737448
    C           -1.763671679719     0.264694318638     0.800733370054
    H           -3.319875994155    -1.157752101766     0.384181429298
    H           -3.896020274448     0.352995458148     1.046125107306
    C           -0.673062790275    -0.423908486755    -0.014580024172
    H           -1.634338002632     1.344721041612     0.749091946018
    H           -1.662531764846    -0.002592911186     1.849882503072
    C            0.737977946212    -0.041436975431     0.424497703743
    H           -0.805592065028    -0.183635837431    -1.063709672270
    H           -0.796571973045    -1.501066912618     0.069002419901
    C            1.824735716954    -0.742084703117    -0.388657172973
    H            0.851448274552     1.035408738023     0.344830324765
    H            0.867325291225    -0.284722183973     1.477095920783
    C            3.256770556164    -0.448866549271     0.062362892934
    H            1.717600104893    -0.473068275961    -1.436996613686
    H            1.660282919897    -1.814768104375    -0.334602570261
    C            3.707546013015     0.995562562143    -0.141778946143
    H            3.929076647289    -1.102536083116    -0.484895386786
    H            3.364062042415    -0.714865675654     1.110779101076
    H            3.602849076975     1.292696483142    -1.180442088966
    H            4.749831199360     1.115227112566     0.131282278301
    H            3.132740177913     1.689188056414     0.459925205204

  Mulliken Charges: (a.u.)
   Center  Symbol    Alpha    Beta     Spin     Total
       1     H     0.39530  0.39530  0.00000  0.20939
       2     O     4.20370  4.20370  0.00000 -0.40739
       3     C     2.97774  2.97774  0.00000  0.04452
       4     C     3.10184  3.10184  0.00000 -0.20368
       5     H     0.45890  0.45890  0.00000  0.08219
       6     H     0.46031  0.46031  0.00000  0.07938
       7     C     3.08669  3.08669  0.00000 -0.17339
       8     H     0.45928  0.45928  0.00000  0.08144
       9     H     0.45340  0.45340  0.00000  0.09321
      10     C     3.09161  3.09161  0.00000 -0.18323
      11     H     0.44645  0.44645  0.00000  0.10711
      12     H     0.45509  0.45509  0.00000  0.08982
      13     C     3.09459  3.09459  0.00000 -0.18918
      14     H     0.45341  0.45341  0.00000  0.09317
      15     H     0.45621  0.45621  0.00000  0.08759
      16     C     3.09016  3.09016  0.00000 -0.18032
      17     H     0.45358  0.45358  0.00000  0.09283
      18     H     0.44970  0.44970  0.00000  0.10061
      19     C     3.15249  3.15249  0.00000 -0.30499
      20     H     0.44859  0.44859  0.00000  0.10282
      21     H     0.45522  0.45522  0.00000  0.08956
      22     H     0.45486  0.45486  0.00000  0.09028
      23     H     0.44662  0.44662  0.00000  0.10676
      24     H     0.45426  0.45426  0.00000  0.09149

   Total alpha = 33.00000, Total beta = 33.00000, Total charge = -0.00000

*** Psi4 exiting successfully. Buy a developer a beer!
