                              Psi4 1.0.54 Driver

  ==> Input File <==

--------------------------------------------------------------------------
set {
	reference rhf
	basis cc-pvtz
}

set_num_threads( 4 )
memory 2 gb

molecule MOL {
0 1

H	 -2.498963	 -0.741158	 -0.729149
O	 -2.346257	 -0.289210	 0.080372
C	 -1.183935	 0.486039	 -0.009831
C	 0.062853	 -0.375310	 0.027457
H	 -1.178881	 1.094526	 -0.908634
H	 -1.184406	 1.155156	 0.838676
O	 1.172093	 0.457955	 -0.054438
H	 0.052476	 -1.081302	 -0.804627
H	 0.076323	 -0.955658	 0.947560
C	 2.386905	 -0.168183	 0.197364
H	 2.577674	 -0.966981	 -0.515940
H	 3.166841	 0.573458	 0.105957
H	 2.417278	 -0.587708	 1.200158

	symmetry c1
}
set optking {
	frozen_dihedral = ("
		10 7 4 8
	")
}

ee,wfn = optimize('scf', return_wfn=True)
oeprop( wfn, 'DIPOLE', 'QUADRUPOLE', 'MULLIKEN_CHARGES')
f=open( 'psi4out.xyz', 'w' )
f.write( "13  " )
f.write( str(ee) + "\n" )
f.write( MOL.save_string_xyz() )
f.close()
--------------------------------------------------------------------------

    Molecular point group: c1
  Charge       = 0
  Multiplicity = 1
  Basis Set: CC-PVTZ
  Basis Set:
  @DF-RHF Final Energy:  -268.06212067750545
    Total Energy =                       -268.0621206775055043
    Molecular point group: c1
  Basis Set: CC-PVTZ
  Basis Set:
  Basis Set: CC-PVTZ
  Basis Set:
  @DF-RHF Final Energy:  -268.06213128550047
    Total Energy =                       -268.0621312855006408
  Basis Set: CC-PVTZ
  Basis Set:
  Charge       = 0
  Multiplicity = 1
  Basis Set: CC-PVTZ
  Basis Set:

    Orbital Energies (a.u.)
    -----------------------

    Doubly Occupied:

       1A    -20.555919     2A    -20.552810     3A    -11.269300
       4A    -11.267779     5A    -11.267361     6A     -1.391775
       7A     -1.369167     8A     -1.019709     9A     -0.914102
      10A     -0.842553    11A     -0.711800    12A     -0.677265
      13A     -0.662620    14A     -0.638089    15A     -0.599389
      16A     -0.572160    17A     -0.544443    18A     -0.491042
      19A     -0.484910    20A     -0.442048    21A     -0.423868

  @DF-RHF Final Energy:  -268.06213350608448

   => Energetics <=

    Nuclear Repulsion Energy =            190.4971445179104421
    One-Electron Energy =                -743.7223387184865260
    Two-Electron Energy =                 285.1630606944915485
    DFT Exchange-Correlation Energy =       0.0000000000000000
    Empirical Dispersion Energy =           0.0000000000000000
    PCM Polarization Energy =               0.0000000000000000
    EFP Energy =                            0.0000000000000000
    Total Energy =                       -268.0621335060845354
    Molecular point group: c1
  Basis Set: CC-PVTZ
  Basis Set:

  -Total Gradient:
     Atom            X                  Y                   Z
    ------   -----------------  -----------------  -----------------
       1        0.000027732606     0.000020754126    -0.000007940110
       2        0.000000396714     0.000007023778     0.000044035724
       3        0.000047466084    -0.000020079311    -0.000049575723
       4        0.000742221742    -0.000891045581     0.001127454877
       5       -0.000017711731     0.000006849126     0.000010257955
       6       -0.000023765736     0.000000505215     0.000011085285
       7       -0.000088396737    -0.000077094900    -0.001413167149
       8       -0.000618617537     0.000721998819    -0.000644991399
       9       -0.000007278018     0.000034514888     0.000022136629
      10       -0.000073645353     0.000188899669     0.000909587582
      11        0.000007204909     0.000001199263    -0.000001894994
      12       -0.000004406332     0.000003805326    -0.000005000421
      13        0.000008799390     0.000002669582    -0.000001988256

  **** Optimization is complete! (in 3 steps) ****
    Final optimized geometry and variables:
    Molecular point group: c1

    Geometry (in Angstrom), charge = 0, multiplicity = 1:

    H           -2.489912695263    -0.741155354858    -0.788571337031
    O           -2.345773714661    -0.295597178875     0.026067850917
    C           -1.182202727405     0.479691723970    -0.046173611239
    C            0.064043445596    -0.382848928156    -0.002730215548
    H           -1.167207955138     1.094573774886    -0.940509152818
    H           -1.191695434587     1.142824895023     0.807004769853
    O            1.173244933134     0.450188870238    -0.092534760261
    H            0.049224237969    -1.090015901473    -0.833676041727
    H            0.076494033284    -0.956641083709     0.920906518107
    C            2.390987016065    -0.173242927710     0.152907764643
    H            2.577817823606    -0.976855412538    -0.556195256079
    H            3.169065750793     0.568772395033     0.049313467529
    H            2.429755109694    -0.585302356820     1.158248046830

  Mulliken Charges: (a.u.)
   Center  Symbol    Alpha    Beta     Spin     Total
       1     H     0.39377  0.39377  0.00000  0.21246
       2     O     4.20241  4.20241  0.00000 -0.40481
       3     C     2.97350  2.97350  0.00000  0.05300
       4     C     2.96533  2.96533  0.00000  0.06933
       5     H     0.46672  0.46672  0.00000  0.06656
       6     H     0.45316  0.45316  0.00000  0.09368
       7     O     4.17592  4.17592  0.00000 -0.35183
       8     H     0.48008  0.48008  0.00000  0.03984
       9     H     0.47057  0.47057  0.00000  0.05886
      10     C     3.03146  3.03146  0.00000 -0.06292
      11     H     0.47142  0.47142  0.00000  0.05716
      12     H     0.44629  0.44629  0.00000  0.10742
      13     H     0.46937  0.46937  0.00000  0.06126

   Total alpha = 21.00000, Total beta = 21.00000, Total charge = -0.00000

*** Psi4 exiting successfully. Buy a developer a beer!
