  ==> Input File <==

--------------------------------------------------------------------------
set {
	reference rhf
	basis cc-pvtz
}

set_num_threads( 4 )
memory 2 gb

molecule MOL {
0 1

O	 0.395927	 1.296676	 -0.000076
C	 0.503051	 0.114301	 -0.000074
C	 -0.701422	 -0.805636	 -0.000109
C	 1.858118	 -0.556123	 0.000212
C	 -0.953753	 -1.496563	 -1.330910
H	 -0.557510	 -1.533946	 0.793799
H	 -1.563858	 -0.216367	 0.300567
H	 -0.105707	 -2.102640	 -1.620246
H	 -1.825190	 -2.136755	 -1.263036
H	 -1.120982	 -0.773394	 -2.117861
H	 1.961106	 -1.191101	 -0.872843
H	 2.636688	 0.191085	 -0.000109
H	 1.961070	 -1.190284	 0.873873

	symmetry c1
}
set optking {
	frozen_dihedral = ("
		6 3 2 1
	")
}

ee = optimize('scf')
oeprop('DIPOLE', 'QUADRUPOLE', 'MULLIKEN_CHARGES')
f=open( 'psi4out.xyz', 'w' )
f.write( "13  " )
f.write( str(ee) + "\n" )
f.write( MOL.save_string_xyz() )
f.close()
--------------------------------------------------------------------------

    Molecular point group: c1
  Charge       = 0
  Multiplicity = 1
  Basis Set: CC-PVTZ
  Basis Set:
  @DF-RHF Final Energy:  -231.08051011836412
    Total Energy =                       -231.0805101183643160
    Molecular point group: c1
  Basis Set: CC-PVTZ
  Basis Set:
  Basis Set: CC-PVTZ
  Basis Set:
  @DF-RHF Final Energy:  -231.08084685558106
    Total Energy =                       -231.0808468555811714
  Basis Set: CC-PVTZ
  Basis Set:
  Basis Set: CC-PVTZ
  Basis Set:
  @DF-RHF Final Energy:  -231.08103657072007
    Total Energy =                       -231.0810365707202152
  Basis Set: CC-PVTZ
  Basis Set:
  Basis Set: CC-PVTZ
  Basis Set:
  @DF-RHF Final Energy:  -231.08106480507908
    Total Energy =                       -231.0810648050791372
  Basis Set: CC-PVTZ
  Basis Set:
  Basis Set: CC-PVTZ
  Basis Set:
  @DF-RHF Final Energy:  -231.08106593817706
    Total Energy =                       -231.0810659381771472
  Basis Set: CC-PVTZ
  Basis Set:
  Charge       = 0
  Multiplicity = 1
  Basis Set: CC-PVTZ
  Basis Set:

    Orbital Energies (a.u.)
    -----------------------

    Doubly Occupied:

       1A    -20.538888     2A    -11.320381     3A    -11.232022
       4A    -11.228367     5A    -11.227229     6A     -1.398438
       7A     -1.067973     8A     -0.996621     9A     -0.887537
      10A     -0.734987    11A     -0.656303    12A     -0.649550
      13A     -0.612884    14A     -0.595923    15A     -0.562799
      16A     -0.542364    17A     -0.530225    18A     -0.503210
      19A     -0.487643    20A     -0.402512

  @DF-RHF Final Energy:  -231.08106626066885

   => Energetics <=

    Nuclear Repulsion Energy =            177.1744202433817748
    One-Electron Energy =                -664.1592609099449191
    Two-Electron Energy =                 255.9037744058941257
    DFT Exchange-Correlation Energy =       0.0000000000000000
    Empirical Dispersion Energy =           0.0000000000000000
    PCM Polarization Energy =               0.0000000000000000
    EFP Energy =                            0.0000000000000000
    Total Energy =                       -231.0810662606690471
    Molecular point group: c1
  Basis Set: CC-PVTZ
  Basis Set:

  -Total Gradient:
     Atom            X                  Y                   Z
    ------   -----------------  -----------------  -----------------
       1        0.000009531780     0.000020323529     0.000534642995
       2       -0.000065508656     0.000052310767    -0.000696095985
       3        0.000317782976    -0.000414190092    -0.000184670601
       4       -0.000006801149    -0.000001280513     0.000066225428
       5        0.000002082214    -0.000004434971    -0.000041822371
       6       -0.000252563682     0.000358260048     0.000353915296
       7        0.000006409296    -0.000009677028     0.000017352870
       8        0.000001272832     0.000009872125     0.000009646011
       9       -0.000011165498    -0.000002044159    -0.000003307910
      10        0.000000228266    -0.000012875937    -0.000005708285
      11       -0.000005657313     0.000007112506    -0.000023130524
      12       -0.000001203515     0.000002725589    -0.000001264151
      13        0.000005592449    -0.000006101861    -0.000025782773

  **** Optimization is complete! (in 6 steps) ****
    Final optimized geometry and variables:
    Molecular point group: c1

    Geometry (in Angstrom), charge = 0, multiplicity = 1:

    O            0.156885153696     1.581354164649     0.295934175998
    C            0.278835916920     0.399839200019     0.278106291402
    C           -0.931663076749    -0.513573507374     0.287222370139
    C            1.645100175461    -0.247355689433     0.255674006590
    C           -1.170024198172    -1.198417400478    -1.061677255834
    H           -0.803131021343    -1.263714323749     1.061422519436
    H           -1.785807396556     0.094904771726     0.549163912197
    H           -0.356778465309    -1.861282909961    -1.330236419693
    H           -2.075823460129    -1.789949683063    -1.023080365016
    H           -1.284161980589    -0.465423329166    -1.851306041017
    H            1.750814463062    -0.893350187035    -0.607659269212
    H            2.408011291965     0.515323180853     0.232504111237
    H            1.773448209826    -0.864958262846     1.138172509144

  Mulliken Charges: (a.u.)
   Center  Symbol    Alpha    Beta     Spin     Total
       1     O     4.17209  4.17209  0.00000 -0.34418
       2     C     2.85432  2.85432  0.00000  0.29136
       3     C     3.09578  3.09578  0.00000 -0.19156
       4     C     3.15610  3.15610  0.00000 -0.31221
       5     C     3.15439  3.15439  0.00000 -0.30879
       6     H     0.45146  0.45146  0.00000  0.09709
       7     H     0.43787  0.43787  0.00000  0.12425
       8     H     0.45353  0.45353  0.00000  0.09295
       9     H     0.44351  0.44351  0.00000  0.11299
      10     H     0.44562  0.44562  0.00000  0.10876
      11     H     0.45035  0.45035  0.00000  0.09930
      12     H     0.43468  0.43468  0.00000  0.13065
      13     H     0.45031  0.45031  0.00000  0.09939

   Total alpha = 20.00000, Total beta = 20.00000, Total charge = -0.00000
