  ==> Input File <==

--------------------------------------------------------------------------
set {
	reference rhf
	basis 6-31G*
}

set_num_threads( 4 )
memory 2 gb

molecule MOL {
0 1

O	 0.625848	 1.349995	 -0.000749
C	 0.486307	 0.169203	 0.000779
C	 1.608116	 -0.841643	 0.000302
O	 -0.698257	 -0.426125	 0.001050
C	 2.990107	 -0.200498	 -0.000684
H	 1.468623	 -1.481519	 -0.865924
H	 1.469683	 -1.481289	 0.866878
H	 3.129736	 0.423364	 -0.875135
H	 3.757882	 -0.966877	 -0.001197
H	 3.130964	 0.423383	 0.873533
C	 -1.650833	 0.003868	 -0.965958
C	 -2.905601	 -0.818989	 -0.764030
H	 -1.236421	 -0.135337	 -1.955134
H	 -1.839154	 1.060106	 -0.829987
H	 -2.699123	 -1.874693	 -0.898244
H	 -3.661573	 -0.522615	 -1.483973
H	 -3.305278	 -0.672732	 0.233027

	symmetry c1
}
set optking {
	frozen_dihedral = ("
		11 4 2 3
	")
}

ee = optimize('scf')
oeprop('DIPOLE', 'QUADRUPOLE', 'MULLIKEN_CHARGES')
f=open( 'psi4out.xyz', 'w' )
f.write( "17  " )
f.write( str(ee) + "\n" )
f.write( MOL.save_string_xyz() )
f.close()
--------------------------------------------------------------------------

    Molecular point group: c1
  Charge       = 0
  Multiplicity = 1
  Basis Set: 6-31G*
  Basis Set:
  @DF-RHF Final Energy:  -344.90051980110377
    Total Energy =                       -344.9005198011036555
    Molecular point group: c1
  Basis Set: 6-31G*
  Basis Set:
  Basis Set: 6-31G*
  Basis Set:
  @DF-RHF Final Energy:  -344.89871541311192
    Total Energy =                       -344.8987154131120860
  Basis Set: 6-31G*
  Basis Set:
  Basis Set: 6-31G*
  Basis Set:
  @DF-RHF Final Energy:  -344.90114554774658
    Total Energy =                       -344.9011455477467507
  Basis Set: 6-31G*
  Basis Set:
  Basis Set: 6-31G*
  Basis Set:
  @DF-RHF Final Energy:  -344.90128531019928
    Total Energy =                       -344.9012853101991141
  Basis Set: 6-31G*
  Basis Set:
  Basis Set: 6-31G*
  Basis Set:
  @DF-RHF Final Energy:  -344.90130468417925
    Total Energy =                       -344.9013046841793084
  Basis Set: 6-31G*
  Basis Set:
  Basis Set: 6-31G*
  Basis Set:
  @DF-RHF Final Energy:  -344.90130622795465
    Total Energy =                       -344.9013062279549331
  Basis Set: 6-31G*
  Basis Set:
  Charge       = 0
  Multiplicity = 1
  Basis Set: 6-31G*
  Basis Set:

    Orbital Energies (a.u.)
    -----------------------

    Doubly Occupied:

       1A    -20.589825     2A    -20.550231     3A    -11.373078
       4A    -11.289313     5A    -11.239445     6A    -11.223202
       7A    -11.216898     8A     -1.461204     9A     -1.363418
      10A     -1.067943    11A     -1.033465    12A     -0.908219
      13A     -0.853963    14A     -0.770327    15A     -0.699188
      16A     -0.682171    17A     -0.662215    18A     -0.631186
      19A     -0.594420    20A     -0.566348    21A     -0.557596
      22A     -0.526593    23A     -0.522238    24A     -0.517011
      25A     -0.503253    26A     -0.493167    27A     -0.450701
      28A     -0.433610

  @DF-RHF Final Energy:  -344.90130644471276

   => Energetics <=

    Nuclear Repulsion Energy =            314.3149615493815645
    One-Electron Energy =               -1092.8720811735670395
    Two-Electron Energy =                 433.6558131794728297
    DFT Exchange-Correlation Energy =       0.0000000000000000
    Empirical Dispersion Energy =           0.0000000000000000
    PCM Polarization Energy =               0.0000000000000000
    EFP Energy =                            0.0000000000000000
    Total Energy =                       -344.9013064447126453
    Molecular point group: c1
  Basis Set: 6-31G*
  Basis Set:

  -Total Gradient:
     Atom            X                  Y                   Z
    ------   -----------------  -----------------  -----------------
       1        0.000056081911    -0.000008808339     0.000157974604
       2        0.001494065604    -0.002157892931     0.007113738207
       3       -0.000178105395    -0.000328721382    -0.006802435770
       4       -0.003781877217     0.007980101384     0.004238996386
       5       -0.000010548213    -0.000010946964     0.000008751408
       6       -0.000006473740     0.000008337352    -0.000004749324
       7       -0.000000316925     0.000015552057     0.000001505197
       8       -0.000006860052     0.000003202572    -0.000011907904
       9       -0.000011687998     0.000002960724     0.000000339410
      10        0.000009377678     0.000004664524     0.000011424013
      11        0.002414573388    -0.005507240353    -0.004715236689
      12        0.000006434346    -0.000001141892     0.000004059816
      13        0.000009446655    -0.000004204621    -0.000002517888
      14        0.000002304111     0.000006227680     0.000002239479
      15       -0.000000834783    -0.000004695785     0.000000469065
      16        0.000002626166     0.000002634996    -0.000000530696
      17        0.000001794462    -0.000000029024    -0.000002119313

  **** Optimization is complete! (in 7 steps) ****
    Final optimized geometry and variables:
    Molecular point group: c1

    Geometry (in Angstrom), charge = 0, multiplicity = 1:

    O            0.590447262831     1.451255684262     0.078782191452
    C            0.446476397071     0.282470458757     0.216572831217
    C            1.565705849348    -0.729151553618     0.230935582108
    O           -0.757369918077    -0.301992800945     0.280488836869
    C            2.949899524198    -0.104976372702     0.351430279063
    H            1.466648460783    -1.290389905355    -0.695493028658
    H            1.375647944647    -1.441066498636     1.027785668388
    H            3.136046494180     0.587783982724    -0.459612093761
    H            3.712887428997    -0.875686973510     0.327425981459
    H            3.050154188257     0.442451394076     1.281547416192
    C           -1.728676529600     0.098428063357    -0.680205363936
    C           -2.978437251403    -0.720066440557    -0.437595260242
    H           -1.329570913789    -0.082074666389    -1.672652929864
    H           -1.921457789409     1.157042508628    -0.579269779858
    H           -2.769183876624    -1.779092503759    -0.535268363091
    H           -3.743849821255    -0.451057436697    -1.158404725141
    H           -3.363998616399    -0.537313239963     0.558684313894

  Mulliken Charges: (a.u.)
   Center  Symbol    Alpha    Beta     Spin     Total
       1     O     4.27175  4.27175  0.00000 -0.54351
       2     C     2.60550  2.60550  0.00000  0.78900
       3     C     3.20653  3.20653  0.00000 -0.41305
       4     O     4.32058  4.32058  0.00000 -0.64116
       5     C     3.24041  3.24041  0.00000 -0.48083
       6     H     0.40362  0.40362  0.00000  0.19277
       7     H     0.40022  0.40022  0.00000  0.19956
       8     H     0.40776  0.40776  0.00000  0.18448
       9     H     0.41783  0.41783  0.00000  0.16434
      10     H     0.41148  0.41148  0.00000  0.17704
      11     C     3.00285  3.00285  0.00000 -0.00570
      12     C     3.24796  3.24796  0.00000 -0.49592
      13     H     0.42086  0.42086  0.00000  0.15828
      14     H     0.40453  0.40453  0.00000  0.19095
      15     H     0.41232  0.41232  0.00000  0.17535
      16     H     0.41681  0.41681  0.00000  0.16637
      17     H     0.40898  0.40898  0.00000  0.18205

   Total alpha = 28.00000, Total beta = 28.00000, Total charge =  0.00000
