  ==> Input File <==

--------------------------------------------------------------------------
set {
	reference rhf
	basis cc-pvtz
}

set_num_threads( 4 )
memory 2 gb

molecule MOL {
0 1

H	 1.992696	 1.485045	 -2.403776
O	 1.185656	 1.524429	 -1.925039
C	 1.347408	 0.944224	 -0.656491
C	 0.027642	 1.012027	 0.090274
H	 2.103945	 1.480373	 -0.089073
H	 1.681388	 -0.085400	 -0.750261
C	 -1.138737	 0.285728	 -0.581921
H	 -0.233258	 2.057944	 0.214757
H	 0.186557	 0.606876	 1.086674
C	 -1.933983	 -0.631436	 0.343653
H	 -0.763151	 -0.285569	 -1.422081
H	 -1.808359	 1.035291	 -0.992333
H	 -2.789188	 -1.049673	 -0.174718
H	 -1.335629	 -1.461368	 0.700418
H	 -2.305435	 -0.092167	 1.209725

	symmetry c1
}
set optking {
	frozen_dihedral = ("
		8 4 7 11
	")
}

ee = optimize('scf')
oeprop('DIPOLE', 'QUADRUPOLE', 'MULLIKEN_CHARGES')
f=open( 'psi4out.xyz', 'w' )
f.write( "15  " )
f.write( str(ee) + "\n" )
f.write( MOL.save_string_xyz() )
f.close()
--------------------------------------------------------------------------

    Molecular point group: c1
  Charge       = 0
  Multiplicity = 1
  Basis Set: CC-PVTZ
  Basis Set:
  @DF-RHF Final Energy:  -232.23370748689803
    Total Energy =                       -232.2337074868981404
    Molecular point group: c1
  Basis Set: CC-PVTZ
  Basis Set:
  Basis Set: CC-PVTZ
  Basis Set:
  @DF-RHF Final Energy:  -232.23424891756696
    Total Energy =                       -232.2342489175669016
  Basis Set: CC-PVTZ
  Basis Set:
  Basis Set: CC-PVTZ
  Basis Set:
  @DF-RHF Final Energy:  -232.23428903416473
    Total Energy =                       -232.2342890341647603
  Basis Set: CC-PVTZ
  Basis Set:
  Basis Set: CC-PVTZ
  Basis Set:
  @DF-RHF Final Energy:  -232.23429044450086
    Total Energy =                       -232.2342904445011413
  Basis Set: CC-PVTZ
  Basis Set:
  Charge       = 0
  Multiplicity = 1
  Basis Set: CC-PVTZ
  Basis Set:

    Orbital Energies (a.u.)
    -----------------------

    Doubly Occupied:

       1A    -20.546275     2A    -11.265986     3A    -11.210379
       4A    -11.207867     5A    -11.204408     6A     -1.364319
       7A     -1.064080     8A     -0.975362     9A     -0.858322
      10A     -0.787229    11A     -0.706203    12A     -0.648641
      13A     -0.602818    14A     -0.587938    15A     -0.554805
      16A     -0.538404    17A     -0.504370    18A     -0.476764
      19A     -0.470534    20A     -0.452974    21A     -0.432786

  @DF-RHF Final Energy:  -232.23429093216799

   => Energetics <=

    Nuclear Repulsion Energy =            188.8963979527225661
    One-Electron Energy =                -689.3404500213671326
    Two-Electron Energy =                 268.2097611364765726
    DFT Exchange-Correlation Energy =       0.0000000000000000
    Empirical Dispersion Energy =           0.0000000000000000
    PCM Polarization Energy =               0.0000000000000000
    EFP Energy =                            0.0000000000000000
    Total Energy =                       -232.2342909321679940
    Molecular point group: c1
  Basis Set: CC-PVTZ
  Basis Set:

  -Total Gradient:
     Atom            X                  Y                   Z
    ------   -----------------  -----------------  -----------------
       1        0.000000828196     0.000002255839     0.000012479814
       2       -0.000019785275     0.000025772432     0.000006224581
       3        0.000045277800    -0.000027808539    -0.000028159214
       4       -0.001284176094    -0.000140393459     0.002277908884
       5        0.000000931378    -0.000003583165    -0.000011419027
       6        0.000004553688    -0.000009274637     0.000027819915
       7        0.000643675643    -0.002197789393     0.001270758421
       8        0.000949738743     0.000483079638    -0.002106317143
       9       -0.000002496224     0.000003095448    -0.000023060579
      10       -0.000026014250    -0.000017867754    -0.000021552606
      11       -0.000319827745     0.001853826045    -0.001412962693
      12       -0.000001900790     0.000014286627     0.000009355820
      13        0.000005253239    -0.000004873069     0.000013472139
      14        0.000002397098     0.000006781409    -0.000008812863
      15        0.000001544592     0.000012492581    -0.000005735447

  **** Optimization is complete! (in 5 steps) ****
    Final optimized geometry and variables:
    Molecular point group: c1

    Geometry (in Angstrom), charge = 0, multiplicity = 1:

    H            2.029999415073     0.856488118404    -1.826536779187
    O            1.243134698847     0.929024786216    -1.319054690686
    C            1.403408795157     0.286149629301    -0.081384841053
    C            0.094005491711     0.360400831589     0.679634885052
    H            2.190731699397     0.765889936204     0.494940987519
    H            1.688051508351    -0.754242961844    -0.227485990401
    C           -1.068609934552    -0.370975028379    -0.017719654656
    H           -0.146676252002     1.409813762500     0.808154991212
    H            0.261544035037    -0.054120107450     1.668929958870
    C           -1.866415318793    -1.272360261910     0.918528740561
    H           -0.687085401039    -0.947733229160    -0.852887971381
    H           -1.735868900417     0.358456907368    -0.461787331446
    H           -2.687639249111    -1.751722600881     0.397805430029
    H           -1.240507815699    -2.052664919468     1.339743430013
    H           -2.284611339283    -0.705916241438     1.744438183872

  Mulliken Charges: (a.u.)
   Center  Symbol    Alpha    Beta     Spin     Total
       1     H     0.39570  0.39570  0.00000  0.20860
       2     O     4.19976  4.19976  0.00000 -0.39952
       3     C     2.97284  2.97284  0.00000  0.05432
       4     C     3.09165  3.09165  0.00000 -0.18331
       5     H     0.46563  0.46563  0.00000  0.06874
       6     H     0.47412  0.47412  0.00000  0.05177
       7     C     3.08335  3.08335  0.00000 -0.16669
       8     H     0.45005  0.45005  0.00000  0.09990
       9     H     0.45490  0.45490  0.00000  0.09019
      10     C     3.14853  3.14853  0.00000 -0.29705
      11     H     0.45161  0.45161  0.00000  0.09677
      12     H     0.44932  0.44932  0.00000  0.10136
      13     H     0.44962  0.44962  0.00000  0.10076
      14     H     0.45778  0.45778  0.00000  0.08443
      15     H     0.45513  0.45513  0.00000  0.08973

   Total alpha = 21.00000, Total beta = 21.00000, Total charge =  0.00000
