  ==> Input File <==

--------------------------------------------------------------------------
set {
	reference rhf
	basis cc-pvtz
}

set_num_threads( 4 )
memory 2 gb

molecule MOL {
0 1

H	 -1.696000	 0.219000	 0.875000
C	 -1.163000	 -0.143000	 -0.000000
C	 0.241000	 0.396000	 -0.000000
H	 -1.697000	 0.220000	 -0.874000
H	 -1.149000	 -1.224000	 -0.000000
O	 1.219000	 -0.278000	 0.000000
H	 0.324000	 1.488000	 0.000000

	symmetry c1
}
ee = optimize('scf')
oeprop('DIPOLE', 'QUADRUPOLE', 'MULLIKEN_CHARGES')
f=open( 'psi4out.xyz', 'w' )
f.write( "7  " )
f.write( str(ee) + "\n" )
f.write( MOL.save_string_xyz() )
f.close()
--------------------------------------------------------------------------

    Molecular point group: c1
  Charge       = 0
  Multiplicity = 1
  Basis Set: CC-PVTZ
  Basis Set:
  @DF-RHF Final Energy:  -152.97584482603975
    Total Energy =                       -152.9758448260397472
    Molecular point group: c1
  Basis Set: CC-PVTZ
  Basis Set:
  Basis Set: CC-PVTZ
  Basis Set:
  @DF-RHF Final Energy:  -152.97593263960800
    Total Energy =                       -152.9759326396079473
  Basis Set: CC-PVTZ
  Basis Set:
  Basis Set: CC-PVTZ
  Basis Set:
  @DF-RHF Final Energy:  -152.97592109878781
    Total Energy =                       -152.9759210987878078
  Basis Set: CC-PVTZ
  Basis Set:
  Basis Set: CC-PVTZ
  Basis Set:
  @DF-RHF Final Energy:  -152.97592819798831
    Total Energy =                       -152.9759281979883383
  Basis Set: CC-PVTZ
  Basis Set:
  Charge       = 0
  Multiplicity = 1
  Basis Set: CC-PVTZ
  Basis Set:

    Orbital Energies (a.u.)
    -----------------------

    Doubly Occupied:

       1A    -20.555055     2A    -11.327355     3A    -11.235872
       4A     -1.410544     5A     -1.021240     6A     -0.802032
       7A     -0.680269     8A     -0.629769     9A     -0.608102
      10A     -0.563364    11A     -0.512272    12A     -0.422163

  @DF-RHF Final Energy:  -152.97593700317901

   => Energetics <=

    Nuclear Repulsion Energy =             70.5161248504976044
    One-Electron Energy =                -347.4480490328958240
    Two-Electron Energy =                 123.9559871792192070
    DFT Exchange-Correlation Energy =       0.0000000000000000
    Empirical Dispersion Energy =           0.0000000000000000
    PCM Polarization Energy =               0.0000000000000000
    EFP Energy =                            0.0000000000000000
    Total Energy =                       -152.9759370031790127
    Molecular point group: c1
  Basis Set: CC-PVTZ
  Basis Set:

  -Total Gradient:
     Atom            X                  Y                   Z
    ------   -----------------  -----------------  -----------------
       1       -0.000001455052     0.000000034298    -0.000009997701
       2       -0.000005122004     0.000005597249    -0.000032741776
       3        0.000034110358    -0.000058111738     0.000093896520
       4       -0.000014505656    -0.000004139568     0.000011961518
       5        0.000012879096     0.000009415379    -0.000000890594
       6       -0.000030524352     0.000021564710    -0.000030037130
       7        0.000004617611     0.000025639671    -0.000032190837

  **** Optimization is complete! (in 5 steps) ****
    Final optimized geometry and variables:
    Molecular point group: c1

    Geometry (in Angstrom), charge = 0, multiplicity = 1:

    H           -1.783184098926     0.237604436366     0.873995121116
    C           -1.254909309171    -0.129884410880     0.000200909833
    C            0.145674581082     0.408897428504     0.000131779129
    H           -1.783628766730     0.238311023956    -0.873022256917
    H           -1.246528674961    -1.209586328410    -0.000217908064
    O            1.121252812443    -0.257781537144    -0.000290726020
    H            0.225713611377     1.502690728646    -0.000102193695

  Mulliken Charges: (a.u.)
   Center  Symbol    Alpha    Beta     Spin     Total
       1     H     0.45195  0.45195  0.00000  0.09610
       2     C     3.13050  3.13050  0.00000 -0.26100
       3     C     2.89601  2.89601  0.00000  0.20799
       4     H     0.45194  0.45194  0.00000  0.09611
       5     H     0.44089  0.44089  0.00000  0.11821
       6     O     4.16326  4.16326  0.00000 -0.32651
       7     H     0.46545  0.46545  0.00000  0.06910

   Total alpha = 12.00000, Total beta = 12.00000, Total charge = -0.00000
