  ==> Input File <==

--------------------------------------------------------------------------
set {
	reference rhf
	basis cc-pvtz
}

set_num_threads( 4 )
memory 2 gb

molecule MOL {
0 1

H	 -0.083868	 -0.213450	 -2.674880
C	 -0.731868	 0.410395	 -2.067792
O	 -0.775228	 0.000056	 -0.739966
H	 -1.738014	 0.325036	 -2.453194
H	 -0.416400	 1.443308	 -2.173634
C	 0.406133	 -0.000384	 0.036994
C	 1.526415	 -0.003194	 -0.997339
C	 0.498772	 1.259027	 0.900673
C	 0.495883	 -1.257378	 0.904465
H	 1.452279	 0.872071	 -1.630204
H	 1.451276	 -0.881020	 -1.626529
H	 2.497919	 -0.002741	 -0.517601
H	 0.368981	 2.144239	 0.289753
H	 1.470064	 1.313479	 1.377660
H	 -0.248448	 1.271586	 1.684297
H	 0.363971	 -2.144195	 0.296316
H	 1.467114	 -1.312636	 1.381470
H	 -0.251246	 -1.265768	 1.688235

	symmetry c1
}
set optking {
	frozen_dihedral = ("
		2 3 6 7
	")
}

ee = optimize('scf')
oeprop('DIPOLE', 'QUADRUPOLE', 'MULLIKEN_CHARGES')
f=open( 'psi4out.xyz', 'w' )
f.write( "18  " )
f.write( str(ee) + "\n" )
f.write( MOL.save_string_xyz() )
f.close()
--------------------------------------------------------------------------

    Molecular point group: c1
  Charge       = 0
  Multiplicity = 1
  Basis Set: CC-PVTZ
  Basis Set:
  @DF-RHF Final Energy:  -271.26050209059088
    Total Energy =                       -271.2605020905908759
    Molecular point group: c1
  Basis Set: CC-PVTZ
  Basis Set:
  Basis Set: CC-PVTZ
  Basis Set:
  @DF-RHF Final Energy:  -271.26607232086957
    Total Energy =                       -271.2660723208695117
  Basis Set: CC-PVTZ
  Basis Set:
  Basis Set: CC-PVTZ
  Basis Set:
  @DF-RHF Final Energy:  -271.27139841671340
    Total Energy =                       -271.2713984167132821
  Basis Set: CC-PVTZ
  Basis Set:
  Basis Set: CC-PVTZ
  Basis Set:
  @DF-RHF Final Energy:  -271.27336966148391
    Total Energy =                       -271.2733696614840255
  Basis Set: CC-PVTZ
  Basis Set:
  Basis Set: CC-PVTZ
  Basis Set:
  @DF-RHF Final Energy:  -271.27359054846437
    Total Energy =                       -271.2735905484647674
  Basis Set: CC-PVTZ
  Basis Set:
  Basis Set: CC-PVTZ
  Basis Set:
  @DF-RHF Final Energy:  -271.27360549512014
    Total Energy =                       -271.2736054951201368
  Basis Set: CC-PVTZ
  Basis Set:
  Basis Set: CC-PVTZ
  Basis Set:
  @DF-RHF Final Energy:  -271.27367259659707
    Total Energy =                       -271.2736725965974074
  Basis Set: CC-PVTZ
  Basis Set:
  Charge       = 0
  Multiplicity = 1
  Basis Set: CC-PVTZ
  Basis Set:

    Orbital Energies (a.u.)
    -----------------------

    Doubly Occupied:

       1A    -20.538090     2A    -11.280534     3A    -11.259370
       4A    -11.211243     5A    -11.202806     6A    -11.202171
       7A     -1.370642     8A     -1.075394     9A     -0.951302
      10A     -0.936058    11A     -0.912534    12A     -0.752486
      13A     -0.657739    14A     -0.647951    15A     -0.639073
      16A     -0.585265    17A     -0.576762    18A     -0.550740
      19A     -0.539743    20A     -0.526916    21A     -0.515404
      22A     -0.491440    23A     -0.484936    24A     -0.443507
      25A     -0.400299

  @DF-RHF Final Energy:  -271.27367337559144

   => Energetics <=

    Nuclear Repulsion Energy =            272.2665239350300226
    One-Electron Energy =                -907.5755867286372904
    Two-Electron Energy =                 364.0353894180154271
    DFT Exchange-Correlation Energy =       0.0000000000000000
    Empirical Dispersion Energy =           0.0000000000000000
    PCM Polarization Energy =               0.0000000000000000
    EFP Energy =                            0.0000000000000000
    Total Energy =                       -271.2736733755918408
    Molecular point group: c1
  Basis Set: CC-PVTZ
  Basis Set:

  -Total Gradient:
     Atom            X                  Y                   Z
    ------   -----------------  -----------------  -----------------
       1       -0.000015053407     0.000005273534    -0.000002774692
       2        0.000513942209    -0.002929988557    -0.000885358024
       3       -0.000813872418     0.005505173800     0.001291643134
       4        0.000000418989    -0.000013433092     0.000035904441
       5        0.000016079333     0.000021260576     0.000016044544
       6        0.000092559616    -0.005184679411    -0.000558988371
       7        0.000045480913     0.002579006605     0.000105426609
       8        0.000084623455    -0.000032958034     0.000001733979
       9        0.000049179965     0.000033270837    -0.000019966764
      10       -0.000033560060     0.000019738918     0.000004837565
      11       -0.000009855963    -0.000018375272     0.000028527363
      12        0.000019945846     0.000007291780    -0.000003719136
      13       -0.000001524075    -0.000020095165    -0.000004403389
      14        0.000027805753     0.000022418228     0.000023282601
      15        0.000005118332    -0.000029885905    -0.000022306768
      16        0.000004608000     0.000026148878    -0.000007502495
      17        0.000017408616    -0.000005836411     0.000021237351
      18       -0.000003305104     0.000015668692    -0.000023617949

  **** Optimization is complete! (in 8 steps) ****
    Final optimized geometry and variables:
    Molecular point group: c1

    Geometry (in Angstrom), charge = 0, multiplicity = 1:

    H           -0.577635928481    -0.328053257699    -2.343520991056
    C           -1.123363845991     0.321393281842    -1.667844492298
    O           -1.012184874083    -0.073004270533    -0.340286787371
    H           -2.173129941611     0.265490852201    -1.919241538213
    H           -0.793386695490     1.344482628259    -1.829082788716
    C            0.237701013186    -0.067401991092     0.332000725552
    C            1.443025544073    -0.075077991991    -0.608769831675
    C            0.278461549018     1.186291625758     1.207233243126
    C            0.237965636664    -1.321857370589     1.197915629719
    H            1.484888150821     0.812949765030    -1.225695225448
    H            1.439536390267    -0.944247535786    -1.255252109779
    H            2.350516755347    -0.107372157441    -0.018944049170
    H            0.232145990849     2.080490625025     0.595884545160
    H            1.188141103760     1.227325784394     1.795908854233
    H           -0.569103514351     1.195990558689     1.880611079166
    H            0.215286614188    -2.209249190393     0.577098672891
    H            1.120178745183    -1.362272421154     1.826657707948
    H           -0.638761539574    -1.333036798348     1.832659483235

  Mulliken Charges: (a.u.)
   Center  Symbol    Alpha    Beta     Spin     Total
       1     H     0.46765  0.46765  0.00000  0.06469
       2     C     3.04190  3.04190  0.00000 -0.08379
       3     O     4.19765  4.19765  0.00000 -0.39530
       4     H     0.44259  0.44259  0.00000  0.11483
       5     H     0.47036  0.47036  0.00000  0.05928
       6     C     2.87187  2.87187  0.00000  0.25625
       7     C     3.17588  3.17588  0.00000 -0.35176
       8     C     3.14557  3.14557  0.00000 -0.29114
       9     C     3.14039  3.14039  0.00000 -0.28078
      10     H     0.44428  0.44428  0.00000  0.11144
      11     H     0.44532  0.44532  0.00000  0.10935
      12     H     0.44304  0.44304  0.00000  0.11392
      13     H     0.45125  0.45125  0.00000  0.09750
      14     H     0.45572  0.45572  0.00000  0.08856
      15     H     0.44825  0.44825  0.00000  0.10351
      16     H     0.45194  0.45194  0.00000  0.09612
      17     H     0.45895  0.45895  0.00000  0.08210
      18     H     0.44739  0.44739  0.00000  0.10523

   Total alpha = 25.00000, Total beta = 25.00000, Total charge =  0.00000
