  ==> Input File <==

--------------------------------------------------------------------------
set {
	reference rhf
	basis 6-31G*
}

set_num_threads( 4 )
memory 2 gb

molecule MOL {
0 1

H	 -3.407059	 -1.043082	 0.000000
O	 -3.119761	 -0.140267	 0.000000
C	 -1.777559	 -0.059267	 0.000000
C	 -1.025127	 -0.218755	 1.159918
C	 -1.153193	 0.193064	 -1.215139
H	 -1.516909	 -0.414079	 2.097633
C	 0.349453	 -0.125206	 1.099935
H	 -1.755275	 0.312295	 -2.095793
C	 0.222406	 0.283828	 -1.259002
H	 0.942407	 -0.246120	 1.987001
C	 0.989696	 0.127004	 -0.109090
H	 0.706746	 0.479355	 -2.200409
C	 2.461139	 0.226838	 -0.171556
O	 3.190404	 0.105680	 0.763457
H	 2.868513	 0.427448	 -1.168034

	symmetry c1
}
set optking {
	frozen_dihedral = ("
		5 3 2 1
	")
}

ee = optimize('scf')
oeprop('DIPOLE', 'QUADRUPOLE', 'MULLIKEN_CHARGES')
f=open( 'psi4out.xyz', 'w' )
f.write( "15  " )
f.write( str(ee) + "\n" )
f.write( MOL.save_string_xyz() )
f.close()
--------------------------------------------------------------------------

    Molecular point group: c1
  Charge       = 0
  Multiplicity = 1
  Basis Set: 6-31G*
  Basis Set:
  @DF-RHF Final Energy:  -418.28345617989436
    Total Energy =                       -418.2834561798945288
    Molecular point group: c1
  Basis Set: 6-31G*
  Basis Set:
  Basis Set: 6-31G*
  Basis Set:
  @DF-RHF Final Energy:  -418.28423125712970
    Total Energy =                       -418.2842312571293633
  Basis Set: 6-31G*
  Basis Set:
  Basis Set: 6-31G*
  Basis Set:
  @DF-RHF Final Energy:  -418.28411721449572
    Total Energy =                       -418.2841172144960638
  Basis Set: 6-31G*
  Basis Set:
  Basis Set: 6-31G*
  Basis Set:
  @DF-RHF Final Energy:  -418.28418434725018
    Total Energy =                       -418.2841843472502887
  Basis Set: 6-31G*
  Basis Set:
  Basis Set: 6-31G*
  Basis Set:
  @DF-RHF Final Energy:  -418.28430581032330
    Total Energy =                       -418.2843058103238718
  Basis Set: 6-31G*
  Basis Set:
  Charge       = 0
  Multiplicity = 1
  Basis Set: 6-31G*
  Basis Set:

    Orbital Energies (a.u.)
    -----------------------

    Doubly Occupied:

       1A    -20.593240     2A    -20.561049     3A    -11.331574
       4A    -11.312852     5A    -11.260132     6A    -11.253561
       7A    -11.245143     8A    -11.242965     9A    -11.242412
      10A     -1.410451    11A     -1.402041    12A     -1.170674
      13A     -1.041280    14A     -1.036856    15A     -0.887230
      16A     -0.857882    17A     -0.796408    18A     -0.750115
      19A     -0.707175    20A     -0.670256    21A     -0.646999
      22A     -0.631389    23A     -0.617059    24A     -0.607019
      25A     -0.559707    26A     -0.552698    27A     -0.536247
      28A     -0.495978    29A     -0.482239    30A     -0.422193
      31A     -0.355065    32A     -0.341121

  @DF-RHF Final Energy:  -418.28430660789360

   => Energetics <=

    Nuclear Repulsion Energy =            400.7643055115817674
    One-Electron Energy =               -1364.0551978834873808
    Two-Electron Energy =                 545.0065857640112199
    DFT Exchange-Correlation Energy =       0.0000000000000000
    Empirical Dispersion Energy =           0.0000000000000000
    PCM Polarization Energy =               0.0000000000000000
    EFP Energy =                            0.0000000000000000
    Total Energy =                       -418.2843066078943366
    Molecular point group: c1
  Basis Set: 6-31G*
  Basis Set:

  -Total Gradient:
     Atom            X                  Y                   Z
    ------   -----------------  -----------------  -----------------
       1       -0.000068405194    -0.000000334450    -0.001048578051
       2        0.000012254324    -0.000437355066     0.001226231396
       3        0.000021910782     0.001213872113     0.000187278948
       4       -0.000184108323    -0.000044449726    -0.000096345675
       5        0.000178217633    -0.000715835854    -0.000238883104
       6        0.000005268870     0.000005963291     0.000002952177
       7        0.000155623244     0.000032063626    -0.000112230301
       8       -0.000000933119     0.000004795699     0.000016913830
       9       -0.000117057501    -0.000092384097    -0.000101402566
      10       -0.000013885121    -0.000001742191     0.000006042993
      11       -0.000003293017     0.000001858886     0.000169768226
      12        0.000020063322     0.000017584398     0.000007112669
      13        0.000014372844     0.000040481536    -0.000020648251
      14       -0.000012812275    -0.000015709970     0.000003566518
      15       -0.000007216470    -0.000008808194    -0.000001778806

  **** Optimization is complete! (in 6 steps) ****
    Final optimized geometry and variables:
    Molecular point group: c1

    Geometry (in Angstrom), charge = 0, multiplicity = 1:

    H           -3.421247782489    -1.070705308473    -0.005452103349
    O           -3.132200437957    -0.167392952996    -0.005456153587
    C           -1.769139380720    -0.101279536488    -0.054363404885
    C           -1.024717982971    -0.257235087544     1.108978227136
    C           -1.145032327662     0.154679426192    -1.263237689997
    H           -1.534962909873    -0.440604686286     2.036711750392
    C            0.350094363992    -0.161653339592     1.057315966586
    H           -1.743216687054     0.280791391376    -2.146186142125
    C            0.234945900822     0.253954825243    -1.305831203238
    H            0.942362350007    -0.278594706342     1.945273805489
    C            0.990627850770     0.094491973859    -0.152677296518
    H            0.724185445005     0.455366759931    -2.243349222904
    C            2.465936209937     0.199769037077    -0.211983311185
    O            3.191087285977     0.070816916640     0.723955056134
    H            2.875297020833     0.410775688239    -1.205080595247

  Mulliken Charges: (a.u.)
   Center  Symbol    Alpha    Beta     Spin     Total
       1     H     0.26821  0.26821  0.00000  0.46358
       2     O     4.38545  4.38545  0.00000 -0.77091
       3     C     2.80940  2.80940  0.00000  0.38119
       4     C     3.12332  3.12332  0.00000 -0.24664
       5     C     3.12171  3.12171  0.00000 -0.24343
       6     H     0.38921  0.38921  0.00000  0.22158
       7     C     3.08482  3.08482  0.00000 -0.16964
       8     H     0.38838  0.38838  0.00000  0.22323
       9     C     3.09898  3.09898  0.00000 -0.19796
      10     H     0.37498  0.37498  0.00000  0.25004
      11     C     3.06031  3.06031  0.00000 -0.12061
      12     H     0.38998  0.38998  0.00000  0.22003
      13     C     2.83090  2.83090  0.00000  0.33820
      14     O     4.25091  4.25091  0.00000 -0.50182
      15     H     0.42343  0.42343  0.00000  0.15315

   Total alpha = 32.00000, Total beta = 32.00000, Total charge =  0.00000
