                              Psi4 1.0.54 Driver

  ==> Input File <==

--------------------------------------------------------------------------
set {
	reference rhf
	basis cc-pvtz
}

set_num_threads( 4 )
memory 2 gb

molecule MOL {
0 1

H	 -3.034039	 -0.667848	 0.004703
O	 -2.240597	 -1.171748	 0.000934
C	 -1.159675	 -0.364500	 0.000370
C	 -0.563970	 0.075674	 1.164756
C	 -0.654552	 0.019088	 -1.232418
H	 -0.955093	 -0.218846	 2.121489
C	 0.541522	 0.904686	 1.081952
H	 -1.142278	 -0.338761	 -2.118421
C	 0.449333	 0.843892	 -1.313142
H	 1.005906	 1.251639	 1.985690
C	 1.047898	 1.289579	 -0.138804
C	 1.013092	 1.241856	 -2.653830
H	 1.904381	 1.935135	 -0.185235
H	 1.270872	 2.293567	 -2.670444
H	 0.305810	 1.054230	 -3.450257
H	 1.915449	 0.680276	 -2.870677

	symmetry c1
}
set optking {
	frozen_dihedral = ("
		5 3 2 1
	")
}

ee,wfn = optimize('scf', return_wfn=True)
oeprop( wfn, 'DIPOLE', 'QUADRUPOLE', 'MULLIKEN_CHARGES')
f=open( 'psi4out.xyz', 'w' )
f.write( "16  " )
f.write( str(ee) + "\n" )
f.write( MOL.save_string_xyz() )
f.close()
--------------------------------------------------------------------------

    Molecular point group: c1
  Charge       = 0
  Multiplicity = 1
  Basis Set: CC-PVTZ
  Basis Set:
  @DF-RHF Final Energy:  -344.71529641918573
    Total Energy =                       -344.7152964191855631
    Molecular point group: c1
  Basis Set: CC-PVTZ
  Basis Set:
  Basis Set: CC-PVTZ
  Basis Set:
  @DF-RHF Final Energy:  -344.71612492303598
    Total Energy =                       -344.7161249230359772
  Basis Set: CC-PVTZ
  Basis Set:
  Basis Set: CC-PVTZ
  Basis Set:
  @DF-RHF Final Energy:  -344.71618281512235
    Total Energy =                       -344.7161828151225791
  Basis Set: CC-PVTZ
  Basis Set:
  Basis Set: CC-PVTZ
  Basis Set:
  @DF-RHF Final Energy:  -344.71618836326400
    Total Energy =                       -344.7161883632641093
  Basis Set: CC-PVTZ
  Basis Set:
  Basis Set: CC-PVTZ
  Basis Set:
  @DF-RHF Final Energy:  -344.71618951884642
    Total Energy =                       -344.7161895188464769
  Basis Set: CC-PVTZ
  Basis Set:
  Charge       = 0
  Multiplicity = 1
  Basis Set: CC-PVTZ
  Basis Set:

    Orbital Energies (a.u.)
    -----------------------

    Doubly Occupied:

       1A    -20.568737     2A    -11.286224     3A    -11.240425
       4A    -11.230954     5A    -11.220950     6A    -11.219239
       7A    -11.219155     8A    -11.218935     9A     -1.395371
      10A     -1.155050    11A     -1.046935    12A     -1.007339
      13A     -0.939311    14A     -0.831887    15A     -0.809810
      16A     -0.721402    17A     -0.679725    18A     -0.659244
      19A     -0.622192    20A     -0.593277    21A     -0.578190
      22A     -0.570494    23A     -0.552812    24A     -0.514327
      25A     -0.505703    26A     -0.485043    27A     -0.466466
      28A     -0.334095    29A     -0.322948

  @DF-RHF Final Energy:  -344.71619008786161

   => Energetics <=

    Nuclear Repulsion Energy =            345.8034997379414790
    One-Electron Energy =               -1153.0468963414291466
    Two-Electron Energy =                 462.5272065156261760
    DFT Exchange-Correlation Energy =       0.0000000000000000
    Empirical Dispersion Energy =           0.0000000000000000
    PCM Polarization Energy =               0.0000000000000000
    EFP Energy =                            0.0000000000000000
    Total Energy =                       -344.7161900878614915
    Molecular point group: c1
  Basis Set: CC-PVTZ
  Basis Set:

  -Total Gradient:
     Atom            X                  Y                   Z
    ------   -----------------  -----------------  -----------------
       1       -0.000004687126     0.000000186514     0.000054574435
       2       -0.000049813992    -0.000054228351    -0.000078379589
       3        0.000044230255     0.000074462658     0.000073607036
       4        0.000029550092     0.000033448792     0.000018832369
       5       -0.000041635714    -0.000025175380    -0.000066535524
       6       -0.000006953361    -0.000006888573     0.000000729393
       7       -0.000055980736    -0.000032479571    -0.000002031803
       8        0.000019582629     0.000006358788     0.000026323097
       9        0.000050108739     0.000005216346     0.000015153450
      10        0.000002453905     0.000001730651     0.000001796099
      11        0.000020408242    -0.000018909758    -0.000032043986
      12       -0.000004162907    -0.000000334997     0.000003076295
      13       -0.000006825788     0.000000799944    -0.000006659248
      14       -0.000009716793     0.000017237969    -0.000002533230
      15        0.000000297431    -0.000008956158    -0.000015765526
      16        0.000013145118     0.000007531130     0.000009856734

  **** Optimization is complete! (in 6 steps) ****
    Final optimized geometry and variables:
    Molecular point group: c1

    Geometry (in Angstrom), charge = 0, multiplicity = 1:

    H           -2.799553596899    -1.030596032322     0.454435387307
    O           -1.996530477054    -1.521224810760     0.453615580552
    C           -0.920458460733    -0.677818744724     0.399498493688
    C           -0.325318600895    -0.246841036433     1.565681128188
    C           -0.411371350309    -0.299973671481    -0.829605876807
    H           -0.724144856472    -0.559463417737     2.510871971256
    C            0.783143210768     0.576542875102     1.488508750542
    H           -0.890148417360    -0.664559084404    -1.718497944315
    C            0.699056157726     0.522119530244    -0.912358491273
    H            1.252412985717     0.919320280704     2.391180623198
    C            1.290320580819     0.960847573430     0.264604783099
    C            1.271765566637     0.914844007606    -2.251244567123
    H            2.151380909240     1.601363788197     0.221871323031
    H            1.544224725374     1.962940776578    -2.266520130204
    H            0.562988078661     0.739288029670    -3.049407005481
    H            2.165995147079     0.341024692092    -2.469767577689

  Mulliken Charges: (a.u.)
   Center  Symbol    Alpha    Beta     Spin     Total
       1     H     0.38902  0.38902  0.00000  0.22196
       2     O     4.19257  4.19257  0.00000 -0.38515
       3     C     2.85714  2.85714  0.00000  0.28571
       4     C     3.12414  3.12414  0.00000 -0.24829
       5     C     3.14375  3.14375  0.00000 -0.28751
       6     H     0.41751  0.41751  0.00000  0.16498
       7     C     3.06081  3.06081  0.00000 -0.12161
       8     H     0.42037  0.42037  0.00000  0.15925
       9     C     2.94633  2.94633  0.00000  0.10735
      10     H     0.42220  0.42220  0.00000  0.15561
      11     C     3.10733  3.10733  0.00000 -0.21466
      12     C     3.14610  3.14610  0.00000 -0.29220
      13     H     0.42692  0.42692  0.00000  0.14615
      14     H     0.44839  0.44839  0.00000  0.10322
      15     H     0.45099  0.45099  0.00000  0.09802
      16     H     0.44642  0.44642  0.00000  0.10716

   Total alpha = 29.00000, Total beta = 29.00000, Total charge = -0.00000

*** Psi4 exiting successfully. Buy a developer a beer!
