  ==> Input File <==

--------------------------------------------------------------------------
set {
	reference rhf
	basis 6-31G*
}

set_num_threads( 4 )
memory 2 gb

molecule MOL {
0 1

O	 1.846825	 1.296220	 0.000415
C	 1.705091	 0.115954	 0.001797
C	 0.381791	 -0.609817	 0.001258
O	 2.721346	 -0.737485	 -0.000216
C	 -0.823008	 0.326187	 0.001381
H	 0.371250	 -1.265087	 -0.865474
H	 0.370908	 -1.265746	 0.867490
C	 -0.685803	 1.448704	 1.031037
H	 -1.722244	 -0.248488	 0.199653
H	 -0.947774	 0.748645	 -0.990724
C	 -1.886202	 2.396699	 1.045364
H	 -0.557405	 1.018624	 2.023278
H	 0.218971	 2.019802	 0.828276
C	 -1.747985	 3.518776	 2.073514
H	 -2.790543	 1.828110	 1.250337
H	 -2.015233	 2.827795	 0.055089
H	 -1.651832	 3.119685	 3.079345
H	 -2.613704	 4.173589	 2.059307
H	 -0.870028	 4.127077	 1.874837
C	 4.024888	 -0.184556	 -0.001949
H	 4.179030	 0.422472	 -0.882452
H	 4.701782	 -1.024608	 -0.003642
H	 4.181981	 0.421185	 0.878906

	symmetry c1
}
set optking {
	frozen_dihedral = ("
		9 5 3 6
	")
}

ee = optimize('scf')
oeprop('DIPOLE', 'QUADRUPOLE', 'MULLIKEN_CHARGES')
f=open( 'psi4out.xyz', 'w' )
f.write( "23  " )
f.write( str(ee) + "\n" )
f.write( MOL.save_string_xyz() )
f.close()
--------------------------------------------------------------------------

    Molecular point group: c1
  Charge       = 0
  Multiplicity = 1
  Basis Set: 6-31G*
  Basis Set:
  @DF-RHF Final Energy:  -422.96568153291167
    Total Energy =                       -422.9656815329118444
    Molecular point group: c1
  Basis Set: 6-31G*
  Basis Set:
  Basis Set: 6-31G*
  Basis Set:
  @DF-RHF Final Energy:  -422.97188930092062
    Total Energy =                       -422.9718893009204521
  Basis Set: 6-31G*
  Basis Set:
  Basis Set: 6-31G*
  Basis Set:
  @DF-RHF Final Energy:  -422.97278126787938
    Total Energy =                       -422.9727812678788723
  Basis Set: 6-31G*
  Basis Set:
  Basis Set: 6-31G*
  Basis Set:
  @DF-RHF Final Energy:  -422.97137690620019
    Total Energy =                       -422.9713769062002484
  Basis Set: 6-31G*
  Basis Set:
  @DF-RHF Final Energy:  -422.97362615911146
    Total Energy =                       -422.9736261591117454
  @DF-RHF Final Energy:  -422.97394610798483
    Total Energy =                       -422.9739461079855118
  @DF-RHF Final Energy:  -422.97402667747798
    Total Energy =                       -422.9740266774784914
  Basis Set: 6-31G*
  Basis Set:
  @DF-RHF Final Energy:  -422.97403980717445
    Total Energy =                       -422.9740398071746768
  Basis Set: 6-31G*
  Basis Set:
  Basis Set: 6-31G*
  Basis Set:
  @DF-RHF Final Energy:  -422.97404889668104
    Total Energy =                       -422.9740488966809835
  Basis Set: 6-31G*
  Basis Set:
  Basis Set: 6-31G*
  Basis Set:
  @DF-RHF Final Energy:  -422.97405077835401
    Total Energy =                       -422.9740507783529893
  Basis Set: 6-31G*
  Basis Set:
  Charge       = 0
  Multiplicity = 1
  Basis Set: 6-31G*
  Basis Set:

    Orbital Energies (a.u.)
    -----------------------

    Doubly Occupied:

       1A    -20.605433     2A    -20.543792     3A    -11.372489
       4A    -11.281242     5A    -11.235882     6A    -11.222527
       7A    -11.213839     8A    -11.211493     9A    -11.206700
      10A     -1.470091    11A     -1.362351    12A     -1.090922
      13A     -1.041294    14A     -0.985739    15A     -0.931428
      16A     -0.844117    17A     -0.795003    18A     -0.766111
      19A     -0.697608    20A     -0.680615    21A     -0.671021
      22A     -0.644076    23A     -0.611701    24A     -0.599557
      25A     -0.568923    26A     -0.562177    27A     -0.551762
      28A     -0.526649    29A     -0.523202    30A     -0.502365
      31A     -0.492270    32A     -0.469067    33A     -0.464039
      34A     -0.454117    35A     -0.451655    36A     -0.432494

  @DF-RHF Final Energy:  -422.97405133214818

   => Energetics <=

    Nuclear Repulsion Energy =            464.9672414410393912
    One-Electron Energy =               -1497.7150835690579243
    Two-Electron Energy =                 609.7737907958706955
    DFT Exchange-Correlation Energy =       0.0000000000000000
    Empirical Dispersion Energy =           0.0000000000000000
    PCM Polarization Energy =               0.0000000000000000
    EFP Energy =                            0.0000000000000000
    Total Energy =                       -422.9740513321477238
    Molecular point group: c1
  Basis Set: 6-31G*
  Basis Set:

  -Total Gradient:
     Atom            X                  Y                   Z
    ------   -----------------  -----------------  -----------------
       1        0.000015278936     0.000004177246     0.000010766848
       2       -0.000005308909    -0.000066613210     0.000022934379
       3       -0.003169679002    -0.003901587242     0.004211969845
       4       -0.000027183176     0.000052362093    -0.000040408306
       5       -0.000251890186    -0.000004176036    -0.006411367177
       6        0.002693374683     0.003274245162    -0.002578115922
       7       -0.000003368005     0.000007145588    -0.000012580169
       8       -0.000019247467    -0.000047978358    -0.000014886392
       9        0.000699321312     0.000658947860     0.004798786151
      10        0.000009867524    -0.000006600096     0.000015675552
      11        0.000006512198     0.000017731578    -0.000016274891
      12        0.000007194302    -0.000003821650    -0.000002503215
      13        0.000008048380     0.000019683285    -0.000005251425
      14       -0.000001628396     0.000000068744     0.000004708529
      15        0.000014683902    -0.000003148113     0.000000438559
      16        0.000000960433    -0.000003819696     0.000001023186
      17        0.000002191701    -0.000000428004    -0.000000445658
      18       -0.000000612158     0.000000002777     0.000003645650
      19       -0.000003078129     0.000000920188    -0.000002661796
      20        0.000015885638     0.000004688737     0.000030136242
      21       -0.000005629167    -0.000002142507    -0.000005346896
      22        0.000007856694     0.000003169881    -0.000005847510
      23        0.000006448892    -0.000002828223    -0.000004395582

  **** Optimization is complete! (in 11 steps) ****
    Final optimized geometry and variables:
    Molecular point group: c1

    Geometry (in Angstrom), charge = 0, multiplicity = 1:

    O            1.276352951915     0.252081029934    -1.225400511079
    C            1.064743031925    -0.765308896422    -0.645728405801
    C           -0.293405175863    -1.412536919594    -0.495756313018
    O            2.023219878233    -1.498558843868    -0.097401908460
    C           -1.458183495580    -0.418404704386    -0.455596680003
    H           -0.380731471304    -2.039474784358    -1.381206651622
    H           -0.285085457231    -2.061917104115     0.370072817255
    C           -1.329737954651     0.656499114211     0.629412948368
    H           -2.359871370168    -0.987585116948    -0.243040598382
    H           -1.576595415732     0.049043027927    -1.426424307512
    C           -2.567301197303     1.551644517791     0.718347141800
    H           -1.167876533431     0.174960346523     1.593687101169
    H           -0.458101655081     1.272089991741     0.435662244830
    C           -2.444633267945     2.630600753230     1.793639658500
    H           -3.444514429348     0.940034636477     0.919608403244
    H           -2.737977688374     2.023080693382    -0.246978757158
    H           -2.304511315602     2.190302611833     2.776997124262
    H           -3.335417636371     3.249969293237     1.832875705084
    H           -1.597014382348     3.281467866271     1.599649026617
    C            3.351870701778    -1.028187545730    -0.237646415609
    H            3.622271955912    -0.959558405340    -1.281499132841
    H            3.975329959411    -1.751798020533     0.263881953267
    H            3.460690401998    -0.056644893364     0.222230537190

  Mulliken Charges: (a.u.)
   Center  Symbol    Alpha    Beta     Spin     Total
       1     O     4.28867  4.28867  0.00000 -0.57734
       2     C     2.60611  2.60611  0.00000  0.78778
       3     C     3.20889  3.20889  0.00000 -0.41779
       4     O     4.30522  4.30522  0.00000 -0.61045
       5     C     3.15180  3.15180  0.00000 -0.30361
       6     H     0.39841  0.39841  0.00000  0.20319
       7     H     0.40012  0.40012  0.00000  0.19975
       8     C     3.16168  3.16168  0.00000 -0.32337
       9     H     0.41901  0.41901  0.00000  0.16197
      10     H     0.40934  0.40934  0.00000  0.18133
      11     C     3.15198  3.15198  0.00000 -0.30396
      12     H     0.42669  0.42669  0.00000  0.14662
      13     H     0.40632  0.40632  0.00000  0.18736
      14     C     3.23943  3.23943  0.00000 -0.47886
      15     H     0.42469  0.42469  0.00000  0.15062
      16     H     0.42076  0.42076  0.00000  0.15848
      17     H     0.42262  0.42262  0.00000  0.15476
      18     H     0.41957  0.41957  0.00000  0.16087
      19     H     0.41990  0.41990  0.00000  0.16020
      20     C     3.09290  3.09290  0.00000 -0.18580
      21     H     0.40899  0.40899  0.00000  0.18201
      22     H     0.40831  0.40831  0.00000  0.18337
      23     H     0.40857  0.40857  0.00000  0.18286

   Total alpha = 36.00000, Total beta = 36.00000, Total charge =  0.00000
