  ==> Input File <==

--------------------------------------------------------------------------
set {
	reference rhf
	basis cc-pvtz
}

set_num_threads( 4 )
memory 2 gb

molecule MOL {
0 1

H	 -0.366580	 2.045936	 -0.305741
C	 0.351829	 1.335402	 0.083179
N	 -0.000018	 0.000080	 -0.334836
H	 1.327156	 1.599860	 -0.305475
H	 0.380566	 1.445403	 1.171445
C	 1.122138	 -0.903692	 -0.255201
C	 -1.149971	 -0.503172	 0.376913
H	 0.842038	 -1.875696	 -0.641004
H	 1.941640	 -0.529499	 -0.855686
H	 1.486561	 -1.038208	 0.767625
H	 -1.991602	 0.163668	 0.238483
H	 -1.427520	 -1.475727	 -0.009388
H	 -0.972597	 -0.604429	 1.451807

	symmetry c1
}
set optking {
	frozen_dihedral = ("
		6 3 2 1
	")
}

ee = optimize('scf')
oeprop('DIPOLE', 'QUADRUPOLE', 'MULLIKEN_CHARGES')
f=open( 'psi4out.xyz', 'w' )
f.write( "13  " )
f.write( str(ee) + "\n" )
f.write( MOL.save_string_xyz() )
f.close()
--------------------------------------------------------------------------

    Molecular point group: c1
  Charge       = 0
  Multiplicity = 1
  Basis Set: CC-PVTZ
  Basis Set:
  @DF-RHF Final Energy:  -173.33288376787982
    Total Energy =                       -173.3328837678797640
    Molecular point group: c1
  Basis Set: CC-PVTZ
  Basis Set:
  Basis Set: CC-PVTZ
  Basis Set:
  @DF-RHF Final Energy:  -173.33307683577931
    Total Energy =                       -173.3330768357792806
  Basis Set: CC-PVTZ
  Basis Set:
  Basis Set: CC-PVTZ
  Basis Set:
  @DF-RHF Final Energy:  -173.33309593594751
    Total Energy =                       -173.3330959359474832
  Basis Set: CC-PVTZ
  Basis Set:
  Charge       = 0
  Multiplicity = 1
  Basis Set: CC-PVTZ
  Basis Set:

    Orbital Energies (a.u.)
    -----------------------

    Doubly Occupied:

       1A    -15.537899     2A    -11.234358     3A    -11.234178
       4A    -11.234062     5A     -1.225875     6A     -0.952950
       7A     -0.952513     8A     -0.806020     9A     -0.642513
      10A     -0.631738    11A     -0.630506    12A     -0.546721
      13A     -0.543098    14A     -0.516110    15A     -0.503134
      16A     -0.502555    17A     -0.346120

  @DF-RHF Final Energy:  -173.33309694986542

   => Energetics <=

    Nuclear Repulsion Energy =            139.3020447360821663
    One-Electron Energy =                -509.1895812879673713
    Two-Electron Energy =                 196.5544396020197837
    DFT Exchange-Correlation Energy =       0.0000000000000000
    Empirical Dispersion Energy =           0.0000000000000000
    PCM Polarization Energy =               0.0000000000000000
    EFP Energy =                            0.0000000000000000
    Total Energy =                       -173.3330969498654213
    Molecular point group: c1
  Basis Set: CC-PVTZ
  Basis Set:

  -Total Gradient:
     Atom            X                  Y                   Z
    ------   -----------------  -----------------  -----------------
       1        0.001795373984     0.000356755651    -0.002753141982
       2       -0.002051235896    -0.000176941913     0.002609718787
       3       -0.000346241945    -0.000654154584     0.002550688664
       4        0.000018320099     0.000006937972    -0.000025014769
       5        0.000001484576    -0.000039112188    -0.000045517595
       6        0.000654749618     0.000483754257    -0.002341663173
       7       -0.000032155653    -0.000027095118     0.000091533964
       8        0.000000443759    -0.000013458661    -0.000002236447
       9       -0.000027304086     0.000020144388     0.000002957492
      10       -0.000031777059     0.000026625851    -0.000033321874
      11        0.000013244884     0.000007717312    -0.000010310155
      12        0.000009096130     0.000006739774    -0.000013675398
      13       -0.000003998407     0.000002087258    -0.000030017511

  **** Optimization is complete! (in 4 steps) ****
    Final optimized geometry and variables:
    Molecular point group: c1

    Geometry (in Angstrom), charge = 0, multiplicity = 1:

    H           -0.474266886937     2.060681208088    -0.289289186205
    C            0.258139514877     1.360833174809     0.095442303765
    N           -0.077942853827     0.016223360902    -0.306626018838
    H            1.214070778016     1.640020019096    -0.329238939123
    H            0.326784562136     1.481444222862     1.179721609721
    C            1.042303096077    -0.889087629166    -0.241615991145
    C           -1.243600575465    -0.484020585829     0.376625172858
    H            0.751289997260    -1.860897842920    -0.620562746876
    H            1.852005360971    -0.520113150759    -0.857734457631
    H            1.426087253537    -1.027566581137     0.774262637264
    H           -2.073909123542     0.197002230282     0.235411329899
    H           -1.529106811709    -1.446392019989    -0.029362415831
    H           -1.086798196350    -0.603434343845     1.453215118406

  Mulliken Charges: (a.u.)
   Center  Symbol    Alpha    Beta     Spin     Total
       1     H     0.45162  0.45162  0.00000  0.09677
       2     C     3.08847  3.08847  0.00000 -0.17694
       3     N     3.59613  3.59613  0.00000 -0.19227
       4     H     0.45478  0.45478  0.00000  0.09044
       5     H     0.47257  0.47257  0.00000  0.05487
       6     C     3.08808  3.08808  0.00000 -0.17616
       7     C     3.08911  3.08911  0.00000 -0.17822
       8     H     0.45305  0.45305  0.00000  0.09390
       9     H     0.45241  0.45241  0.00000  0.09518
      10     H     0.47451  0.47451  0.00000  0.05099
      11     H     0.45296  0.45296  0.00000  0.09408
      12     H     0.45290  0.45290  0.00000  0.09419
      13     H     0.47342  0.47342  0.00000  0.05317

   Total alpha = 17.00000, Total beta = 17.00000, Total charge = -0.00000
