  ==> Input File <==

--------------------------------------------------------------------------
set {
	reference rhf
	basis cc-pvtz
}

set_num_threads( 4 )
memory 2 gb

molecule MOL {
0 1

H	 -3.642953	 0.223825	 0.000000
C	 -2.571844	 0.155001	 0.000000
C	 -1.957580	 -1.086132	 0.000000
C	 -1.807160	 1.303787	 0.000000
H	 -2.551493	 -1.979629	 0.000000
C	 -0.582719	 -1.174294	 0.000000
H	 -2.279934	 2.266806	 0.000000
C	 -0.427220	 1.213406	 0.000000
H	 -0.094904	 -2.127556	 0.000000
C	 0.196908	 -0.024061	 0.000000
H	 0.151409	 2.115254	 0.000000
C	 1.690041	 -0.173233	 0.000000
C	 2.398016	 -0.474511	 -1.301023
O	 2.308797	 -0.056187	 1.009358
H	 2.044162	 -1.407490	 -1.723301
H	 3.456313	 -0.545859	 -1.106998
H	 2.215599	 0.308500	 -2.027383

	symmetry c1
}
set optking {
	frozen_dihedral = ("
		13 12 10 8
	")
}

ee = optimize('scf')
oeprop('DIPOLE', 'QUADRUPOLE', 'MULLIKEN_CHARGES')
f=open( 'psi4out.xyz', 'w' )
f.write( "17  " )
f.write( str(ee) + "\n" )
f.write( MOL.save_string_xyz() )
f.close()
--------------------------------------------------------------------------

    Molecular point group: c1
  Charge       = 0
  Multiplicity = 1
  Basis Set: CC-PVTZ
  Basis Set:
  @DF-RHF Final Energy:  -382.59661937468303
    Total Energy =                       -382.5966193746833142
    Molecular point group: c1
  Basis Set: CC-PVTZ
  Basis Set:
  Basis Set: CC-PVTZ
  Basis Set:
  @DF-RHF Final Energy:  -382.59732895732714
    Total Energy =                       -382.5973289573269085
  Basis Set: CC-PVTZ
  Basis Set:
  Basis Set: CC-PVTZ
  Basis Set:
  @DF-RHF Final Energy:  -382.59586531492585
    Total Energy =                       -382.5958653149257316
  Basis Set: CC-PVTZ
  Basis Set:
  Basis Set: CC-PVTZ
  Basis Set:
  @DF-RHF Final Energy:  -382.59751953134207
    Total Energy =                       -382.5975195313425274
  Basis Set: CC-PVTZ
  Basis Set:
  Basis Set: CC-PVTZ
  Basis Set:
  @DF-RHF Final Energy:  -382.59753372002746
    Total Energy =                       -382.5975337200275135
  Basis Set: CC-PVTZ
  Basis Set:
  Basis Set: CC-PVTZ
  Basis Set:
  @DF-RHF Final Energy:  -382.59753573470198
    Total Energy =                       -382.5975357347022054
  Basis Set: CC-PVTZ
  Basis Set:
  Charge       = 0
  Multiplicity = 1
  Basis Set: CC-PVTZ
  Basis Set:

    Orbital Energies (a.u.)
    -----------------------

    Doubly Occupied:

       1A    -20.548429     2A    -11.330914     3A    -11.247171
       4A    -11.242119     5A    -11.241040     6A    -11.239735
       7A    -11.239111     8A    -11.237198     9A    -11.231477
      10A     -1.408073    11A     -1.171335    12A     -1.054363
      13A     -1.029876    14A     -1.001445    15A     -0.862547
      16A     -0.841631    17A     -0.765614    18A     -0.706623
      19A     -0.666944    20A     -0.648104    21A     -0.632452
      22A     -0.623565    23A     -0.602374    24A     -0.592834
      25A     -0.565313    26A     -0.525698    27A     -0.516562
      28A     -0.511855    29A     -0.497124    30A     -0.413524
      31A     -0.349029    32A     -0.346646

  @DF-RHF Final Energy:  -382.59753627722466

   => Energetics <=

    Nuclear Repulsion Energy =            403.6004606404874266
    One-Electron Energy =               -1318.6145420087445927
    Two-Electron Energy =                 532.4165450910320487
    DFT Exchange-Correlation Energy =       0.0000000000000000
    Empirical Dispersion Energy =           0.0000000000000000
    PCM Polarization Energy =               0.0000000000000000
    EFP Energy =                            0.0000000000000000
    Total Energy =                       -382.5975362772251174
    Molecular point group: c1
  Basis Set: CC-PVTZ
  Basis Set:

  -Total Gradient:
     Atom            X                  Y                   Z
    ------   -----------------  -----------------  -----------------
       1       -0.000003127735    -0.000003619819    -0.000004364705
       2       -0.000000257032     0.000003346275     0.000011999758
       3        0.000012831945     0.000004283767    -0.000014478108
       4        0.000005044060     0.000007060458     0.000008434564
       5        0.000000271306     0.000004203460     0.000000167065
       6       -0.000038016529     0.000013995501     0.000004999247
       7        0.000002351930    -0.000001478118    -0.000001301812
       8        0.000006348749    -0.000021560713    -0.001969072224
       9        0.000016980603    -0.000005478184    -0.000000345157
      10        0.000056186742     0.000746975072     0.002706581043
      11       -0.000001821437     0.000009083465     0.000001568259
      12       -0.000172170057    -0.002470657315    -0.000386599908
      13        0.000090857665     0.001757324325    -0.000356273483
      14       -0.000008673772    -0.000003705988    -0.000018322930
      15        0.000007457147    -0.000011928160     0.000012617592
      16        0.000018702209    -0.000011159444     0.000000076643
      17        0.000007034209    -0.000016684584     0.000004314156

  **** Optimization is complete! (in 7 steps) ****
    Final optimized geometry and variables:
    Molecular point group: c1

    Geometry (in Angstrom), charge = 0, multiplicity = 1:

    H           -3.633525155058     0.274490142368    -0.003419672460
    C           -2.563724090180     0.192620900142     0.010378958066
    C           -1.964277298019    -1.052244348334     0.025487896343
    C           -1.781292893356     1.331772440849     0.013682135402
    H           -2.567195579843    -1.939963837131     0.026257572926
    C           -0.586499100922    -1.158201751519     0.037579447815
    H           -2.242010885483     2.300879842846     0.002080595715
    C           -0.403729145005     1.227496944603     0.037150610750
    H           -0.127247798580    -2.129168710257     0.046925795950
    C            0.198579724516    -0.018574495938     0.055352805585
    H            0.200948152683     2.114466259990     0.053729193613
    C            1.702675196433    -0.120957330146     0.063323225846
    C            2.366611637423    -0.417146439492    -1.259051718602
    O            2.326286301134     0.063848888071     1.054822052680
    H            1.978762373294    -1.337942008787    -1.679380827344
    H            3.435512958708    -0.489803658674    -1.126969539034
    H            2.132312443000     0.375103360699    -1.961525956675

  Mulliken Charges: (a.u.)
   Center  Symbol    Alpha    Beta     Spin     Total
       1     H     0.42160  0.42160  0.00000  0.15680
       2     C     3.08580  3.08580  0.00000 -0.17160
       3     C     3.06375  3.06375  0.00000 -0.12750
       4     C     3.06269  3.06269  0.00000 -0.12538
       5     H     0.42141  0.42141  0.00000  0.15718
       6     C     3.10052  3.10052  0.00000 -0.20103
       7     H     0.42130  0.42130  0.00000  0.15741
       8     C     3.09766  3.09766  0.00000 -0.19532
       9     H     0.42357  0.42357  0.00000  0.15285
      10     C     2.95123  2.95123  0.00000  0.09755
      11     H     0.42123  0.42123  0.00000  0.15754
      12     C     2.88173  2.88173  0.00000  0.23655
      13     C     3.15028  3.15028  0.00000 -0.30056
      14     O     4.16656  4.16656  0.00000 -0.33313
      15     H     0.44814  0.44814  0.00000  0.10371
      16     H     0.43617  0.43617  0.00000  0.12766
      17     H     0.44636  0.44636  0.00000  0.10727

   Total alpha = 32.00000, Total beta = 32.00000, Total charge = -0.00000
