  ==> Input File <==

--------------------------------------------------------------------------
set {
	reference rhf
	basis 6-31G*
}

set_num_threads( 4 )
memory 2 gb

molecule MOL {
0 1

H	 2.271841	 -0.765213	 -0.581000
C	 1.951159	 -0.223429	 0.317018
C	 0.692068	 0.589600	 0.160137
O	 2.584110	 -0.302641	 1.319629
C	 -0.558097	 -0.297372	 0.091132
H	 0.791645	 1.202255	 -0.728243
H	 0.616171	 1.253469	 1.020572
C	 -1.850991	 0.512573	 -0.019058
H	 -0.476753	 -0.965681	 -0.762987
H	 -0.604799	 -0.930658	 0.975228
C	 -3.096943	 -0.368295	 -0.099594
H	 -1.800724	 1.150330	 -0.898172
H	 -1.931651	 1.177355	 0.838044
H	 -3.060452	 -1.020287	 -0.967456
H	 -3.996858	 0.233488	 -0.175704
H	 -3.191959	 -0.995686	 0.782074

	symmetry c1
}
set optking {
	frozen_dihedral = ("
		4 2 3 6
	")
}

ee = optimize('scf')
oeprop('DIPOLE', 'QUADRUPOLE', 'MULLIKEN_CHARGES')
f=open( 'psi4out.xyz', 'w' )
f.write( "16  " )
f.write( str(ee) + "\n" )
f.write( MOL.save_string_xyz() )
f.close()
--------------------------------------------------------------------------

    Molecular point group: c1
  Charge       = 0
  Multiplicity = 1
  Basis Set: 6-31G*
  Basis Set:
  @DF-RHF Final Energy:  -270.01938973691006
    Total Energy =                       -270.0193897369100569
    Molecular point group: c1
  Basis Set: 6-31G*
  Basis Set:
  Basis Set: 6-31G*
  Basis Set:
  @DF-RHF Final Energy:  -270.01918589622994
    Total Energy =                       -270.0191858962302831
  Basis Set: 6-31G*
  Basis Set:
  Basis Set: 6-31G*
  Basis Set:
  @DF-RHF Final Energy:  -270.01909443857960
    Total Energy =                       -270.0190944385793159
  Basis Set: 6-31G*
  Basis Set:
  Basis Set: 6-31G*
  Basis Set:
  @DF-RHF Final Energy:  -270.01974916690887
    Total Energy =                       -270.0197491669088663
  Basis Set: 6-31G*
  Basis Set:
  Basis Set: 6-31G*
  Basis Set:
  @DF-RHF Final Energy:  -270.01957245714533
    Total Energy =                       -270.0195724571449318
  Basis Set: 6-31G*
  Basis Set:
  Basis Set: 6-31G*
  Basis Set:
  @DF-RHF Final Energy:  -270.01977025571659
    Total Energy =                       -270.0197702557164803
  Basis Set: 6-31G*
  Basis Set:
  Basis Set: 6-31G*
  Basis Set:
  @DF-RHF Final Energy:  -270.01977356150229
    Total Energy =                       -270.0197735615020065
  Basis Set: 6-31G*
  Basis Set:
  Charge       = 0
  Multiplicity = 1
  Basis Set: 6-31G*
  Basis Set:

    Orbital Energies (a.u.)
    -----------------------

    Doubly Occupied:

       1A    -20.562448     2A    -11.326403     3A    -11.236717
       4A    -11.234992     5A    -11.229102     6A    -11.218163
       7A     -1.402213     8A     -1.096111     9A     -1.018589
      10A     -0.905938    11A     -0.812222    12A     -0.792037
      13A     -0.680164    14A     -0.646285    15A     -0.629652
      16A     -0.602767    17A     -0.579774    18A     -0.551662
      19A     -0.525968    20A     -0.511825    21A     -0.487550
      22A     -0.480770    23A     -0.477760    24A     -0.408779

  @DF-RHF Final Energy:  -270.01977447771293

   => Energetics <=

    Nuclear Repulsion Energy =            229.3172772963687294
    One-Electron Energy =                -819.8383249657358647
    Two-Electron Energy =                 320.5012731916542634
    DFT Exchange-Correlation Energy =       0.0000000000000000
    Empirical Dispersion Energy =           0.0000000000000000
    PCM Polarization Energy =               0.0000000000000000
    EFP Energy =                            0.0000000000000000
    Total Energy =                       -270.0197744777128719
    Molecular point group: c1
  Basis Set: 6-31G*
  Basis Set:

  -Total Gradient:
     Atom            X                  Y                   Z
    ------   -----------------  -----------------  -----------------
       1        0.000002877743     0.000001948842     0.000006335122
       2        0.000458920333     0.000660855853    -0.000387965398
       3        0.000141472502     0.000292752272     0.000565339817
       4       -0.000353120275    -0.000532820546     0.000213501867
       5        0.000024314745     0.000023151908    -0.000071595135
       6       -0.000307005787    -0.000476254596    -0.000349366143
       7        0.000012309332     0.000001792506     0.000001318755
       8       -0.000008534023     0.000014972046     0.000032383679
       9       -0.000003958460    -0.000039163535    -0.000005932215
      10        0.000043803873     0.000045675013    -0.000001904072
      11        0.000000592740     0.000003460538    -0.000023103393
      12        0.000000822967     0.000001746563     0.000011948553
      13       -0.000011091287     0.000002538419     0.000011382221
      14        0.000002189974    -0.000008682867     0.000004266110
      15       -0.000001227843    -0.000001657374    -0.000009196868
      16       -0.000002366535     0.000009684960     0.000002587098

  **** Optimization is complete! (in 8 steps) ****
    Final optimized geometry and variables:
    Molecular point group: c1

    Geometry (in Angstrom), charge = 0, multiplicity = 1:

    H            2.245804957013    -0.763820069789    -0.907908139509
    C            1.990027269712    -0.201759531326    -0.001858490194
    C            0.735025164790     0.626815047068    -0.091311774030
    O            2.669646653424    -0.292819459559     0.968866516930
    C           -0.510853603671    -0.267862628315    -0.180756579948
    H            0.793888521261     1.247892972270    -0.983167781125
    H            0.687119915550     1.272359200218     0.777674365203
    C           -1.804044012580     0.536212949649    -0.324553925223
    H           -0.412929190239    -0.946044015565    -1.026640573748
    H           -0.565953365636    -0.889380583303     0.709443329575
    C           -3.045812178550    -0.350330705380    -0.406614933080
    H           -1.743064634320     1.158374646196    -1.214659058380
    H           -1.898913550509     1.215744410643     0.518897668438
    H           -2.994157803429    -1.020744297895    -1.259735317294
    H           -3.946068708030     0.246956492698    -0.509480003675
    H           -3.152635188333    -0.959018257157     0.486463137814

  Mulliken Charges: (a.u.)
   Center  Symbol    Alpha    Beta     Spin     Total
       1     H     0.43164  0.43164  0.00000  0.13673
       2     C     2.83243  2.83243  0.00000  0.33513
       3     C     3.20527  3.20527  0.00000 -0.41054
       4     O     4.23642  4.23642  0.00000 -0.47285
       5     C     3.16442  3.16442  0.00000 -0.32884
       6     H     0.41254  0.41254  0.00000  0.17492
       7     H     0.39971  0.39971  0.00000  0.20057
       8     C     3.15152  3.15152  0.00000 -0.30304
       9     H     0.41915  0.41915  0.00000  0.16169
      10     H     0.41093  0.41093  0.00000  0.17814
      11     C     3.24056  3.24056  0.00000 -0.48112
      12     H     0.42104  0.42104  0.00000  0.15793
      13     H     0.41830  0.41830  0.00000  0.16340
      14     H     0.42056  0.42056  0.00000  0.15888
      15     H     0.41649  0.41649  0.00000  0.16701
      16     H     0.41901  0.41901  0.00000  0.16198

   Total alpha = 24.00000, Total beta = 24.00000, Total charge = -0.00000
