  ==> Input File <==

--------------------------------------------------------------------------
set {
	reference rhf
	basis 6-31G*
}

set_num_threads( 4 )
memory 2 gb

molecule MOL {
0 1

H	 -2.499100	 -0.730091	 -0.745082
O	 -2.347518	 -0.290803	 0.079804
C	 -1.184022	 0.487508	 -0.006784
C	 0.062599	 -0.378592	 0.031606
H	 -1.176523	 1.099369	 -0.904519
H	 -1.187323	 1.153111	 0.844927
O	 1.171513	 0.459272	 -0.058250
H	 0.050699	 -1.089204	 -0.797170
H	 0.078739	 -0.954914	 0.954740
C	 0.978686	 1.731301	 0.474576
H	 0.740936	 1.686327	 1.535746
H	 1.899506	 2.282838	 0.344959
H	 0.176143	 2.258664	 -0.036897

	symmetry c1
}
set optking {
	frozen_dihedral = ("
		10 7 4 8
	")
}

ee = optimize('scf')
oeprop('DIPOLE', 'QUADRUPOLE', 'MULLIKEN_CHARGES')
f=open( 'psi4out.xyz', 'w' )
f.write( "13  " )
f.write( str(ee) + "\n" )
f.write( MOL.save_string_xyz() )
f.close()
--------------------------------------------------------------------------

    Molecular point group: c1
  Charge       = 0
  Multiplicity = 1
  Basis Set: 6-31G*
  Basis Set:
  @DF-RHF Final Energy:  -267.92979787197498
    Total Energy =                       -267.9297978719749835
    Molecular point group: c1
  Basis Set: 6-31G*
  Basis Set:
  Basis Set: 6-31G*
  Basis Set:
  @DF-RHF Final Energy:  -267.92980902710110
    Total Energy =                       -267.9298090271012711
  Basis Set: 6-31G*
  Basis Set:
  Basis Set: 6-31G*
  Basis Set:
  @DF-RHF Final Energy:  -267.93742424082643
    Total Energy =                       -267.9374242408265445
  Basis Set: 6-31G*
  Basis Set:
  Basis Set: 6-31G*
  Basis Set:
  @DF-RHF Final Energy:  -267.94072272902696
    Total Energy =                       -267.9407227290271294
  Basis Set: 6-31G*
  Basis Set:
  @DF-RHF Final Energy:  -267.94128073954948
    Total Energy =                       -267.9412807395494269
  @DF-RHF Final Energy:  -267.94166825615389
    Total Energy =                       -267.9416682561538892
  Basis Set: 6-31G*
  Basis Set:
  @DF-RHF Final Energy:  -267.94173240719510
    Total Energy =                       -267.9417324071952180
  Basis Set: 6-31G*
  Basis Set:
  Basis Set: 6-31G*
  Basis Set:
  @DF-RHF Final Energy:  -267.94173856330019
    Total Energy =                       -267.9417385633000777
  Basis Set: 6-31G*
  Basis Set:
  Basis Set: 6-31G*
  Basis Set:
  @DF-RHF Final Energy:  -267.94173957358942
    Total Energy =                       -267.9417395735891887
  Basis Set: 6-31G*
  Basis Set:
  Charge       = 0
  Multiplicity = 1
  Basis Set: 6-31G*
  Basis Set:

    Orbital Energies (a.u.)
    -----------------------

    Doubly Occupied:

       1A    -20.566027     2A    -20.558205     3A    -11.276817
       4A    -11.272000     5A    -11.270749     6A     -1.382869
       7A     -1.369127     8A     -1.013308     9A     -0.938828
      10A     -0.828727    11A     -0.714593    12A     -0.675464
      13A     -0.659867    14A     -0.637691    15A     -0.598100
      16A     -0.560767    17A     -0.547915    18A     -0.518424
      19A     -0.482849    20A     -0.437934    21A     -0.409543

  @DF-RHF Final Energy:  -267.94173957973283

   => Energetics <=

    Nuclear Repulsion Energy =            192.8144090111787534
    One-Electron Energy =                -748.0726878747589126
    Two-Electron Energy =                 287.3165392838474759
    DFT Exchange-Correlation Energy =       0.0000000000000000
    Empirical Dispersion Energy =           0.0000000000000000
    PCM Polarization Energy =               0.0000000000000000
    EFP Energy =                            0.0000000000000000
    Total Energy =                       -267.9417395797326549
    Molecular point group: c1
  Basis Set: 6-31G*
  Basis Set:

  -Total Gradient:
     Atom            X                  Y                   Z
    ------   -----------------  -----------------  -----------------
       1       -0.000004109934    -0.000000898435     0.000000260460
       2       -0.000007921867     0.000000513560    -0.000011567424
       3       -0.000006562712     0.000002466428     0.000043882032
       4        0.002726940911    -0.003826772550     0.001569579076
       5        0.000003644770     0.000000711925     0.000003789447
       6       -0.000009943375    -0.000001130855    -0.000009168591
       7        0.001687555840    -0.001792349908     0.005651562490
       8       -0.002835415554     0.003879488261    -0.002979624895
       9       -0.000002739484    -0.000000734762    -0.000002619625
      10       -0.001560041362     0.001741221228    -0.004260242268
      11        0.000007096842     0.000002256992    -0.000002935144
      12        0.000000248849    -0.000011138153    -0.000001356335
      13        0.000001247079     0.000006366272    -0.000001559224

  **** Optimization is complete! (in 10 steps) ****
    Final optimized geometry and variables:
    Molecular point group: c1

    Geometry (in Angstrom), charge = 0, multiplicity = 1:

    H           -2.112303529604    -1.329815302978    -0.884240753853
    O           -2.075178204319    -0.856957624371    -0.064402052009
    C           -1.017026672108     0.063012521610    -0.095104307006
    C            0.316267830611    -0.683699018681    -0.050234863124
    H           -1.069636083129     0.692925228567    -0.980007459588
    H           -1.150972859500     0.696530650158     0.770271969241
    O            1.468542554172     0.107164455479    -0.144991632728
    H            0.333551716138    -1.335648732427    -0.917239178605
    H            0.344870003022    -1.293171151909     0.848652969694
    C            1.446987964719     1.395777677674     0.388730219747
    H            1.187896504605     1.397750942671     1.445596965600
    H            2.447585238193     1.791153462931     0.281926312205
    H            0.761534673757     2.051158703120    -0.139746625602

  Mulliken Charges: (a.u.)
   Center  Symbol    Alpha    Beta     Spin     Total
       1     H     0.28041  0.28041  0.00000  0.43918
       2     O     4.37001  4.37001  0.00000 -0.74001
       3     C     3.01829  3.01829  0.00000 -0.03657
       4     C     2.98850  2.98850  0.00000  0.02300
       5     H     0.42401  0.42401  0.00000  0.15198
       6     H     0.41257  0.41257  0.00000  0.17485
       7     O     4.31210  4.31210  0.00000 -0.62420
       8     H     0.42530  0.42530  0.00000  0.14940
       9     H     0.41960  0.41960  0.00000  0.16080
      10     C     3.08411  3.08411  0.00000 -0.16822
      11     H     0.42810  0.42810  0.00000  0.14380
      12     H     0.40914  0.40914  0.00000  0.18171
      13     H     0.42786  0.42786  0.00000  0.14428

   Total alpha = 21.00000, Total beta = 21.00000, Total charge =  0.00000
