  ==> Input File <==

--------------------------------------------------------------------------
set {
	reference rhf
	basis 6-31G*
}

set_num_threads( 4 )
memory 2 gb

molecule MOL {
0 1

H	 3.022290	 0.969588	 1.744228
O	 3.744891	 0.723356	 1.185399
C	 3.740019	 -0.668059	 0.990470
C	 2.621323	 -1.142089	 0.069307
H	 4.700419	 -0.907195	 0.552154
H	 3.683201	 -1.186623	 1.946839
C	 1.214763	 -0.893714	 0.619550
H	 2.730851	 -0.644261	 -0.890660
H	 2.757154	 -2.207591	 -0.108523
C	 0.115918	 -1.429151	 -0.302766
H	 1.073699	 0.172863	 0.770808
H	 1.120443	 -1.364540	 1.598206
C	 -1.309753	 -1.282496	 0.241564
H	 0.185301	 -0.931790	 -1.268511
H	 0.305657	 -2.483766	 -0.491146
C	 -2.037799	 -0.007733	 -0.193645
H	 -1.890610	 -2.142323	 -0.085726
H	 -1.285946	 -1.330893	 1.329189
C	 -3.489788	 0.042957	 0.286558
H	 -2.017067	 0.064384	 -1.280144
H	 -1.513726	 0.868678	 0.179924
C	 -4.216917	 1.317354	 -0.141063
H	 -4.025645	 -0.823308	 -0.095450
H	 -3.513059	 -0.038752	 1.371301
H	 -4.239342	 1.411634	 -1.223113
H	 -5.243387	 1.322503	 0.212445
H	 -3.726170	 2.201406	 0.256408

	symmetry c1
}
set optking {
	frozen_dihedral = ("
		14 10 13 16
	")
}

ee = optimize('scf')
oeprop('DIPOLE', 'QUADRUPOLE', 'MULLIKEN_CHARGES')
f=open( 'psi4out.xyz', 'w' )
f.write( "27  " )
f.write( str(ee) + "\n" )
f.write( MOL.save_string_xyz() )
f.close()
--------------------------------------------------------------------------

    Molecular point group: c1
  Charge       = 0
  Multiplicity = 1
  Basis Set: 6-31G*
  Basis Set:
  @DF-RHF Final Energy:  -388.27953315283401
    Total Energy =                       -388.2795331528350289
    Molecular point group: c1
  Basis Set: 6-31G*
  Basis Set:
  Basis Set: 6-31G*
  Basis Set:
  @DF-RHF Final Energy:  -388.28011981819361
    Total Energy =                       -388.2801198181938389
  Basis Set: 6-31G*
  Basis Set:
  Basis Set: 6-31G*
  Basis Set:
  @DF-RHF Final Energy:  -388.28015680303145
    Total Energy =                       -388.2801568030314456
  Basis Set: 6-31G*
  Basis Set:
  Basis Set: 6-31G*
  Basis Set:
  @DF-RHF Final Energy:  -388.28016676217908
    Total Energy =                       -388.2801667621789647
  Basis Set: 6-31G*
  Basis Set:
  Basis Set: 6-31G*
  Basis Set:
  @DF-RHF Final Energy:  -388.28017692790002
    Total Energy =                       -388.2801769278997881
  Basis Set: 6-31G*
  Basis Set:
  Charge       = 0
  Multiplicity = 1
  Basis Set: 6-31G*
  Basis Set:

    Orbital Energies (a.u.)
    -----------------------

    Doubly Occupied:

       1A    -20.552250     2A    -11.267052     3A    -11.220201
       4A    -11.217033     5A    -11.215847     6A    -11.215350
       7A    -11.215148     8A    -11.214372     9A    -11.209106
      10A     -1.359022    11A     -1.094685    12A     -1.061769
      13A     -1.011101    14A     -0.949141    15A     -0.884970
      16A     -0.820444    17A     -0.796531    18A     -0.785340
      19A     -0.693951    20A     -0.645653    21A     -0.644003
      22A     -0.613907    23A     -0.600438    24A     -0.583765
      25A     -0.578331    26A     -0.552194    27A     -0.543525
      28A     -0.526295    29A     -0.506648    30A     -0.491032
      31A     -0.484977    32A     -0.475121    33A     -0.470423
      34A     -0.463589    35A     -0.450753    36A     -0.441903
      37A     -0.422014

  @DF-RHF Final Energy:  -388.28017685719755

   => Energetics <=

    Nuclear Repulsion Energy =            457.9855217322067915
    One-Electron Energy =               -1433.9756261459624511
    Two-Electron Energy =                 587.7099275565582275
    DFT Exchange-Correlation Energy =       0.0000000000000000
    Empirical Dispersion Energy =           0.0000000000000000
    PCM Polarization Energy =               0.0000000000000000
    EFP Energy =                            0.0000000000000000
    Total Energy =                       -388.2801768571974890
    Molecular point group: c1
  Basis Set: 6-31G*
  Basis Set:

  -Total Gradient:
     Atom            X                  Y                   Z
    ------   -----------------  -----------------  -----------------
       1       -0.000007666645     0.000007190954     0.000000382256
       2       -0.000009719591     0.000006043057     0.000018988308
       3        0.000008575227     0.000014981654    -0.000041899941
       4        0.000014098162     0.000014261371    -0.000006174341
       5        0.000002984866    -0.000009629011    -0.000001465356
       6       -0.000006925932     0.000000539907    -0.000002318829
       7        0.000016968745     0.000016996167    -0.000036624709
       8        0.000015855705    -0.000007333474    -0.000007529107
       9       -0.000005329526     0.000000875794     0.000011903517
      10       -0.001310572150    -0.003670403127    -0.002397624567
      11        0.000030373068    -0.000013207014     0.000006378913
      12       -0.000032233245    -0.000036036386    -0.000024559070
      13        0.001294917439     0.002148501763     0.002835077913
      14        0.000860388140     0.002596031173     0.001478651882
      15        0.000025649299    -0.000031684202    -0.000025171569
      16       -0.000871524101    -0.001077885504    -0.001827009754
      17       -0.000005521295     0.000008545369     0.000001380502
      18       -0.000003839883     0.000018291616    -0.000019135189
      19        0.000004725273     0.000046444699     0.000031431114
      20        0.000003828115     0.000014182982    -0.000017714355
      21       -0.000020433451    -0.000040747272     0.000028019409
      22       -0.000016403632    -0.000022283316    -0.000021467128
      23        0.000011517087     0.000002808444     0.000011796599
      24        0.000002007102     0.000012611192     0.000010919643
      25        0.000007739944     0.000010865646    -0.000007182677
      26       -0.000004872564    -0.000006427197    -0.000011756252
      27       -0.000004586171    -0.000003535287     0.000012702787

  **** Optimization is complete! (in 6 steps) ****
    Final optimized geometry and variables:
    Molecular point group: c1

    Geometry (in Angstrom), charge = 0, multiplicity = 1:

    H            2.753487666676     1.284276094143     1.526510913088
    O            3.490263047083     1.139994959344     0.950738019053
    C            3.599891208115    -0.229542990747     0.657030109750
    C            2.512850069381    -0.729975096158    -0.287742546034
    H            4.571307787205    -0.354769815492     0.196291631728
    H            3.599036290174    -0.817255764568     1.574287242965
    C            1.097726847198    -0.635863109203     0.286564879988
    H            2.570522596511    -0.161613668992    -1.212367380192
    H            2.732227857850    -1.766639979265    -0.538529603058
    C            0.030162260376    -1.210496715011    -0.650708852386
    H            0.861372832858     0.404886320601     0.498290887755
    H            1.056709092432    -1.164618971185     1.238472686460
    C           -1.403737582031    -1.043058767628    -0.118306150139
    H            0.118527336331    -0.708585032562    -1.611754413688
    H            0.244456401999    -2.261837658894    -0.822797342607
    C           -2.079756626241     0.254835862049    -0.568801540761
    H           -2.013482449380    -1.877469137948    -0.457315861044
    H           -1.399613679524    -1.098394935259     0.968466956858
    C           -3.483987317804     0.437216972081     0.009518627349
    H           -2.134628208358     0.264999996701    -1.655780968808
    H           -1.465223180207     1.108921351228    -0.288304593435
    C           -4.165265090446     1.719574665963    -0.467148422723
    H           -4.098129328433    -0.419273375875    -0.260903919732
    H           -3.428402491410     0.440748445572     1.096115592206
    H           -4.265868962986     1.731311536513    -1.548779791500
    H           -5.159136421302     1.819003398159    -0.041762543354
    H           -3.593409334178     2.597558074107    -0.180092513368

  Mulliken Charges: (a.u.)
   Center  Symbol    Alpha    Beta     Spin     Total
       1     H     0.27990  0.27990  0.00000  0.44020
       2     O     4.37098  4.37098  0.00000 -0.74197
       3     C     2.99731  2.99731  0.00000  0.00537
       4     C     3.16140  3.16140  0.00000 -0.32281
       5     H     0.41444  0.41444  0.00000  0.17111
       6     H     0.43201  0.43201  0.00000  0.13597
       7     C     3.16309  3.16309  0.00000 -0.32617
       8     H     0.41498  0.41498  0.00000  0.17005
       9     H     0.42429  0.42429  0.00000  0.15141
      10     C     3.15344  3.15344  0.00000 -0.30688
      11     H     0.42457  0.42457  0.00000  0.15086
      12     H     0.42476  0.42476  0.00000  0.15047
      13     C     3.15523  3.15523  0.00000 -0.31045
      14     H     0.42035  0.42035  0.00000  0.15929
      15     H     0.42021  0.42021  0.00000  0.15959
      16     C     3.15221  3.15221  0.00000 -0.30443
      17     H     0.42085  0.42085  0.00000  0.15829
      18     H     0.42323  0.42323  0.00000  0.15354
      19     C     3.15162  3.15162  0.00000 -0.30325
      20     H     0.42277  0.42277  0.00000  0.15445
      21     H     0.42400  0.42400  0.00000  0.15200
      22     C     3.23924  3.23924  0.00000 -0.47848
      23     H     0.42302  0.42302  0.00000  0.15396
      24     H     0.42344  0.42344  0.00000  0.15313
      25     H     0.42153  0.42153  0.00000  0.15694
      26     H     0.41931  0.41931  0.00000  0.16138
      27     H     0.42179  0.42179  0.00000  0.15642

   Total alpha = 37.00000, Total beta = 37.00000, Total charge = -0.00000
