  ==> Input File <==

--------------------------------------------------------------------------
set {
	reference rhf
	basis 6-31G*
}

set_num_threads( 1 )
memory 2 gb

molecule MOL {
0 1

H	 -2.586391	 0.503232	 3.717030
C	 -1.812347	 0.467659	 2.971125
C	 -1.641830	 1.533524	 2.100490
C	 -0.988627	 -0.643523	 2.883420
H	 -2.281345	 2.394693	 2.169586
C	 -0.646347	 1.487053	 1.141670
H	 -1.122304	 -1.468806	 3.559175
C	 0.008526	 -0.692242	 1.924417
H	 -0.499891	 2.302565	 0.459642
C	 0.181992	 0.374381	 1.050354
H	 0.648246	 -1.550130	 1.852959
C	 1.239129	 0.373821	 0.000060
O	 1.970282	 -0.730723	 0.000018
O	 1.417107	 1.268792	 -0.765584
C	 3.377318	 -0.566646	 -0.000065
H	 3.695437	 -0.028981	 -0.881264
H	 3.789299	 -1.563704	 0.000236
H	 3.695516	 -0.028316	 0.880770

	symmetry c1
}
set optking {
	frozen_dihedral = ("
		12 13 15 16,
		13 12 10 6
	")
}

ee = energy('scf')
oeprop('DIPOLE', 'QUADRUPOLE', 'MULLIKEN_CHARGES')
f=open( 'psi4out.xyz', 'w' )
f.write( "18  " )
f.write( str(ee) + "\n" )
f.write( MOL.save_string_xyz() )
f.close()
--------------------------------------------------------------------------

    Molecular point group: c1

    Geometry (in Angstrom), charge = 0, multiplicity = 1:

       Center              X                  Y                   Z               Mass
    ------------   -----------------  -----------------  -----------------  -----------------
           H         -2.999284084706     0.229957710100     2.655214113981     1.007825032070
           C         -2.225240084706     0.194384710100     1.909309113981    12.000000000000
           C         -2.054723084706     1.260249710100     1.038674113981    12.000000000000
           C         -1.401520084706    -0.916797289900     1.821604113981    12.000000000000
           H         -2.694238084706     2.121418710100     1.107770113981     1.007825032070
           C         -1.059240084706     1.213778710100     0.079854113981    12.000000000000
           H         -1.535197084706    -1.742080289900     2.497359113981     1.007825032070
           C         -0.404367084706    -0.965516289900     0.862601113981    12.000000000000
           H         -0.912784084706     2.029290710100    -0.602173886019     1.007825032070
           C         -0.230901084706     0.101106710100    -0.011461886019    12.000000000000
           H          0.235352915294    -1.823404289900     0.791143113981     1.007825032070
           C          0.826235915294     0.100546710100    -1.061755886019    12.000000000000
           O          1.557388915294    -1.003997289900    -1.061797886019    15.994914619560
           O          1.004213915294     0.995517710100    -1.827399886019    15.994914619560
           C          2.964424915294    -0.839920289900    -1.061880886019    12.000000000000
           H          3.282543915294    -0.302255289900    -1.943079886019     1.007825032070
           H          3.376405915294    -1.836978289900    -1.061579886019     1.007825032070
           H          3.282622915294    -0.301590289900    -0.181045886019     1.007825032070

  Charge       = 0
  Multiplicity = 1
  Basis Set: 6-31G*
  Basis Set:

    Orbital Energies (a.u.)
    -----------------------

    Doubly Occupied:

       1A    -20.596276     2A    -20.548288     3A    -11.377954
       4A    -11.288012     5A    -11.246845     6A    -11.246130
       7A    -11.244648     8A    -11.242567     9A    -11.238605
      10A    -11.237737    11A     -1.468725    12A     -1.364649
      13A     -1.166145    14A     -1.046791    15A     -1.025917
      16A     -0.979023    17A     -0.864290    18A     -0.835654
      19A     -0.778604    20A     -0.739373    21A     -0.682953
      22A     -0.675888    23A     -0.668759    24A     -0.633814
      25A     -0.624979    26A     -0.601329    27A     -0.594207
      28A     -0.560195    29A     -0.526680    30A     -0.517978
      31A     -0.501675    32A     -0.498059    33A     -0.458149
      34A     -0.442254    35A     -0.346156    36A     -0.342067

  @DF-RHF Final Energy:  -457.33934606817030

   => Energetics <=

    Nuclear Repulsion Energy =            494.1794962732668068
    One-Electron Energy =               -1602.6147385044994280
    Two-Electron Energy =                 651.0958961630615249
    DFT Exchange-Correlation Energy =       0.0000000000000000
    Empirical Dispersion Energy =           0.0000000000000000
    PCM Polarization Energy =               0.0000000000000000
    EFP Energy =                            0.0000000000000000
    Total Energy =                       -457.3393460681711531

  Mulliken Charges: (a.u.)
   Center  Symbol    Alpha    Beta     Spin     Total
       1     H     0.39502  0.39502  0.00000  0.20996
       2     C     3.08964  3.08964  0.00000 -0.17929
       3     C     3.10701  3.10701  0.00000 -0.21402
       4     C     3.10690  3.10690  0.00000 -0.21379
       5     H     0.39517  0.39517  0.00000  0.20966
       6     C     3.08617  3.08617  0.00000 -0.17234
       7     H     0.39616  0.39616  0.00000  0.20768
       8     C     3.08798  3.08798  0.00000 -0.17595
       9     H     0.37590  0.37590  0.00000  0.24820
      10     C     3.07960  3.07960  0.00000 -0.15919
      11     H     0.38205  0.38205  0.00000  0.23591
      12     C     2.58349  2.58349  0.00000  0.83302
      13     O     4.31705  4.31705  0.00000 -0.63410
      14     O     4.27932  4.27932  0.00000 -0.55863
      15     C     3.09589  3.09589  0.00000 -0.19178
      16     H     0.40145  0.40145  0.00000  0.19709
      17     H     0.40579  0.40579  0.00000  0.18843
      18     H     0.41543  0.41543  0.00000  0.16914

   Total alpha = 36.00000, Total beta = 36.00000, Total charge =  0.00000
