  ==> Input File <==

--------------------------------------------------------------------------
set {
	reference rhf
	basis 6-31G*
}

set_num_threads( 4 )
memory 2 gb

molecule MOL {
0 1

H	 3.463771	 0.168298	 -0.756243
C	 2.752674	 -0.045734	 0.033351
C	 1.322923	 0.120767	 -0.479465
H	 2.934561	 -1.059086	 0.377456
H	 2.958358	 0.631174	 0.856809
C	 0.306652	 -0.176050	 0.621399
H	 1.144658	 -0.551717	 -1.312180
H	 1.166477	 1.131798	 -0.836680
N	 -1.068537	 -0.011044	 0.085269
H	 0.372515	 -1.192590	 0.973735
H	 0.391664	 0.520566	 1.441230
O	 -1.183570	 0.482703	 -0.993784
O	 -1.968483	 -0.356413	 0.788719

	symmetry c1
}
set optking {
	frozen_dihedral = ("
		12 9 6 3
	")
}

ee = optimize('scf')
oeprop('DIPOLE', 'QUADRUPOLE', 'MULLIKEN_CHARGES')
f=open( 'psi4out.xyz', 'w' )
f.write( "13  " )
f.write( str(ee) + "\n" )
f.write( MOL.save_string_xyz() )
f.close()
--------------------------------------------------------------------------

    Molecular point group: c1
  Charge       = 0
  Multiplicity = 1
  Basis Set: 6-31G*
  Basis Set:
  @DF-RHF Final Energy:  -321.73322680823264
    Total Energy =                       -321.7332268082327573
    Molecular point group: c1
  Basis Set: 6-31G*
  Basis Set:
  Basis Set: 6-31G*
  Basis Set:
  @DF-RHF Final Energy:  -321.73267800987389
    Total Energy =                       -321.7326780098738936
  Basis Set: 6-31G*
  Basis Set:
  Basis Set: 6-31G*
  Basis Set:
  @DF-RHF Final Energy:  -321.73149316162267
    Total Energy =                       -321.7314931616224953
  Basis Set: 6-31G*
  Basis Set:
  Basis Set: 6-31G*
  Basis Set:
  @DF-RHF Final Energy:  -321.73219538533817
    Total Energy =                       -321.7321953853379455
  Basis Set: 6-31G*
  Basis Set:
  @DF-RHF Final Energy:  -321.73434628331677
    Total Energy =                       -321.7343462833166541
  Basis Set: 6-31G*
  Basis Set:
  @DF-RHF Final Energy:  -321.73498885253036
    Total Energy =                       -321.7349888525300798
  Basis Set: 6-31G*
  Basis Set:
  Basis Set: 6-31G*
  Basis Set:
  @DF-RHF Final Energy:  -321.73500165462372
    Total Energy =                       -321.7350016546237157
  Basis Set: 6-31G*
  Basis Set:
  Basis Set: 6-31G*
  Basis Set:
  @DF-RHF Final Energy:  -321.73500487101848
    Total Energy =                       -321.7350048710183046
  Basis Set: 6-31G*
  Basis Set:
  Charge       = 0
  Multiplicity = 1
  Basis Set: 6-31G*
  Basis Set:

    Orbital Energies (a.u.)
    -----------------------

    Doubly Occupied:

       1A    -20.604425     2A    -20.598202     3A    -15.848938
       4A    -11.301202     5A    -11.249795     6A    -11.237524
       7A     -1.632075     8A     -1.417387     9A     -1.132924
      10A     -1.027295    11A     -0.884791    12A     -0.825497
      13A     -0.760015    14A     -0.749823    15A     -0.725780
      16A     -0.656227    17A     -0.607701    18A     -0.576344
      19A     -0.553723    20A     -0.522856    21A     -0.509982
      22A     -0.485593    23A     -0.472995    24A     -0.448728

  @DF-RHF Final Energy:  -321.73500608783502

   => Energetics <=

    Nuclear Repulsion Energy =            247.0430314968150185
    One-Electron Energy =                -927.8964288072797899
    Two-Electron Energy =                 359.1183912226297821
    DFT Exchange-Correlation Energy =       0.0000000000000000
    Empirical Dispersion Energy =           0.0000000000000000
    PCM Polarization Energy =               0.0000000000000000
    EFP Energy =                            0.0000000000000000
    Total Energy =                       -321.7350060878349609
    Molecular point group: c1
  Basis Set: 6-31G*
  Basis Set:

  -Total Gradient:
     Atom            X                  Y                   Z
    ------   -----------------  -----------------  -----------------
       1       -0.000015289178    -0.000000467455    -0.000004343891
       2       -0.000000223682     0.000000646860     0.000015347337
       3       -0.000007276085     0.000101055423     0.000020018152
       4       -0.000000285482    -0.000002028144    -0.000002450244
       5        0.000000071047     0.000002643209     0.000004428301
       6       -0.000014005215    -0.000212139534    -0.000041732267
       7       -0.000012765184    -0.000005766074    -0.000004445831
       8        0.000000503416     0.000001308048     0.000005900031
       9        0.000017516973     0.000184571608     0.000041745672
      10        0.000002701654     0.000021050764     0.000006457228
      11        0.000023578566     0.000015316278    -0.000001260434
      12       -0.000001094554    -0.000111436603    -0.000022555543
      13        0.000006567728     0.000005245619    -0.000017108509

  **** Optimization is complete! (in 9 steps) ****
    Final optimized geometry and variables:
    Molecular point group: c1

    Geometry (in Angstrom), charge = 0, multiplicity = 1:

    H            3.513020833637     0.151456955049    -0.736284737106
    C            2.776399547497    -0.055103677345     0.031533449482
    C            1.363563213795     0.133646538654    -0.523608370432
    H            2.936735302786    -1.071624727555     0.378004402104
    H            2.970211345006     0.615491014453     0.863420508895
    C            0.328714574232    -0.154097094044     0.549742031145
    H            1.202789918557    -0.527387760549    -1.367148641900
    H            1.236171035221     1.144732752059    -0.888324273440
    N           -1.080162247489    -0.010754638940     0.081056100221
    H            0.388440777677    -1.162045706148     0.933029072035
    H            0.403453678634     0.525178825439     1.388725354666
    O           -1.281893732415     0.475472317609    -0.987171051851
    O           -1.922146635592    -0.388945796976     0.836939992312

  Mulliken Charges: (a.u.)
   Center  Symbol    Alpha    Beta     Spin     Total
       1     H     0.40757  0.40757  0.00000  0.18486
       2     C     3.25018  3.25018  0.00000 -0.50035
       3     C     3.16493  3.16493  0.00000 -0.32986
       4     H     0.41636  0.41636  0.00000  0.16728
       5     H     0.41651  0.41651  0.00000  0.16698
       6     C     3.08862  3.08862  0.00000 -0.17724
       7     H     0.40322  0.40322  0.00000  0.19357
       8     H     0.39972  0.39972  0.00000  0.20055
       9     N     3.22480  3.22480  0.00000  0.55041
      10     H     0.38580  0.38580  0.00000  0.22840
      11     H     0.38532  0.38532  0.00000  0.22936
      12     O     4.22772  4.22772  0.00000 -0.45544
      13     O     4.22926  4.22926  0.00000 -0.45851

   Total alpha = 24.00000, Total beta = 24.00000, Total charge = -0.00000
