  ==> Input File <==

--------------------------------------------------------------------------
set {
	reference rhf
	basis cc-pvtz
}

set_num_threads( 4 )
memory 2 gb

molecule MOL {
0 1

H	 2.726095	 -0.374101	 0.856034
N	 2.326826	 -0.066186	 0.000000
C	 0.934676	 -0.005420	 0.000000
H	 2.775420	 0.755926	 -0.331539
C	 0.226436	 -0.001077	 -1.195129
C	 0.226436	 -0.001077	 1.195129
H	 0.759091	 -0.011439	 -2.128123
C	 -1.153391	 0.009141	 -1.189028
H	 0.759091	 -0.011439	 2.128123
C	 -1.153391	 0.009141	 1.189028
H	 -1.680905	 0.012964	 -2.124348
C	 -1.857876	 0.014675	 0.000000
H	 -1.680905	 0.012964	 2.124348
H	 -2.930222	 0.022904	 0.000000

	symmetry c1
}
set optking {
	frozen_dihedral = ("
		1 2 3 5
	")
}

ee = optimize('scf')
oeprop('DIPOLE', 'QUADRUPOLE', 'MULLIKEN_CHARGES')
f=open( 'psi4out.xyz', 'w' )
f.write( "14  " )
f.write( str(ee) + "\n" )
f.write( MOL.save_string_xyz() )
f.close()
--------------------------------------------------------------------------

    Molecular point group: c1
  Charge       = 0
  Multiplicity = 1
  Basis Set: CC-PVTZ
  Basis Set:
  @DF-RHF Final Energy:  -285.82965623629445
    Total Energy =                       -285.8296562362943405
    Molecular point group: c1
  Basis Set: CC-PVTZ
  Basis Set:
  Basis Set: CC-PVTZ
  Basis Set:
  @DF-RHF Final Energy:  -285.83007431438477
    Total Energy =                       -285.8300743143848308
  Basis Set: CC-PVTZ
  Basis Set:
  Basis Set: CC-PVTZ
  Basis Set:
  @DF-RHF Final Energy:  -285.83011994961862
    Total Energy =                       -285.8301199496188474
  Basis Set: CC-PVTZ
  Basis Set:
  Basis Set: CC-PVTZ
  Basis Set:
  @DF-RHF Final Energy:  -285.83012471605616
    Total Energy =                       -285.8301247160561047
  Basis Set: CC-PVTZ
  Basis Set:
  Basis Set: CC-PVTZ
  Basis Set:
  @DF-RHF Final Energy:  -285.83012663016143
    Total Energy =                       -285.8301266301613168
  Basis Set: CC-PVTZ
  Basis Set:
  Charge       = 0
  Multiplicity = 1
  Basis Set: CC-PVTZ
  Basis Set:

    Orbital Energies (a.u.)
    -----------------------

    Doubly Occupied:

       1A    -15.547393     2A    -11.265113     3A    -11.227284
       4A    -11.226520     5A    -11.219418     6A    -11.217220
       7A    -11.216840     8A     -1.216957     9A     -1.130693
      10A     -1.014150    11A     -0.988725    12A     -0.831071
      13A     -0.812041    14A     -0.706776    15A     -0.681467
      16A     -0.651396    17A     -0.615406    18A     -0.595554
      19A     -0.583630    20A     -0.515403    21A     -0.505420
      22A     -0.491111    23A     -0.431933    24A     -0.335738
      25A     -0.307642

  @DF-RHF Final Energy:  -285.83012712666698

   => Energetics <=

    Nuclear Repulsion Energy =            273.3623636106310641
    One-Electron Energy =                -927.7151752212770361
    Two-Electron Energy =                 368.5226844839789919
    DFT Exchange-Correlation Energy =       0.0000000000000000
    Empirical Dispersion Energy =           0.0000000000000000
    PCM Polarization Energy =               0.0000000000000000
    EFP Energy =                            0.0000000000000000
    Total Energy =                       -285.8301271266669801
    Molecular point group: c1
  Basis Set: CC-PVTZ
  Basis Set:

  -Total Gradient:
     Atom            X                  Y                   Z
    ------   -----------------  -----------------  -----------------
       1       -0.000212455888    -0.004199146157    -0.001417588487
       2        0.000193687474     0.003829811427     0.001907901303
       3        0.000143336791     0.003754595172    -0.000497005405
       4       -0.000004486471    -0.000039392988    -0.000011682677
       5       -0.000249606070    -0.003339377078     0.000028037326
       6        0.000147648499     0.000005443910    -0.000005880849
       7        0.000013493368     0.000006602300     0.000010857591
       8        0.000100194105     0.000006918145    -0.000046796607
       9       -0.000013260964    -0.000008603890    -0.000012076768
      10       -0.000093290849    -0.000030358558    -0.000065896798
      11       -0.000012326983    -0.000004286880     0.000009585895
      12        0.000002174178     0.000008932693     0.000100873250
      13       -0.000012557361     0.000008447292    -0.000003427326
      14       -0.000002549828     0.000000414611     0.000003099555

  **** Optimization is complete! (in 6 steps) ****
    Final optimized geometry and variables:
    Molecular point group: c1

    Geometry (in Angstrom), charge = 0, multiplicity = 1:

    H            2.741298601457    -0.365021031804     0.834799374184
    N            2.337751638233    -0.063350300510    -0.021385688688
    C            0.930673391118     0.003004087052     0.004381422698
    H            2.784842304313     0.754510155783    -0.368403405512
    C            0.228796092361    -0.004066166524    -1.193854004552
    C            0.219946099480    -0.001498244025     1.193872339097
    H            0.774483078888    -0.038727785874    -2.117300943047
    C           -1.150062693152     0.023748098150    -1.196521397072
    H            0.749741742362    -0.002584824443     2.128508025676
    C           -1.163220011259    -0.001235131280     1.185881688058
    H           -1.676404505350     0.026636116749    -2.132321400001
    C           -1.856932954941     0.020790405156    -0.006702991476
    H           -1.696266498223    -0.008481235952     2.117864837290
    H           -2.929656425370     0.028759371542    -0.011896831325

  Mulliken Charges: (a.u.)
   Center  Symbol    Alpha    Beta     Spin     Total
       1     H     0.42060  0.42060  0.00000  0.15881
       2     N     3.69889  3.69889  0.00000 -0.39777
       3     C     2.88364  2.88364  0.00000  0.23271
       4     H     0.41677  0.41677  0.00000  0.16647
       5     C     3.11267  3.11267  0.00000 -0.22534
       6     C     3.11636  3.11636  0.00000 -0.23271
       7     H     0.42379  0.42379  0.00000  0.15243
       8     C     3.06288  3.06288  0.00000 -0.12575
       9     H     0.43150  0.43150  0.00000  0.13700
      10     C     3.06615  3.06615  0.00000 -0.13230
      11     H     0.42408  0.42408  0.00000  0.15184
      12     C     3.09374  3.09374  0.00000 -0.18748
      13     H     0.42437  0.42437  0.00000  0.15126
      14     H     0.42459  0.42459  0.00000  0.15083

   Total alpha = 25.00000, Total beta = 25.00000, Total charge = -0.00000
