                              Psi4 1.0.54 Driver

  ==> Input File <==

--------------------------------------------------------------------------
set {
	reference rhf
	basis cc-pvtz
}

set_num_threads( 4 )
memory 2 gb

molecule MOL {
0 1

H	 -3.162190	 0.493205	 -0.000107
C	 -2.363908	 -0.234727	 0.000005
O	 -1.158738	 0.454634	 -0.000087
H	 -2.464314	 -0.863616	 -0.882153
H	 -2.464327	 -0.863359	 0.882345
C	 -0.028611	 -0.359694	 0.000037
C	 1.212847	 0.509314	 -0.000053
H	 -0.034155	 -1.007047	 -0.877198
H	 -0.034195	 -1.006836	 0.877430
C	 1.506139	 1.105895	 1.371961
H	 2.053168	 -0.088852	 -0.334693
H	 1.081077	 1.299782	 -0.730633
H	 1.665565	 0.330847	 2.114235
H	 2.397011	 1.721151	 1.343211
H	 0.687121	 1.728992	 1.715513

	symmetry c1
}
set optking {
	frozen_dihedral = ("
		11 7 6 8
	")
}

ee,wfn = optimize('scf', return_wfn=True)
oeprop( wfn, 'DIPOLE', 'QUADRUPOLE', 'MULLIKEN_CHARGES')
f=open( 'psi4out.xyz', 'w' )
f.write( "15  " )
f.write( str(ee) + "\n" )
f.write( MOL.save_string_xyz() )
f.close()
--------------------------------------------------------------------------

    Molecular point group: c1
  Charge       = 0
  Multiplicity = 1
  Basis Set: CC-PVTZ
  Basis Set:
  @DF-RHF Final Energy:  -232.22726925298898
    Total Energy =                       -232.2272692529888900
    Molecular point group: c1
  Basis Set: CC-PVTZ
  Basis Set:
  Basis Set: CC-PVTZ
  Basis Set:
  @DF-RHF Final Energy:  -232.22745368821575
    Total Energy =                       -232.2274536882159168
  Basis Set: CC-PVTZ
  Basis Set:
  Basis Set: CC-PVTZ
  Basis Set:
  @DF-RHF Final Energy:  -232.22750059094548
    Total Energy =                       -232.2275005909453967
  Basis Set: CC-PVTZ
  Basis Set:
  Charge       = 0
  Multiplicity = 1
  Basis Set: CC-PVTZ
  Basis Set:

    Orbital Energies (a.u.)
    -----------------------

    Doubly Occupied:

       1A    -20.548513     2A    -11.264640     3A    -11.262316
       4A    -11.213238     5A    -11.203708     6A     -1.382580
       7A     -1.055475     8A     -0.952574     9A     -0.885357
      10A     -0.802330    11A     -0.670258    12A     -0.664861
      13A     -0.634376    14A     -0.588244    15A     -0.573520
      16A     -0.546439    17A     -0.498324    18A     -0.485567
      19A     -0.481168    20A     -0.461180    21A     -0.415691

  @DF-RHF Final Energy:  -232.22750119218273

   => Energetics <=

    Nuclear Repulsion Energy =            192.5039301838145889
    One-Electron Energy =                -696.2821411385633610
    Two-Electron Energy =                 271.5507097625658730
    DFT Exchange-Correlation Energy =       0.0000000000000000
    Empirical Dispersion Energy =           0.0000000000000000
    PCM Polarization Energy =               0.0000000000000000
    EFP Energy =                            0.0000000000000000
    Total Energy =                       -232.2275011921828991
    Molecular point group: c1
  Basis Set: CC-PVTZ
  Basis Set:

  -Total Gradient:
     Atom            X                  Y                   Z
    ------   -----------------  -----------------  -----------------
       1       -0.000031495280    -0.000014957056    -0.000000576088
       2       -0.000041818730     0.000027082253     0.000019128958
       3       -0.000002740654    -0.000026306952     0.000030534465
       4        0.000009573702     0.000003998636     0.000004925898
       5       -0.000005869922    -0.000002139869    -0.000007911689
       6       -0.001763365619     0.002778250808    -0.002534642740
       7        0.000997473407    -0.001509563008     0.003706386712
       8        0.001396298852    -0.002081808964     0.001503394174
       9       -0.000047353607     0.000033915103     0.000000643353
      10       -0.000020451374    -0.000004734754     0.000045126703
      11       -0.000473071518     0.000829077135    -0.002730416544
      12       -0.000019916381    -0.000017542310     0.000003386355
      13        0.000002420954     0.000002474814    -0.000008733855
      14       -0.000010640423    -0.000015843324    -0.000009640143
      15        0.000010956592    -0.000001902514    -0.000021605559

  **** Optimization is complete! (in 4 steps) ****
    Final optimized geometry and variables:
    Molecular point group: c1

    Geometry (in Angstrom), charge = 0, multiplicity = 1:

    H           -2.960601270714     0.211011421177    -0.259816006546
    C           -2.163621077767    -0.518491443863    -0.264105723445
    O           -0.956842625233     0.167561122063    -0.285397203038
    H           -2.276409789810    -1.153966700866    -1.140111468002
    H           -2.253859611716    -1.140276930772     0.624083461112
    C            0.171888829017    -0.649128285082    -0.302732960871
    C            1.422181298516     0.211027572070    -0.265117705256
    H            0.174994551631    -1.281072726187    -1.189852046832
    H            0.155453929430    -1.321423151871     0.556330493676
    C            1.700320130470     0.827765848121     1.100366157877
    H            2.264316269640    -0.389133422299    -0.595793015266
    H            1.304063682108     0.995811233018    -1.005180670693
    H            1.874015720351     0.060465998015     1.847836542027
    H            2.577857747150     1.463016870571     1.068713246060
    H            0.862080688078     1.430163594257     1.427341056095

  Mulliken Charges: (a.u.)
   Center  Symbol    Alpha    Beta     Spin     Total
       1     H     0.44713  0.44713  0.00000  0.10574
       2     C     3.03272  3.03272  0.00000 -0.06543
       3     O     4.17503  4.17503  0.00000 -0.35005
       4     H     0.47140  0.47140  0.00000  0.05720
       5     H     0.47170  0.47170  0.00000  0.05660
       6     C     2.96734  2.96734  0.00000  0.06532
       7     C     3.07987  3.07987  0.00000 -0.15974
       8     H     0.46605  0.46605  0.00000  0.06789
       9     H     0.47635  0.47635  0.00000  0.04730
      10     C     3.15034  3.15034  0.00000 -0.30068
      11     H     0.45474  0.45474  0.00000  0.09053
      12     H     0.45240  0.45240  0.00000  0.09520
      13     H     0.45794  0.45794  0.00000  0.08413
      14     H     0.44997  0.44997  0.00000  0.10006
      15     H     0.44704  0.44704  0.00000  0.10593

   Total alpha = 21.00000, Total beta = 21.00000, Total charge = -0.00000

*** Psi4 exiting successfully. Buy a developer a beer!
