  ==> Input File <==

--------------------------------------------------------------------------
set {
	reference rhf
	basis 6-31G*
}

set_num_threads( 4 )
memory 2 gb

molecule MOL {
0 1

H	 -0.093839	 4.012800	 -2.200457
C	 0.879519	 4.308825	 -1.789892
C	 1.009425	 4.169418	 -0.294465
O	 1.736537	 4.704804	 -2.511330
C	 0.618937	 2.770527	 0.202405
H	 2.025303	 4.422745	 -0.014237
H	 0.345409	 4.907148	 0.154412
C	 1.575623	 1.669079	 -0.261130
H	 0.587189	 2.787545	 1.287756
H	 -0.393263	 2.539921	 -0.126272
C	 1.180775	 0.282413	 0.250794
H	 2.582497	 1.907379	 0.075417
H	 1.618445	 1.650957	 -1.348502
C	 2.148627	 -0.814315	 -0.201312
H	 1.129515	 0.309314	 1.336326
H	 0.177245	 0.041761	 -0.097631
C	 3.580890	 -0.659131	 0.322722
H	 2.166869	 -0.852443	 -1.289387
H	 1.762857	 -1.776509	 0.128956
C	 4.324889	 0.564933	 -0.213704
H	 4.142010	 -1.551473	 0.056605
H	 3.564836	 -0.624694	 1.410140
H	 4.342616	 0.565491	 -1.300421
H	 3.866655	 1.493402	 0.110242
H	 5.353900	 0.572371	 0.132816

	symmetry c1
}
set optking {
	frozen_dihedral = ("
		8 11 14 18
	")
}

ee = optimize('scf')
oeprop('DIPOLE', 'QUADRUPOLE', 'MULLIKEN_CHARGES')
f=open( 'psi4out.xyz', 'w' )
f.write( "25  " )
f.write( str(ee) + "\n" )
f.write( MOL.save_string_xyz() )
f.close()
--------------------------------------------------------------------------

    Molecular point group: c1
  Charge       = 0
  Multiplicity = 1
  Basis Set: 6-31G*
  Basis Set:
  @DF-RHF Final Energy:  -387.09761840323068
    Total Energy =                       -387.0976184032308538
    Molecular point group: c1
  Basis Set: 6-31G*
  Basis Set:
  Basis Set: 6-31G*
  Basis Set:
  @DF-RHF Final Energy:  -387.11224686620005
    Total Energy =                       -387.1122468662002802
  Basis Set: 6-31G*
  Basis Set:
  Basis Set: 6-31G*
  Basis Set:
  @DF-RHF Final Energy:  -387.11571614322406
    Total Energy =                       -387.1157161432247449
  Basis Set: 6-31G*
  Basis Set:
  Basis Set: 6-31G*
  Basis Set:
  @DF-RHF Final Energy:  -387.11642731745422
    Total Energy =                       -387.1164273174542814
  Basis Set: 6-31G*
  Basis Set:
  @DF-RHF Final Energy:  -387.11686166623798
    Total Energy =                       -387.1168616662384920
  @DF-RHF Final Energy:  -387.11721633719577
    Total Energy =                       -387.1172163371959414
  @DF-RHF Final Energy:  -387.11738350386310
    Total Energy =                       -387.1173835038626976
  @DF-RHF Final Energy:  -387.11734710577122
    Total Energy =                       -387.1173471057719553
  @DF-RHF Final Energy:  -387.11738057126496
    Total Energy =                       -387.1173805712653575
  Basis Set: 6-31G*
  Basis Set:
  @DF-RHF Final Energy:  -387.11742574135258
    Total Energy =                       -387.1174257413524629
  Basis Set: 6-31G*
  Basis Set:
  Basis Set: 6-31G*
  Basis Set:
  @DF-RHF Final Energy:  -387.11743275425818
    Total Energy =                       -387.1174327542579476
  Basis Set: 6-31G*
  Basis Set:
  Basis Set: 6-31G*
  Basis Set:
  @DF-RHF Final Energy:  -387.11744007150259
    Total Energy =                       -387.1174400715024149
  Basis Set: 6-31G*
  Basis Set:
  Charge       = 0
  Multiplicity = 1
  Basis Set: 6-31G*
  Basis Set:

    Orbital Energies (a.u.)
    -----------------------

    Doubly Occupied:

       1A    -20.562161     2A    -11.326305     3A    -11.235482
       4A    -11.234816     5A    -11.223672     6A    -11.220769
       7A    -11.217478     8A    -11.216912     9A    -11.208009
      10A     -1.402097    11A     -1.103598    12A     -1.066942
      13A     -1.010841    14A     -0.946436    15A     -0.871734
      16A     -0.823533    17A     -0.788572    18A     -0.779007
      19A     -0.665397    20A     -0.659268    21A     -0.627462
      22A     -0.624236    23A     -0.607881    24A     -0.592444
      25A     -0.570077    26A     -0.556517    27A     -0.532982
      28A     -0.521203    29A     -0.516626    30A     -0.493122
      31A     -0.488243    32A     -0.483204    33A     -0.463767
      34A     -0.449736    35A     -0.441584    36A     -0.409644

  @DF-RHF Final Energy:  -387.11744086062401

   => Energetics <=

    Nuclear Repulsion Energy =            448.9780201539259679
    One-Electron Energy =               -1414.3074102660641529
    Two-Electron Energy =                 578.2119492515146248
    DFT Exchange-Correlation Energy =       0.0000000000000000
    Empirical Dispersion Energy =           0.0000000000000000
    PCM Polarization Energy =               0.0000000000000000
    EFP Energy =                            0.0000000000000000
    Total Energy =                       -387.1174408606235602
    Molecular point group: c1
  Basis Set: 6-31G*
  Basis Set:

  -Total Gradient:
     Atom            X                  Y                   Z
    ------   -----------------  -----------------  -----------------
       1        0.000000670641    -0.000002225103    -0.000002424827
       2       -0.000004920765     0.000002733068     0.000009541269
       3        0.000007657701     0.000005252977     0.000000990433
       4       -0.000003487300     0.000003014888     0.000003588739
       5        0.000003533588     0.000003443581     0.000001421156
       6        0.000005749129     0.000006065387    -0.000001506830
       7        0.000002776541     0.000004119288    -0.000002298647
       8       -0.000132723845    -0.000010467869    -0.000159756636
       9       -0.000000907489     0.000003692303    -0.000002779194
      10        0.000001791587    -0.000008274930    -0.000001977347
      11        0.000144782242     0.000035809978     0.000195340151
      12       -0.000003563083     0.000005389184     0.000008724462
      13        0.000012061275     0.000006709727    -0.000009973080
      14       -0.000198165915    -0.000146329587    -0.000020542979
      15       -0.000001070205    -0.000018535892     0.000006091542
      16        0.000014061929     0.000008647085    -0.000003187209
      17       -0.000008589516    -0.000003197491    -0.000003830326
      18        0.000135858306     0.000138241967     0.000009364799
      19        0.000013225310    -0.000017871915    -0.000010074046
      20        0.000025163090    -0.000049176982    -0.000027757662
      21       -0.000012894526    -0.000006672148     0.000013273058
      22       -0.000008053765     0.000007215663    -0.000009998843
      23        0.000007708184     0.000005790530    -0.000001759081
      24       -0.000005521813     0.000029245633     0.000010222002
      25        0.000004858700    -0.000002619356    -0.000000690898

  **** Optimization is complete! (in 13 steps) ****
    Final optimized geometry and variables:
    Molecular point group: c1

    Geometry (in Angstrom), charge = 0, multiplicity = 1:

    H           -1.947991379953     2.149119869770    -1.782495263463
    C           -1.072350369620     2.499718528841    -1.222051186384
    C           -1.148203049260     2.298584470959     0.270070816717
    O           -0.159013272322     3.000590906947    -1.793755923972
    C           -1.474575820073     0.848011177337     0.652143625933
    H           -0.211329990871     2.624605421275     0.706899555196
    H           -1.935646815818     2.952851311491     0.641984708080
    C           -0.363290782890    -0.143075334971     0.294374026388
    H           -1.663312233048     0.807961791059     1.721103658528
    H           -2.403169478869     0.547629550597     0.169764859970
    C           -0.699041576525    -1.573212694523     0.723603347516
    H            0.558345699650     0.182720434334     0.767847869892
    H           -0.179871387016    -0.120769519391    -0.778414616900
    C            0.298746901024    -2.655784758046     0.290442022149
    H           -0.803684286843    -1.603218813084     1.806957011818
    H           -1.675213894599    -1.835619601220     0.319828321595
    C            1.715248491541    -2.547299899604     0.888912620716
    H            0.364942436239    -2.672543453972    -0.795890233144
    H           -0.126839509736    -3.613692039126     0.577332795883
    C            2.727433590198    -1.798351505079     0.017939436888
    H            2.099295949830    -3.549644345565     1.057637014538
    H            1.661132675538    -2.081808239577     1.870966019094
    H            2.845997834740    -2.291529362330    -0.942678670216
    H            2.429830262573    -0.774152345261    -0.175509573414
    H            3.702067750392    -1.772712960409     0.496121806727

  Mulliken Charges: (a.u.)
   Center  Symbol    Alpha    Beta     Spin     Total
       1     H     0.43254  0.43254  0.00000  0.13492
       2     C     2.83081  2.83081  0.00000  0.33837
       3     C     3.20807  3.20807  0.00000 -0.41614
       4     O     4.23779  4.23779  0.00000 -0.47558
       5     C     3.16631  3.16631  0.00000 -0.33262
       6     H     0.39989  0.39989  0.00000  0.20021
       7     H     0.40666  0.40666  0.00000  0.18667
       8     C     3.15723  3.15723  0.00000 -0.31447
       9     H     0.41281  0.41281  0.00000  0.17439
      10     H     0.41956  0.41956  0.00000  0.16089
      11     C     3.15301  3.15301  0.00000 -0.30603
      12     H     0.41613  0.41613  0.00000  0.16774
      13     H     0.41870  0.41870  0.00000  0.16260
      14     C     3.15518  3.15518  0.00000 -0.31037
      15     H     0.42302  0.42302  0.00000  0.15396
      16     H     0.42279  0.42279  0.00000  0.15442
      17     C     3.15630  3.15630  0.00000 -0.31260
      18     H     0.42162  0.42162  0.00000  0.15677
      19     H     0.41931  0.41931  0.00000  0.16138
      20     C     3.24151  3.24151  0.00000 -0.48302
      21     H     0.41962  0.41962  0.00000  0.16076
      22     H     0.42275  0.42275  0.00000  0.15449
      23     H     0.42112  0.42112  0.00000  0.15776
      24     H     0.41728  0.41728  0.00000  0.16544
      25     H     0.41998  0.41998  0.00000  0.16005

   Total alpha = 36.00000, Total beta = 36.00000, Total charge = -0.00000
