                              Psi4 1.0.54 Driver

  ==> Input File <==

--------------------------------------------------------------------------
set {
	reference rhf
	basis cc-pvtz
}

set_num_threads( 4 )
memory 2 gb

molecule MOL {
0 1

H	 2.646708	 0.758099	 0.000000
O	 2.258158	 -0.097743	 0.000000
C	 0.911162	 -0.015915	 0.000000
C	 0.246402	 -0.396394	 1.154180
C	 0.196374	 0.427440	 -1.096784
H	 0.817139	 -0.737722	 1.995164
C	 -1.129278	 -0.329618	 1.200238
H	 0.712134	 0.722749	 -1.992571
C	 -1.184560	 0.489269	 -1.036284
H	 -1.639109	 -0.625763	 2.097328
C	 -1.856556	 0.112943	 0.107713
H	 -1.731971	 0.834775	 -1.892610
H	 -2.926880	 0.162155	 0.151066

	symmetry c1
}
set optking {
	frozen_dihedral = ("
		4 3 2 1
	")
}

ee,wfn = optimize('scf', return_wfn=True)
oeprop( wfn, 'DIPOLE', 'QUADRUPOLE', 'MULLIKEN_CHARGES')
f=open( 'psi4out.xyz', 'w' )
f.write( "13  " )
f.write( str(ee) + "\n" )
f.write( MOL.save_string_xyz() )
f.close()
--------------------------------------------------------------------------

    Molecular point group: c1
  Charge       = 0
  Multiplicity = 1
  Basis Set: CC-PVTZ
  Basis Set:
  @DF-RHF Final Energy:  -305.66612701069232
    Total Energy =                       -305.6661270106922075
    Molecular point group: c1
  Basis Set: CC-PVTZ
  Basis Set:
  Basis Set: CC-PVTZ
  Basis Set:
  @DF-RHF Final Energy:  -305.66661685088008
    Total Energy =                       -305.6666168508803025
  Basis Set: CC-PVTZ
  Basis Set:
  Basis Set: CC-PVTZ
  Basis Set:
  @DF-RHF Final Energy:  -305.66665901251213
    Total Energy =                       -305.6666590125121274
  Basis Set: CC-PVTZ
  Basis Set:
  Basis Set: CC-PVTZ
  Basis Set:
  @DF-RHF Final Energy:  -305.66666408665458
    Total Energy =                       -305.6666640866544640
  Basis Set: CC-PVTZ
  Basis Set:
  Charge       = 0
  Multiplicity = 1
  Basis Set: CC-PVTZ
  Basis Set:

    Orbital Energies (a.u.)
    -----------------------

    Doubly Occupied:

       1A    -20.572255     2A    -11.289637     3A    -11.233807
       4A    -11.233130     5A    -11.226163     6A    -11.225235
       7A    -11.224383     8A     -1.399422     9A     -1.153308
      10A     -1.022435    11A     -1.008357    12A     -0.840899
      13A     -0.828312    14A     -0.738509    15A     -0.684720
      16A     -0.651799    17A     -0.631291    18A     -0.597243
      19A     -0.592064    20A     -0.528885    21A     -0.517648
      22A     -0.498152    23A     -0.473138    24A     -0.342026
      25A     -0.328037

  @DF-RHF Final Energy:  -305.66666512290732

   => Energetics <=

    Nuclear Repulsion Energy =            273.3583179381925561
    One-Electron Energy =                -956.3682557100178201
    Two-Electron Energy =                 377.3432726489182869
    DFT Exchange-Correlation Energy =       0.0000000000000000
    Empirical Dispersion Energy =           0.0000000000000000
    PCM Polarization Energy =               0.0000000000000000
    EFP Energy =                            0.0000000000000000
    Total Energy =                       -305.6666651229069203
    Molecular point group: c1
  Basis Set: CC-PVTZ
  Basis Set:

  -Total Gradient:
     Atom            X                  Y                   Z
    ------   -----------------  -----------------  -----------------
       1        0.000031280782    -0.000069392655     0.001470496009
       2        0.000141791551     0.000545134071    -0.001590795669
       3       -0.000352094204    -0.001403565397    -0.000442917152
       4        0.000064418918     0.000957184424     0.000508102517
       5        0.000176185744    -0.000022423480     0.000040662387
       6       -0.000012236642     0.000000255788    -0.000018917569
       7        0.000103157969    -0.000008389514     0.000043447508
       8        0.000014403246    -0.000008390459    -0.000005312672
       9       -0.000145225924    -0.000004311497     0.000096842500
      10       -0.000027287950     0.000002878938    -0.000010456932
      11       -0.000000682462     0.000033186708    -0.000130581449
      12        0.000012042949    -0.000010866248     0.000008704987
      13       -0.000005753971    -0.000011300681     0.000030725535

  **** Optimization is complete! (in 5 steps) ****
    Final optimized geometry and variables:
    Molecular point group: c1

    Geometry (in Angstrom), charge = 0, multiplicity = 1:

    H            2.663272032301     0.697054444762    -0.060355952754
    O            2.265193252306    -0.155042424686    -0.086139754517
    C            0.903928964959    -0.049633265512    -0.036941347784
    C            0.238834008087    -0.460306927559     1.101651197767
    C            0.195884840046     0.431256709819    -1.121886909516
    H            0.806486668982    -0.835603941552     1.930481568017
    C           -1.140529837662    -0.391100924595     1.150953174262
    H            0.725467806185     0.732486047760    -2.005468775513
    C           -1.182853816003     0.505611012152    -1.061343761201
    H           -1.655426297505    -0.714214526008     2.035611535759
    C           -1.856704963271     0.094562110900     0.073112121888
    H           -1.730231742795     0.879661076409    -1.905478036740
    H           -2.927280325254     0.148736595681     0.115610088202

  Mulliken Charges: (a.u.)
   Center  Symbol    Alpha    Beta     Spin     Total
       1     H     0.38717  0.38717  0.00000  0.22566
       2     O     4.19137  4.19137  0.00000 -0.38274
       3     C     2.87088  2.87088  0.00000  0.25823
       4     C     3.10781  3.10781  0.00000 -0.21563
       5     C     3.11597  3.11597  0.00000 -0.23193
       6     H     0.41631  0.41631  0.00000  0.16737
       7     C     3.06759  3.06759  0.00000 -0.13518
       8     H     0.41943  0.41943  0.00000  0.16115
       9     C     3.06920  3.06920  0.00000 -0.13839
      10     H     0.42165  0.42165  0.00000  0.15670
      11     C     3.08772  3.08772  0.00000 -0.17543
      12     H     0.42179  0.42179  0.00000  0.15642
      13     H     0.42312  0.42312  0.00000  0.15377

   Total alpha = 25.00000, Total beta = 25.00000, Total charge =  0.00000

*** Psi4 exiting successfully. Buy a developer a beer!
