  ==> Input File <==

--------------------------------------------------------------------------
set {
	reference rhf
	basis 6-31G*
}

set_num_threads( 4 )
memory 2 gb

molecule MOL {
0 1

H	 -0.470820	 2.186197	 -0.859530
C	 0.308325	 1.449068	 -1.059184
N	 0.538815	 0.649616	 0.000000
O	 0.869340	 1.391615	 -2.113305
C	 1.521968	 -0.411503	 0.000000
H	 0.000642	 0.803304	 0.821605
H	 2.150599	 -0.357004	 -0.881901
H	 0.999455	 -1.354525	 0.000000
H	 2.150599	 -0.357004	 0.881901

	symmetry c1
}
set optking {
	frozen_dihedral = ("
		6 3 5 7
	")
}

ee = optimize('scf')
oeprop('DIPOLE', 'QUADRUPOLE', 'MULLIKEN_CHARGES')
f=open( 'psi4out.xyz', 'w' )
f.write( "9  " )
f.write( str(ee) + "\n" )
f.write( MOL.save_string_xyz() )
f.close()
--------------------------------------------------------------------------

    Molecular point group: c1
  Charge       = 0
  Multiplicity = 1
  Basis Set: 6-31G*
  Basis Set:
  @DF-RHF Final Energy:  -207.96030851025228
    Total Energy =                       -207.9603085102523892
    Molecular point group: c1
  Basis Set: 6-31G*
  Basis Set:
  Basis Set: 6-31G*
  Basis Set:
  @DF-RHF Final Energy:  -207.96085779894707
    Total Energy =                       -207.9608577989471883
  Basis Set: 6-31G*
  Basis Set:
  Basis Set: 6-31G*
  Basis Set:
  @DF-RHF Final Energy:  -207.96094566161889
    Total Energy =                       -207.9609456616188936
  Basis Set: 6-31G*
  Basis Set:
  Basis Set: 6-31G*
  Basis Set:
  @DF-RHF Final Energy:  -207.96089225647472
    Total Energy =                       -207.9608922564747502
  Basis Set: 6-31G*
  Basis Set:
  Basis Set: 6-31G*
  Basis Set:
  @DF-RHF Final Energy:  -207.96097804167337
    Total Energy =                       -207.9609780416732860
  Basis Set: 6-31G*
  Basis Set:
  Basis Set: 6-31G*
  Basis Set:
  @DF-RHF Final Energy:  -207.96098265328635
    Total Energy =                       -207.9609826532862655
  Basis Set: 6-31G*
  Basis Set:
  Basis Set: 6-31G*
  Basis Set:
  @DF-RHF Final Energy:  -207.96099446930364
    Total Energy =                       -207.9609944693036141
  Basis Set: 6-31G*
  Basis Set:
  Charge       = 0
  Multiplicity = 1
  Basis Set: 6-31G*
  Basis Set:

    Orbital Energies (a.u.)
    -----------------------

    Doubly Occupied:

       1A    -20.525529     2A    -15.591108     3A    -11.344257
       4A    -11.260265     5A     -1.389035     6A     -1.236612
       7A     -0.968629     8A     -0.807281     9A     -0.746481
      10A     -0.641694    11A     -0.626248    12A     -0.593378
      13A     -0.554401    14A     -0.537128    15A     -0.423812
      16A     -0.390567

  @DF-RHF Final Energy:  -207.96099480908020

   => Energetics <=

    Nuclear Repulsion Energy =            122.4810493752930398
    One-Electron Energy =                -525.6112350000947799
    Two-Electron Energy =                 195.1691908157215494
    DFT Exchange-Correlation Energy =       0.0000000000000000
    Empirical Dispersion Energy =           0.0000000000000000
    PCM Polarization Energy =               0.0000000000000000
    EFP Energy =                            0.0000000000000000
    Total Energy =                       -207.9609948090802050
    Molecular point group: c1
  Basis Set: 6-31G*
  Basis Set:

  -Total Gradient:
     Atom            X                  Y                   Z
    ------   -----------------  -----------------  -----------------
       1       -0.000004578429     0.000003765728     0.000000469315
       2       -0.000010694947    -0.000010863869     0.000038514688
       3        0.000135770236     0.000110042668     0.000044123794
       4        0.000011205308    -0.000011437816     0.000004501975
       5        0.000056621590     0.000062273828     0.000047447651
       6       -0.000109196155    -0.000080048588    -0.000065878436
       7       -0.000073321013    -0.000072308748    -0.000072753288
       8        0.000001713126    -0.000008129776     0.000002713458
       9       -0.000007519716     0.000006706575     0.000000860846

  **** Optimization is complete! (in 8 steps) ****
    Final optimized geometry and variables:
    Molecular point group: c1

    Geometry (in Angstrom), charge = 0, multiplicity = 1:

    H           -1.278457681897     1.438231357769    -0.078274940737
    C           -0.508574159270     0.690384313378    -0.274138252225
    N           -0.248840074816    -0.072778375452     0.805044913029
    O            0.027732214023     0.597996155290    -1.338578980173
    C            0.698608993102    -1.165815122325     0.792350265894
    H           -0.808184014733     0.065638278616     1.615147742401
    H            1.330504970035    -1.057923746253    -0.074722269248
    H            0.198022044690    -2.127335101641     0.741864362286
    H            1.312743270500    -1.137162294486     1.684367231526

  Mulliken Charges: (a.u.)
   Center  Symbol    Alpha    Beta     Spin     Total
       1     H     0.42746  0.42746  0.00000  0.14508
       2     C     2.74499  2.74499  0.00000  0.51003
       3     N     3.87470  3.87470  0.00000 -0.74940
       4     O     4.28428  4.28428  0.00000 -0.56857
       5     C     3.14388  3.14388  0.00000 -0.28775
       6     H     0.30959  0.30959  0.00000  0.38081
       7     H     0.38724  0.38724  0.00000  0.22552
       8     H     0.41378  0.41378  0.00000  0.17245
       9     H     0.41409  0.41409  0.00000  0.17183

   Total alpha = 16.00000, Total beta = 16.00000, Total charge = -0.00000
