                              Psi4 1.0.54 Driver

  ==> Input File <==

--------------------------------------------------------------------------
set {
	reference rhf
	basis cc-pvtz
}

set_num_threads( 4 )
memory 2 gb

molecule MOL {
0 1

O	 1.274724	 1.113071	 -0.744547
C	 0.860843	 0.273204	 -0.013120
C	 -0.623368	 -0.117453	 -0.005652
C	 1.809106	 -0.427132	 0.939954
C	 -0.892588	 -1.253841	 -1.002900
C	 -1.473463	 1.100646	 -0.372896
C	 -0.981836	 -0.579025	 1.418506
H	 -0.609333	 -0.970024	 -2.010649
H	 -1.950451	 -1.487353	 -1.013175
H	 -0.360848	 -2.161259	 -0.746463
H	 -1.232203	 1.461623	 -1.364827
H	 -2.524364	 0.834451	 -0.354500
H	 -1.312381	 1.914833	 0.318657
H	 -2.035706	 -0.826342	 1.468082
H	 -0.425078	 -1.458934	 1.716857
H	 -0.788494	 0.205047	 2.140903
H	 2.060149	 -1.402997	 0.539420
H	 2.712884	 0.156800	 1.021675
H	 1.376719	 -0.578185	 1.919472

	symmetry c1
}
set optking {
	frozen_dihedral = ("
		1 2 3 5
	")
}

ee,wfn = optimize('scf', return_wfn=True)
oeprop( wfn, 'DIPOLE', 'QUADRUPOLE', 'MULLIKEN_CHARGES')
f=open( 'psi4out.xyz', 'w' )
f.write( "19  " )
f.write( str(ee) + "\n" )
f.write( MOL.save_string_xyz() )
f.close()
--------------------------------------------------------------------------

    Molecular point group: c1
  Charge       = 0
  Multiplicity = 1
  Basis Set: CC-PVTZ
  Basis Set:
  @DF-RHF Final Energy:  -309.16946442855476
    Total Energy =                       -309.1694644285552158
    Molecular point group: c1
  Basis Set: CC-PVTZ
  Basis Set:
  Basis Set: CC-PVTZ
  Basis Set:
  @DF-RHF Final Energy:  -309.16885146275115
    Total Energy =                       -309.1688514627512632
  Basis Set: CC-PVTZ
  Basis Set:
  Basis Set: CC-PVTZ
  Basis Set:
  @DF-RHF Final Energy:  -309.17258763156798
    Total Energy =                       -309.1725876315680921
  Basis Set: CC-PVTZ
  Basis Set:
  Basis Set: CC-PVTZ
  Basis Set:
  @DF-RHF Final Energy:  -309.17173042850487
    Total Energy =                       -309.1717304285047589
  Basis Set: CC-PVTZ
  Basis Set:
  @DF-RHF Final Energy:  -309.17357000645120
    Total Energy =                       -309.1735700064510866
  @DF-RHF Final Energy:  -309.17388279048600
    Total Energy =                       -309.1738827904862319
  @DF-RHF Final Energy:  -309.17381945473795
    Total Energy =                       -309.1738194547378384
  @DF-RHF Final Energy:  -309.17384223333795
    Total Energy =                       -309.1738422333377798
  Basis Set: CC-PVTZ
  Basis Set:
  @DF-RHF Final Energy:  -309.17399863248460
    Total Energy =                       -309.1739986324845404
  Basis Set: CC-PVTZ
  Basis Set:
  Basis Set: CC-PVTZ
  Basis Set:
  @DF-RHF Final Energy:  -309.17400673505324
    Total Energy =                       -309.1740067350530694
  Basis Set: CC-PVTZ
  Basis Set:
  Basis Set: CC-PVTZ
  Basis Set:
  @DF-RHF Final Energy:  -309.17401432189075
    Total Energy =                       -309.1740143218906383
  Basis Set: CC-PVTZ
  Basis Set:
  Charge       = 0
  Multiplicity = 1
  Basis Set: CC-PVTZ
  Basis Set:

    Orbital Energies (a.u.)
    -----------------------

    Doubly Occupied:

       1A    -20.537028     2A    -11.318046     3A    -11.245644
       4A    -11.225565     5A    -11.221405     6A    -11.221126
       7A    -11.207593     8A     -1.398347     9A     -1.110420
      10A     -1.003802    11A     -0.946832    12A     -0.936545
      13A     -0.835177    14A     -0.705538    15A     -0.666795
      16A     -0.634146    17A     -0.622643    18A     -0.595594
      19A     -0.590725    20A     -0.568262    21A     -0.547411
      22A     -0.546773    23A     -0.525351    24A     -0.514104
      25A     -0.502856    26A     -0.473262    27A     -0.465942
      28A     -0.394216

  @DF-RHF Final Energy:  -309.17401445848515

   => Energetics <=

    Nuclear Repulsion Energy =            326.9323377677895337
    One-Electron Energy =               -1067.0904032848279712
    Two-Electron Energy =                 430.9840510585531206
    DFT Exchange-Correlation Energy =       0.0000000000000000
    Empirical Dispersion Energy =           0.0000000000000000
    PCM Polarization Energy =               0.0000000000000000
    EFP Energy =                            0.0000000000000000
    Total Energy =                       -309.1740144584853738
    Molecular point group: c1
  Basis Set: CC-PVTZ
  Basis Set:

  -Total Gradient:
     Atom            X                  Y                   Z
    ------   -----------------  -----------------  -----------------
       1        0.000113975663    -0.000708771069    -0.000807557232
       2       -0.000250196300     0.001171160283     0.000913501817
       3        0.000362680326    -0.000951899270     0.000375929154
       4       -0.000022815767    -0.000046788003     0.000010416732
       5       -0.000223762761     0.000514133912    -0.000539120664
       6        0.000003952526     0.000002881250    -0.000028963541
       7        0.000000036852     0.000025342094     0.000018825939
       8        0.000003888782     0.000002955283    -0.000022540075
       9       -0.000015961457     0.000003755960     0.000011427838
      10        0.000016436843    -0.000003142158     0.000009428940
      11        0.000000476606    -0.000004166862     0.000008946564
      12        0.000018320674     0.000007228585    -0.000000347076
      13       -0.000001468530    -0.000006721435     0.000001892637
      14       -0.000006778628    -0.000003762353     0.000006126069
      15        0.000026698342    -0.000008721256     0.000003012142
      16       -0.000009256898    -0.000003247917     0.000020047491
      17       -0.000007426979    -0.000004053076     0.000007247292
      18       -0.000007269738     0.000013632093    -0.000009870582
      19       -0.000001529557     0.000000183936     0.000021596554

  **** Optimization is complete! (in 12 steps) ****
    Final optimized geometry and variables:
    Molecular point group: c1

    Geometry (in Angstrom), charge = 0, multiplicity = 1:

    O            1.078129737483     1.180314557742    -0.922166772504
    C            0.834104849584     0.322408767228    -0.136976893481
    C           -0.608653845555    -0.159872857300     0.078400830851
    C            1.958613995556    -0.347904401813     0.624308682713
    C           -0.838347694874    -1.314319363816    -0.914168247998
    C           -1.576600048654     0.983484155140    -0.240667938519
    C           -0.849207774775    -0.649892976213     1.511868645463
    H           -0.695288985560    -0.979351703208    -1.933617956229
    H           -1.851651217462    -1.686582066589    -0.818005075070
    H           -0.165009810910    -2.144773758445    -0.732673749786
    H           -1.436168472062     1.345319753778    -1.248033601123
    H           -2.599701847978     0.640888489114    -0.134087384222
    H           -1.430121693345     1.819030136360     0.433912061143
    H           -1.884107781281    -0.949891805677     1.624408227684
    H           -0.234111898987    -1.503703419970     1.765809013990
    H           -0.655781408656     0.132745346235     2.237313064605
    H            1.888403662623    -1.426940321472     0.568692069387
    H            2.900667019683    -0.020660730059     0.212656705725
    H            1.912623889847    -0.074015125623     1.671876792180

  Mulliken Charges: (a.u.)
   Center  Symbol    Alpha    Beta     Spin     Total
       1     O     4.17823  4.17823  0.00000 -0.35646
       2     C     2.85010  2.85010  0.00000  0.29979
       3     C     3.00723  3.00723  0.00000 -0.01446
       4     C     3.16451  3.16451  0.00000 -0.32902
       5     C     3.15603  3.15603  0.00000 -0.31205
       6     C     3.15175  3.15175  0.00000 -0.30349
       7     C     3.16495  3.16495  0.00000 -0.32991
       8     H     0.43985  0.43985  0.00000  0.12030
       9     H     0.44667  0.44667  0.00000  0.10666
      10     H     0.44731  0.44731  0.00000  0.10538
      11     H     0.43632  0.43632  0.00000  0.12735
      12     H     0.45167  0.45167  0.00000  0.09665
      13     H     0.44891  0.44891  0.00000  0.10218
      14     H     0.44262  0.44262  0.00000  0.11475
      15     H     0.44566  0.44566  0.00000  0.10868
      16     H     0.44391  0.44391  0.00000  0.11219
      17     H     0.44637  0.44637  0.00000  0.10725
      18     H     0.43178  0.43178  0.00000  0.13644
      19     H     0.44612  0.44612  0.00000  0.10776

   Total alpha = 28.00000, Total beta = 28.00000, Total charge = -0.00000

*** Psi4 exiting successfully. Buy a developer a beer!
