                              Psi4 1.0.54 Driver

  ==> Input File <==

--------------------------------------------------------------------------
set {
	reference rhf
	basis cc-pvtz
}

set_num_threads( 4 )
memory 2 gb

molecule MOL {
0 1

H	 -2.123894	 -0.667238	 -0.609809
O	 -2.041679	 -0.058866	 0.103463
C	 -0.959304	 0.780994	 -0.094939
C	 0.354905	 0.037902	 -0.006215
H	 -0.985899	 1.279578	 -1.057596
H	 -0.969809	 1.529522	 0.682889
F	 1.339451	 0.755030	 -0.518258
F	 0.655829	 -0.210576	 1.251283
F	 0.329073	 -1.106086	 -0.646993

	symmetry c1
}
set optking {
	frozen_dihedral = ("
		7 4 3 5
	")
}

ee,wfn = optimize('scf', return_wfn=True)
oeprop( wfn, 'DIPOLE', 'QUADRUPOLE', 'MULLIKEN_CHARGES')
f=open( 'psi4out.xyz', 'w' )
f.write( "9  " )
f.write( str(ee) + "\n" )
f.write( MOL.save_string_xyz() )
f.close()
--------------------------------------------------------------------------

    Molecular point group: c1
  Charge       = 0
  Multiplicity = 1
  Basis Set: CC-PVTZ
  Basis Set:
  @DF-RHF Final Energy:  -450.84583276331000
    Total Energy =                       -450.8458327633101135
    Molecular point group: c1
  Basis Set: CC-PVTZ
  Basis Set:
  Basis Set: CC-PVTZ
  Basis Set:
  @DF-RHF Final Energy:  -450.84625499121540
    Total Energy =                       -450.8462549912153463
  Basis Set: CC-PVTZ
  Basis Set:
  Basis Set: CC-PVTZ
  Basis Set:
  @DF-RHF Final Energy:  -450.84639315367548
    Total Energy =                       -450.8463931536755354
  Basis Set: CC-PVTZ
  Basis Set:
  Basis Set: CC-PVTZ
  Basis Set:
  @DF-RHF Final Energy:  -450.84640701114603
    Total Energy =                       -450.8464070111459137
  Basis Set: CC-PVTZ
  Basis Set:
  Basis Set: CC-PVTZ
  Basis Set:
  @DF-RHF Final Energy:  -450.84640824377919
    Total Energy =                       -450.8464082437791376
  Basis Set: CC-PVTZ
  Basis Set:
  Charge       = 0
  Multiplicity = 1
  Basis Set: CC-PVTZ
  Basis Set:

    Orbital Energies (a.u.)
    -----------------------

    Doubly Occupied:

       1A    -26.339665     2A    -26.339520     3A    -26.337232
       4A    -20.583949     5A    -11.494620     6A    -11.309921
       7A     -1.748391     8A     -1.644897     9A     -1.643869
      10A     -1.407764    11A     -1.050038    12A     -0.930269
      13A     -0.838363    14A     -0.836379    15A     -0.813678
      16A     -0.730879    17A     -0.718866    18A     -0.704720
      19A     -0.671476    20A     -0.667221    21A     -0.649857
      22A     -0.632553    23A     -0.620504    24A     -0.532652
      25A     -0.484905

  @DF-RHF Final Energy:  -450.84640835517035

   => Energetics <=

    Nuclear Repulsion Energy =            277.6018390367079860
    One-Electron Energy =               -1177.4321226476861284
    Two-Electron Energy =                 448.9838752558077317
    DFT Exchange-Correlation Energy =       0.0000000000000000
    Empirical Dispersion Energy =           0.0000000000000000
    PCM Polarization Energy =               0.0000000000000000
    EFP Energy =                            0.0000000000000000
    Total Energy =                       -450.8464083551703538
    Molecular point group: c1
  Basis Set: CC-PVTZ
  Basis Set:

  -Total Gradient:
     Atom            X                  Y                   Z
    ------   -----------------  -----------------  -----------------
       1       -0.000011521195    -0.000006289743    -0.000001138765
       2        0.000048456288     0.000011394828    -0.000005665488
       3       -0.001977996231    -0.003841421741    -0.002571570654
       4        0.000873024833     0.002165483962     0.003853752846
       5        0.001485805018     0.002877098580     0.001446074633
       6        0.000002127849    -0.000002030159    -0.000002324617
       7       -0.000436713840    -0.001198443578    -0.002650771979
       8        0.000014692432     0.000032051960    -0.000041131055
       9        0.000002124835    -0.000037844115    -0.000027224921

  **** Optimization is complete! (in 6 steps) ****
    Final optimized geometry and variables:
    Molecular point group: c1

    Geometry (in Angstrom), charge = 0, multiplicity = 1:

    H           -2.106617591920    -0.697052601252    -0.580250512159
    O           -2.048488134106    -0.045036513818     0.095787833799
    C           -0.960387060729     0.780396976427    -0.116883317330
    C            0.356360644722     0.038242262879    -0.002756507975
    H           -0.972923056211     1.279566935332    -1.079442416483
    H           -0.970255844814     1.542867367977     0.648130935768
    F            1.337195005617     0.764211806850    -0.497952254640
    F            0.661930524607    -0.265592108419     1.235895372750
    F            0.321869321647    -1.090528840891    -0.689358130862

  Mulliken Charges: (a.u.)
   Center  Symbol    Alpha    Beta     Spin     Total
       1     H     0.38561  0.38561  0.00000  0.22878
       2     O     4.19160  4.19160  0.00000 -0.38321
       3     C     2.99245  2.99245  0.00000  0.01510
       4     C     2.68215  2.68215  0.00000  0.63570
       5     H     0.46259  0.46259  0.00000  0.07482
       6     H     0.44883  0.44883  0.00000  0.10234
       7     F     4.61175  4.61175  0.00000 -0.22350
       8     F     4.60744  4.60744  0.00000 -0.21488
       9     F     4.61758  4.61758  0.00000 -0.23515

   Total alpha = 25.00000, Total beta = 25.00000, Total charge =  0.00000

*** Psi4 exiting successfully. Buy a developer a beer!
