  ==> Input File <==

--------------------------------------------------------------------------
set {
	reference rhf
	basis cc-pvtz
}

set_num_threads( 4 )
memory 2 gb

molecule MOL {
0 1

H	 -0.366580	 2.045936	 -0.305741
C	 0.351829	 1.335402	 0.083179
N	 -0.000018	 0.000080	 -0.334836
H	 1.327156	 1.599860	 -0.305475
H	 0.380566	 1.445403	 1.171445
C	 -1.424639	 -0.154432	 -0.505016
C	 0.731385	 -0.408270	 -1.509800
H	 -1.658296	 -1.182815	 -0.749813
H	 -1.936204	 0.094114	 0.416240
H	 -1.828482	 0.481947	 -1.298112
H	 1.796000	 -0.345473	 -1.323157
H	 0.495254	 -1.436318	 -1.753692
H	 0.505177	 0.207436	 -2.385498

	symmetry c1
}
set optking {
	frozen_dihedral = ("
		6 3 2 1
	")
}

ee = optimize('scf')
oeprop('DIPOLE', 'QUADRUPOLE', 'MULLIKEN_CHARGES')
f=open( 'psi4out.xyz', 'w' )
f.write( "13  " )
f.write( str(ee) + "\n" )
f.write( MOL.save_string_xyz() )
f.close()
--------------------------------------------------------------------------

    Molecular point group: c1
  Charge       = 0
  Multiplicity = 1
  Basis Set: CC-PVTZ
  Basis Set:
  @DF-RHF Final Energy:  -173.32941854360396
    Total Energy =                       -173.3294185436039072
    Molecular point group: c1
  Basis Set: CC-PVTZ
  Basis Set:
  Basis Set: CC-PVTZ
  Basis Set:
  @DF-RHF Final Energy:  -173.33016048121837
    Total Energy =                       -173.3301604812183143
  Basis Set: CC-PVTZ
  Basis Set:
  Basis Set: CC-PVTZ
  Basis Set:
  @DF-RHF Final Energy:  -173.33024856960213
    Total Energy =                       -173.3302485696021620
  Basis Set: CC-PVTZ
  Basis Set:
  Basis Set: CC-PVTZ
  Basis Set:
  @DF-RHF Final Energy:  -173.33025238595241
    Total Energy =                       -173.3302523859525195
  Basis Set: CC-PVTZ
  Basis Set:
  Charge       = 0
  Multiplicity = 1
  Basis Set: CC-PVTZ
  Basis Set:

    Orbital Energies (a.u.)
    -----------------------

    Doubly Occupied:

       1A    -15.538785     2A    -11.234103     3A    -11.233989
       4A    -11.233922     5A     -1.224349     6A     -0.952016
       7A     -0.950845     8A     -0.807848     9A     -0.640872
      10A     -0.631037    11A     -0.628590    12A     -0.549289
      13A     -0.543741    14A     -0.516208    15A     -0.500902
      16A     -0.499541    17A     -0.348257

  @DF-RHF Final Energy:  -173.33025273367846

   => Energetics <=

    Nuclear Repulsion Energy =            139.2708732314860924
    One-Electron Energy =                -509.1336622548100195
    Two-Electron Energy =                 196.5325362896455204
    DFT Exchange-Correlation Energy =       0.0000000000000000
    Empirical Dispersion Energy =           0.0000000000000000
    PCM Polarization Energy =               0.0000000000000000
    EFP Energy =                            0.0000000000000000
    Total Energy =                       -173.3302527336783783
    Molecular point group: c1
  Basis Set: CC-PVTZ
  Basis Set:

  -Total Gradient:
     Atom            X                  Y                   Z
    ------   -----------------  -----------------  -----------------
       1       -0.002958726759    -0.000574713080     0.004380301751
       2        0.003935465109     0.001146065607    -0.007061556271
       3       -0.001302169229    -0.001647864575     0.006431830677
       4       -0.000017562781    -0.000022550262    -0.000003386336
       5       -0.000005529080     0.000003672111     0.000016650387
       6        0.000363647309     0.001088876406    -0.003790237481
       7       -0.000003300297     0.000012073780     0.000063822156
       8       -0.000005823709    -0.000006271536    -0.000001635400
       9       -0.000020056198    -0.000001607315     0.000001241554
      10        0.000004732131     0.000005181895    -0.000008165527
      11        0.000011724803    -0.000002781128    -0.000017167008
      12        0.000002114750    -0.000004479802    -0.000006899136
      13       -0.000004516050     0.000004397901    -0.000004799366

  **** Optimization is complete! (in 5 steps) ****
    Final optimized geometry and variables:
    Molecular point group: c1

    Geometry (in Angstrom), charge = 0, multiplicity = 1:

    H           -0.265808877674     1.884641930008     0.289020676668
    C            0.439732318479     1.142612276539     0.664204154459
    N            0.099678989905    -0.206984135709     0.251791614847
    H            1.435201846134     1.406747011730     0.336359466458
    H            0.417379959426     1.218065988287     1.746637397508
    C           -1.324949179361    -0.369494856228     0.083296988954
    C            0.812338998496    -0.618660850490    -0.936800233517
    H           -1.559466916517    -1.405325307108    -0.127369172666
    H           -1.840797250499    -0.092060276482     0.994724730437
    H           -1.724905229920     0.243390819456    -0.729556027944
    H            1.879986275337    -0.570922674172    -0.765969802101
    H            0.561101131549    -1.644267211668    -1.176958064893
    H            0.580078484298    -0.003448114444    -1.811418258937

  Mulliken Charges: (a.u.)
   Center  Symbol    Alpha    Beta     Spin     Total
       1     H     0.46946  0.46946  0.00000  0.06108
       2     C     3.08820  3.08820  0.00000 -0.17640
       3     N     3.59848  3.59848  0.00000 -0.19696
       4     H     0.45540  0.45540  0.00000  0.08921
       5     H     0.45075  0.45075  0.00000  0.09850
       6     C     3.09112  3.09112  0.00000 -0.18224
       7     C     3.08918  3.08918  0.00000 -0.17836
       8     H     0.45298  0.45298  0.00000  0.09404
       9     H     0.45212  0.45212  0.00000  0.09577
      10     H     0.47297  0.47297  0.00000  0.05407
      11     H     0.45229  0.45229  0.00000  0.09541
      12     H     0.45310  0.45310  0.00000  0.09381
      13     H     0.47396  0.47396  0.00000  0.05208

   Total alpha = 17.00000, Total beta = 17.00000, Total charge =  0.00000
