                              Psi4 1.0.54 Driver

  ==> Input File <==

--------------------------------------------------------------------------
set {
	reference rhf
	basis cc-pvtz
}

set_num_threads( 4 )
memory 2 gb

molecule MOL {
0 1

H	 -2.266619	 1.169943	 0.000098
O	 -1.438073	 1.611259	 0.000041
C	 -0.408657	 0.734701	 0.000005
C	 -0.545678	 -0.389572	 0.792877
C	 0.739395	 0.940456	 -0.756139
H	 -1.446661	 -0.512038	 1.361351
C	 0.465332	 -1.325795	 0.840952
C	 1.738955	 -0.016540	 -0.688562
C	 0.887383	 2.167856	 -1.620888
H	 0.351944	 -2.196128	 1.458726
C	 1.616149	 -1.144027	 0.098652
H	 2.632534	 0.127869	 -1.267034
H	 0.843284	 3.081573	 -1.034803
H	 1.838303	 2.160892	 -2.133864
H	 0.111590	 2.222400	 -2.379502
H	 2.406755	 -1.868085	 0.131101

	symmetry c1
}
set optking {
	frozen_dihedral = ("
		4 3 2 1
	")
}

ee,wfn = optimize('scf', return_wfn=True)
oeprop( wfn, 'DIPOLE', 'QUADRUPOLE', 'MULLIKEN_CHARGES')
f=open( 'psi4out.xyz', 'w' )
f.write( "16  " )
f.write( str(ee) + "\n" )
f.write( MOL.save_string_xyz() )
f.close()
--------------------------------------------------------------------------

    Molecular point group: c1
  Charge       = 0
  Multiplicity = 1
  Basis Set: CC-PVTZ
  Basis Set:
  @DF-RHF Final Energy:  -344.71651903643016
    Total Energy =                       -344.7165190364300997
    Molecular point group: c1
  Basis Set: CC-PVTZ
  Basis Set:
  Basis Set: CC-PVTZ
  Basis Set:
  @DF-RHF Final Energy:  -344.71838943830903
    Total Energy =                       -344.7183894383091456
  Basis Set: CC-PVTZ
  Basis Set:
  Basis Set: CC-PVTZ
  Basis Set:
  @DF-RHF Final Energy:  -344.71853098913630
    Total Energy =                       -344.7185309891362408
  Basis Set: CC-PVTZ
  Basis Set:
  Basis Set: CC-PVTZ
  Basis Set:
  @DF-RHF Final Energy:  -344.71854191711992
    Total Energy =                       -344.7185419171198646
  Basis Set: CC-PVTZ
  Basis Set:
  Basis Set: CC-PVTZ
  Basis Set:
  @DF-RHF Final Energy:  -344.71854499259376
    Total Energy =                       -344.7185449925934790
  Basis Set: CC-PVTZ
  Basis Set:
  Charge       = 0
  Multiplicity = 1
  Basis Set: CC-PVTZ
  Basis Set:

    Orbital Energies (a.u.)
    -----------------------

    Doubly Occupied:

       1A    -20.577765     2A    -11.288021     3A    -11.230064
       4A    -11.228360     5A    -11.225813     6A    -11.223679
       7A    -11.219075     8A    -11.213501     9A     -1.406389
      10A     -1.153044    11A     -1.047346    12A     -1.006416
      13A     -0.932396    14A     -0.843803    15A     -0.803298
      16A     -0.734149    17A     -0.673469    18A     -0.655474
      19A     -0.618455    20A     -0.596849    21A     -0.575895
      22A     -0.562879    23A     -0.543992    24A     -0.537045
      25A     -0.502299    26A     -0.485660    27A     -0.473883
      28A     -0.333448    29A     -0.313370

  @DF-RHF Final Energy:  -344.71854510112803

   => Energetics <=

    Nuclear Repulsion Energy =            350.7717775410543481
    One-Electron Energy =               -1162.9689673512766603
    Two-Electron Energy =                 467.4786447090940555
    DFT Exchange-Correlation Energy =       0.0000000000000000
    Empirical Dispersion Energy =           0.0000000000000000
    PCM Polarization Energy =               0.0000000000000000
    EFP Energy =                            0.0000000000000000
    Total Energy =                       -344.7185451011282566
    Molecular point group: c1
  Basis Set: CC-PVTZ
  Basis Set:

  -Total Gradient:
     Atom            X                  Y                   Z
    ------   -----------------  -----------------  -----------------
       1        0.000014920574    -0.000101453443    -0.002592767624
       2        0.000439849619     0.000624269354     0.004012729984
       3       -0.001343667302    -0.001491015300    -0.002863365025
       4        0.000851270815     0.000973908625     0.001464279866
       5        0.000005129471    -0.000028010046    -0.000023683186
       6       -0.000001628383    -0.000001566099    -0.000001277727
       7       -0.000002703771    -0.000005053342     0.000004207336
       8        0.000020756026     0.000028046978     0.000030904449
       9        0.000018167375     0.000003293128     0.000002790351
      10        0.000004018122     0.000003429609    -0.000000906706
      11       -0.000003019512     0.000002780061    -0.000031143672
      12        0.000000909590    -0.000000084384    -0.000005445353
      13       -0.000002475794    -0.000002859015    -0.000000767511
      14        0.000000482906     0.000001575353     0.000000636772
      15       -0.000001586277    -0.000005120481     0.000001318329
      16       -0.000000423456    -0.000002140996     0.000002489719

  **** Optimization is complete! (in 6 steps) ****
    Final optimized geometry and variables:
    Molecular point group: c1

    Geometry (in Angstrom), charge = 0, multiplicity = 1:

    H           -2.574401051595     0.883048120511     0.150051095421
    O           -1.720901504777     1.276839298105     0.137957276151
    C           -0.749645276091     0.325615323368     0.178962782565
    C           -0.876479970442    -0.789589840043     0.982029246775
    C            0.402258377285     0.545610483075    -0.567891528016
    H           -1.767172729568    -0.919599610984     1.568860810617
    C            0.139249261954    -1.726522572922     1.032440335332
    C            1.408560873957    -0.399977923847    -0.490242035885
    C            0.533652274801     1.778586693443    -1.423076664933
    H            0.031227534584    -2.595070280003     1.653471360640
    C            1.287402657419    -1.532994967632     0.295667342077
    H            2.305650384910    -0.249397002884    -1.061379154244
    H            0.476491080120     2.678826381397    -0.823295510732
    H            1.479393613475     1.778667021884    -1.948050168926
    H           -0.263549143817     1.833224106680    -2.154352736687
    H            2.084189939226    -2.250431937863     0.331273556342

  Mulliken Charges: (a.u.)
   Center  Symbol    Alpha    Beta     Spin     Total
       1     H     0.38519  0.38519  0.00000  0.22962
       2     O     4.18272  4.18272  0.00000 -0.36543
       3     C     2.87504  2.87504  0.00000  0.24992
       4     C     3.12523  3.12523  0.00000 -0.25046
       5     C     2.99425  2.99425  0.00000  0.01150
       6     H     0.42965  0.42965  0.00000  0.14069
       7     C     3.07382  3.07382  0.00000 -0.14763
       8     C     3.08653  3.08653  0.00000 -0.17306
       9     C     3.14018  3.14018  0.00000 -0.28036
      10     H     0.42257  0.42257  0.00000  0.15485
      11     C     3.08619  3.08619  0.00000 -0.17238
      12     H     0.42490  0.42490  0.00000  0.15020
      13     H     0.44580  0.44580  0.00000  0.10840
      14     H     0.45402  0.45402  0.00000  0.09195
      15     H     0.44929  0.44929  0.00000  0.10143
      16     H     0.42462  0.42462  0.00000  0.15076

   Total alpha = 29.00000, Total beta = 29.00000, Total charge = -0.00000

*** Psi4 exiting successfully. Buy a developer a beer!
