  ==> Input File <==

--------------------------------------------------------------------------
set {
	reference rhf
	basis cc-pvtz
}

set_num_threads( 4 )
memory 2 gb

molecule MOL {
0 1

O	 3.219313	 0.959291	 -0.614106
C	 2.698710	 0.058177	 -0.050237
C	 1.246364	 -0.005813	 0.348416
O	 3.344101	 -1.038700	 0.312317
C	 0.453207	 1.232821	 -0.049003
H	 0.839270	 -0.907818	 -0.092281
H	 1.216683	 -0.160521	 1.422434
C	 -0.998367	 1.217982	 0.432195
H	 0.481498	 1.345443	 -1.127236
H	 0.951413	 2.105557	 0.354893
C	 -1.882951	 0.151251	 -0.211235
H	 -1.429490	 2.193659	 0.228843
H	 -1.019755	 1.099323	 1.513279
C	 -3.342450	 0.243269	 0.226009
H	 -1.826223	 0.246578	 -1.293162
H	 -1.508033	 -0.839650	 0.027695
C	 -4.234517	 -0.821434	 -0.405970
H	 -3.730149	 1.228245	 -0.022691
H	 -3.398860	 0.159952	 1.308941
C	 -4.472909	 -2.021618	 0.504253
H	 -5.189516	 -0.376938	 -0.672654
H	 -3.786240	 -1.159330	 -1.336417
H	 -5.108897	 -2.757617	 0.025914
H	 -4.952987	 -1.721530	 1.429769
H	 -3.538534	 -2.509429	 0.761530
C	 4.720529	 -1.114346	 0.001449
H	 4.874321	 -1.055557	 -1.065852
H	 5.057824	 -2.067950	 0.373977
H	 5.264321	 -0.313596	 0.480350

	symmetry c1
}
set optking {
	frozen_dihedral = ("
		21 17 14 11
	")
}

ee = optimize('scf')
oeprop('DIPOLE', 'QUADRUPOLE', 'MULLIKEN_CHARGES')
f=open( 'psi4out.xyz', 'w' )
f.write( "29  " )
f.write( str(ee) + "\n" )
f.write( MOL.save_string_xyz() )
f.close()
--------------------------------------------------------------------------

    Molecular point group: c1
  Charge       = 0
  Multiplicity = 1
  Basis Set: CC-PVTZ
  Basis Set:
  @DF-RHF Final Energy:  -501.22054670575130
    Total Energy =                       -501.2205467057506212
    Molecular point group: c1
  Basis Set: CC-PVTZ
  Basis Set:
  Basis Set: CC-PVTZ
  Basis Set:
  @DF-RHF Final Energy:  -501.22081767263808
    Total Energy =                       -501.2208176726383044
  Basis Set: CC-PVTZ
  Basis Set:
  Basis Set: CC-PVTZ
  Basis Set:
  @DF-RHF Final Energy:  -501.22086159660012
    Total Energy =                       -501.2208615966001162
  Basis Set: CC-PVTZ
  Basis Set:
  Basis Set: CC-PVTZ
  Basis Set:
  @DF-RHF Final Energy:  -501.22066390892996
    Total Energy =                       -501.2206639089299642
  Basis Set: CC-PVTZ
  Basis Set:
  Basis Set: CC-PVTZ
  Basis Set:
  @DF-RHF Final Energy:  -501.22087391348236
    Total Energy =                       -501.2208739134827056
  Basis Set: CC-PVTZ
  Basis Set:
  Charge       = 0
  Multiplicity = 1
  Basis Set: CC-PVTZ
  Basis Set:

    Orbital Energies (a.u.)
    -----------------------

    Doubly Occupied:

       1A    -20.596032     2A    -20.533879     3A    -11.364294
       4A    -11.278275     5A    -11.233007     6A    -11.217098
       7A    -11.215424     8A    -11.214035     9A    -11.213727
      10A    -11.212197    11A    -11.208002    12A     -1.471925
      13A     -1.365513    14A     -1.099048    15A     -1.066925
      16A     -1.019734    17A     -0.977558    18A     -0.928986
      19A     -0.865992    20A     -0.801832    21A     -0.787479
      22A     -0.765904    23A     -0.702997    24A     -0.685529
      25A     -0.676017    26A     -0.644715    27A     -0.627968
      28A     -0.609691    29A     -0.597138    30A     -0.587802
      31A     -0.562233    32A     -0.554565    33A     -0.533957
      34A     -0.528927    35A     -0.520643    36A     -0.509421
      37A     -0.499138    38A     -0.475293    39A     -0.475049
      40A     -0.463876    41A     -0.459610    42A     -0.451876
      43A     -0.443547    44A     -0.437203

  @DF-RHF Final Energy:  -501.22087427683039

   => Energetics <=

    Nuclear Repulsion Energy =            615.5354626847223471
    One-Electron Energy =               -1902.5445474772002399
    Two-Electron Energy =                 785.7882105156477337
    DFT Exchange-Correlation Energy =       0.0000000000000000
    Empirical Dispersion Energy =           0.0000000000000000
    PCM Polarization Energy =               0.0000000000000000
    EFP Energy =                            0.0000000000000000
    Total Energy =                       -501.2208742768302727
    Molecular point group: c1
  Basis Set: CC-PVTZ
  Basis Set:

  -Total Gradient:
     Atom            X                  Y                   Z
    ------   -----------------  -----------------  -----------------
       1       -0.000000784350     0.000007016191     0.000008089838
       2       -0.000002827975    -0.000005644111    -0.000016588686
       3        0.000005225955     0.000002326065     0.000003936318
       4       -0.000000148213    -0.000000014392     0.000007386139
       5        0.000001134724    -0.000012638284     0.000007716915
       6       -0.000003583877     0.000003846685    -0.000002498158
       7       -0.000002103932    -0.000002456071     0.000004312472
       8        0.000009274424    -0.000003369768     0.000026081730
       9       -0.000009316979    -0.000006308383     0.000006784750
      10        0.000002656574     0.000008771748     0.000000190303
      11       -0.000476276805     0.001442860743    -0.001979532967
      12        0.000017396637     0.000005111821    -0.000004474244
      13        0.000000345207     0.000011436116     0.000002927740
      14        0.000936177460    -0.001864764054     0.001974922693
      15       -0.000020295544    -0.000002068760    -0.000014888589
      16        0.000009508910     0.000000896598    -0.000003170568
      17       -0.001712457793    -0.000281196269     0.003030416224
      18       -0.000002043163    -0.000009008606    -0.000008433226
      19       -0.000007203336    -0.000000453584     0.000004588169
      20       -0.000005271805    -0.000010397452     0.000026666662
      21        0.001250851361     0.000688035998    -0.003050803569
      22        0.000009231878     0.000008183616    -0.000004504816
      23        0.000000818229     0.000008710169    -0.000012666774
      24        0.000002945061     0.000001815178    -0.000000337806
      25       -0.000001422590     0.000008548540    -0.000005618956
      26       -0.000001856501     0.000000307764    -0.000001495272
      27        0.000000346921     0.000000041938     0.000000278185
      28       -0.000000277839     0.000000037025     0.000000446440
      29       -0.000000042645     0.000000373536     0.000000269048

  **** Optimization is complete! (in 6 steps) ****
    Final optimized geometry and variables:
    Molecular point group: c1

    Geometry (in Angstrom), charge = 0, multiplicity = 1:

    O            3.106079297859     1.088388018606    -0.644671847983
    C            2.583127542025     0.180421896478    -0.094122961263
    C            1.129904729808     0.113029057633     0.300873956957
    O            3.226331188614    -0.922281485717     0.254365508827
    C            0.339397193708     1.358524961707    -0.080063405500
    H            0.722148252626    -0.781773070357    -0.153755416557
    H            1.097820480040    -0.057329905727     1.372449884673
    C           -1.112905329385     1.339033368367     0.398819542777
    H            0.369381918557     1.486334226856    -1.156550573088
    H            0.838381731350     2.224705919922     0.336810448491
    C           -1.998388758498     0.283753367763    -0.261312162673
    H           -1.542263750265     2.318398840663     0.209120210913
    H           -1.136176040159     1.204811009433     1.478001271408
    C           -3.463525566912     0.385599502482     0.160542436350
    H           -1.935887286980     0.388927040393    -1.341562971394
    H           -1.628888602447    -0.711342961049    -0.029912673573
    C           -4.357340559304    -0.708416420221    -0.446621984917
    H           -3.833732545273     1.362017874384    -0.136868225068
    H           -3.534825881113     0.356335655919     1.244397853692
    C           -4.579368973043    -1.904003232643     0.474168075985
    H           -5.312277712843    -0.284140938332    -0.737463738764
    H           -3.908934106538    -1.055081664836    -1.373706292091
    H           -5.172015729724    -2.670607222115    -0.011974163086
    H           -5.098566238616    -1.607292247285     1.379180812391
    H           -3.636894042097    -2.354107590479     0.768629159464
    C            4.603202038845    -0.995601015695    -0.055156376850
    H            4.758923126135    -0.922259250972    -1.121279081695
    H            4.938577599278    -1.954736334663     0.304705976061
    H            5.147278272190    -0.202311704564     0.435697765168

  Mulliken Charges: (a.u.)
   Center  Symbol    Alpha    Beta     Spin     Total
       1     O     4.19697  4.19697  0.00000 -0.39394
       2     C     2.80481  2.80481  0.00000  0.39038
       3     C     3.10178  3.10178  0.00000 -0.20356
       4     O     4.14721  4.14721  0.00000 -0.29442
       5     C     3.09231  3.09231  0.00000 -0.18462
       6     H     0.43933  0.43933  0.00000  0.12133
       7     H     0.43985  0.43985  0.00000  0.12029
       8     C     3.10459  3.10459  0.00000 -0.20919
       9     H     0.44626  0.44626  0.00000  0.10748
      10     H     0.43955  0.43955  0.00000  0.12090
      11     C     3.09281  3.09281  0.00000 -0.18562
      12     H     0.44536  0.44536  0.00000  0.10927
      13     H     0.45323  0.45323  0.00000  0.09354
      14     C     3.09507  3.09507  0.00000 -0.19013
      15     H     0.45225  0.45225  0.00000  0.09551
      16     H     0.45328  0.45328  0.00000  0.09343
      17     C     3.09132  3.09132  0.00000 -0.18264
      18     H     0.44740  0.44740  0.00000  0.10520
      19     H     0.45504  0.45504  0.00000  0.08992
      20     C     3.14714  3.14714  0.00000 -0.29429
      21     H     0.44754  0.44754  0.00000  0.10491
      22     H     0.45561  0.45561  0.00000  0.08879
      23     H     0.44861  0.44861  0.00000  0.10278
      24     H     0.45474  0.45474  0.00000  0.09052
      25     H     0.45594  0.45594  0.00000  0.08811
      26     C     3.03815  3.03815  0.00000 -0.07630
      27     H     0.45435  0.45435  0.00000  0.09129
      28     H     0.44527  0.44527  0.00000  0.10947
      29     H     0.45421  0.45421  0.00000  0.09157

   Total alpha = 44.00000, Total beta = 44.00000, Total charge = -0.00000
