  ==> Input File <==

--------------------------------------------------------------------------
set {
	reference rhf
	basis 6-31G*
}

set_num_threads( 4 )
memory 2 gb

molecule MOL {
0 1

H	 1.272433	 4.740351	 -1.040501
C	 2.035927	 4.696158	 -0.253898
C	 1.570233	 4.108480	 1.053916
O	 3.134898	 5.095364	 -0.465196
C	 0.899085	 2.739207	 0.878111
H	 2.419056	 4.053020	 1.725580
H	 0.851790	 4.807260	 1.480767
C	 1.860638	 1.643682	 0.410627
H	 0.455480	 2.449425	 1.826017
H	 0.074185	 2.829081	 0.172973
C	 1.180775	 0.282413	 0.250794
H	 2.678293	 1.559845	 1.123549
H	 2.315104	 1.930707	 -0.535743
C	 2.148627	 -0.814315	 -0.201312
H	 0.720018	 0.005882	 1.195762
H	 0.370542	 0.366773	 -0.472249
C	 3.580890	 -0.659131	 0.322722
H	 2.166869	 -0.852443	 -1.289387
H	 1.762857	 -1.776509	 0.128956
C	 4.324889	 0.564933	 -0.213704
H	 4.142010	 -1.551473	 0.056605
H	 3.564836	 -0.624694	 1.410140
H	 4.342616	 0.565491	 -1.300421
H	 3.866655	 1.493402	 0.110242
H	 5.353900	 0.572371	 0.132816

	symmetry c1
}
set optking {
	frozen_dihedral = ("
		8 11 14 18
	")
}

ee = optimize('scf')
oeprop('DIPOLE', 'QUADRUPOLE', 'MULLIKEN_CHARGES')
f=open( 'psi4out.xyz', 'w' )
f.write( "25  " )
f.write( str(ee) + "\n" )
f.write( MOL.save_string_xyz() )
f.close()
--------------------------------------------------------------------------

    Molecular point group: c1
  Charge       = 0
  Multiplicity = 1
  Basis Set: 6-31G*
  Basis Set:
  @DF-RHF Final Energy:  -387.08939231189026
    Total Energy =                       -387.0893923118902649
    Molecular point group: c1
  Basis Set: 6-31G*
  Basis Set:
  Basis Set: 6-31G*
  Basis Set:
  @DF-RHF Final Energy:  -387.10713367623322
    Total Energy =                       -387.1071336762331612
  Basis Set: 6-31G*
  Basis Set:
  Basis Set: 6-31G*
  Basis Set:
  @DF-RHF Final Energy:  -387.11190685683783
    Total Energy =                       -387.1119068568372086
  Basis Set: 6-31G*
  Basis Set:
  Basis Set: 6-31G*
  Basis Set:
  @DF-RHF Final Energy:  -387.11314975862678
    Total Energy =                       -387.1131497586259229
  Basis Set: 6-31G*
  Basis Set:
  @DF-RHF Final Energy:  -387.10925431209364
    Total Energy =                       -387.1092543120946630
  @DF-RHF Final Energy:  -387.11390885002152
    Total Energy =                       -387.1139088500215166
  @DF-RHF Final Energy:  -387.11412758454691
    Total Energy =                       -387.1141275845460541
  @DF-RHF Final Energy:  -387.11413046205877
    Total Energy =                       -387.1141304620593928
  @DF-RHF Final Energy:  -387.11415866520161
    Total Energy =                       -387.1141586652008755
  Basis Set: 6-31G*
  Basis Set:
  @DF-RHF Final Energy:  -387.11412963545382
    Total Energy =                       -387.1141296354539918
  Basis Set: 6-31G*
  Basis Set:
  Basis Set: 6-31G*
  Basis Set:
  @DF-RHF Final Energy:  -387.11415923120018
    Total Energy =                       -387.1141592312005741
  Basis Set: 6-31G*
  Basis Set:
  Basis Set: 6-31G*
  Basis Set:
  @DF-RHF Final Energy:  -387.11416688783464
    Total Energy =                       -387.1141668878351538
  Basis Set: 6-31G*
  Basis Set:
  Charge       = 0
  Multiplicity = 1
  Basis Set: 6-31G*
  Basis Set:

    Orbital Energies (a.u.)
    -----------------------

    Doubly Occupied:

       1A    -20.562184     2A    -11.326317     3A    -11.235407
       4A    -11.234767     5A    -11.223470     6A    -11.221132
       7A    -11.217904     8A    -11.217251     9A    -11.207021
      10A     -1.402118    11A     -1.103005    12A     -1.066105
      13A     -1.010051    14A     -0.947137    15A     -0.873201
      16A     -0.826399    17A     -0.788819    18A     -0.773126
      19A     -0.665562    20A     -0.659871    21A     -0.627475
      22A     -0.623127    23A     -0.608503    24A     -0.593507
      25A     -0.568704    26A     -0.555144    27A     -0.533017
      28A     -0.521514    29A     -0.515756    30A     -0.495174
      31A     -0.487889    32A     -0.485790    33A     -0.455326
      34A     -0.450750    35A     -0.442048    36A     -0.409669

  @DF-RHF Final Energy:  -387.11416678114949

   => Energetics <=

    Nuclear Repulsion Energy =            450.7800174898899286
    One-Electron Energy =               -1417.9198916624420690
    Two-Electron Energy =                 580.0257073914028751
    DFT Exchange-Correlation Energy =       0.0000000000000000
    Empirical Dispersion Energy =           0.0000000000000000
    PCM Polarization Energy =               0.0000000000000000
    EFP Energy =                            0.0000000000000000
    Total Energy =                       -387.1141667811492653
    Molecular point group: c1
  Basis Set: 6-31G*
  Basis Set:

  -Total Gradient:
     Atom            X                  Y                   Z
    ------   -----------------  -----------------  -----------------
       1        0.000003298075    -0.000026732143    -0.000000278544
       2       -0.000018656327     0.000068561059     0.000013072310
       3        0.000004475050    -0.000010138619    -0.000039469994
       4        0.000007558001    -0.000022521750     0.000000520107
       5       -0.000000055220    -0.000007785132     0.000021314743
       6        0.000001813239    -0.000007062462    -0.000011512101
       7       -0.000002057500    -0.000003432756     0.000006674531
       8        0.000860844288    -0.000971744407     0.004276259212
       9       -0.000005229447     0.000006786573     0.000006584763
      10        0.000011423349    -0.000007536579    -0.000003271508
      11       -0.002300843398     0.000497628609    -0.006184225151
      12        0.000010263649    -0.000012026388    -0.000012869446
      13       -0.000013882946     0.000011121894     0.000001326620
      14        0.005909645771     0.004259539125     0.001923452274
      15       -0.000002905212     0.000014137862    -0.000004602355
      16        0.000002276752    -0.000006868774    -0.000014674756
      17       -0.000003011888     0.000002450269    -0.000008017594
      18       -0.004447170554    -0.003798632037     0.000024765803
      19       -0.000012230378     0.000001614111     0.000000652790
      20        0.000002633180     0.000028653663     0.000010807757
      21        0.000005442389    -0.000006870667     0.000010928665
      22       -0.000011572391     0.000003622456    -0.000015176851
      23       -0.000014963046     0.000004913914     0.000004509099
      24        0.000010177820    -0.000021077577     0.000000571409
      25        0.000002726745     0.000003399753    -0.000007341781

  **** Optimization is complete! (in 13 steps) ****
    Final optimized geometry and variables:
    Molecular point group: c1

    Geometry (in Angstrom), charge = 0, multiplicity = 1:

    H           -1.241895269687     2.882929447799    -1.151721970184
    C           -0.490620930757     2.858759749092    -0.352508902901
    C           -0.940047313710     2.195919131376     0.924668934610
    O            0.582529976385     3.338109424197    -0.527210336522
    C           -1.500751378924     0.786199092565     0.689714639931
    H           -0.104434951489     2.182125455410     1.614899930447
    H           -1.718829701695     2.824020875645     1.355269233281
    C           -0.446066030092    -0.218540194762     0.216423298894
    H           -1.945563699778     0.433962670483     1.615949549874
    H           -2.311562890064     0.836437236805    -0.035070050281
    C           -1.037185015208    -1.616522696770     0.016357573878
    H            0.355789881588    -0.253478573407     0.947498901846
    H           -0.000366015821     0.133395815532    -0.711500357708
    C           -0.079772533516    -2.742120969283    -0.430224282341
    H           -1.485327859870    -1.913938287597     0.963141336753
    H           -1.857610353230    -1.561667572317    -0.694970775328
    C            1.342622630059    -2.758359623743     0.151778319588
    H           -0.045624743765    -2.788966728305    -1.516863103726
    H           -0.563088720716    -3.673580718766    -0.143794702868
    C            2.373494467433    -1.922595017752    -0.611300708359
    H            1.689531092059    -3.788269760272     0.155315135628
    H            1.316953270552    -2.453308641906     1.195588097640
    H            2.437196059859    -2.246444404478    -1.646361092609
    H            2.137701485403    -0.865542792879    -0.612062994464
    H            3.359354548724    -2.037157300413    -0.170652834226

  Mulliken Charges: (a.u.)
   Center  Symbol    Alpha    Beta     Spin     Total
       1     H     0.43251  0.43251  0.00000  0.13499
       2     C     2.83095  2.83095  0.00000  0.33810
       3     C     3.20785  3.20785  0.00000 -0.41571
       4     O     4.23782  4.23782  0.00000 -0.47565
       5     C     3.16638  3.16638  0.00000 -0.33276
       6     H     0.39993  0.39993  0.00000  0.20015
       7     H     0.40671  0.40671  0.00000  0.18658
       8     C     3.15857  3.15857  0.00000 -0.31714
       9     H     0.41292  0.41292  0.00000  0.17416
      10     H     0.41961  0.41961  0.00000  0.16078
      11     C     3.15292  3.15292  0.00000 -0.30585
      12     H     0.41576  0.41576  0.00000  0.16847
      13     H     0.41807  0.41807  0.00000  0.16386
      14     C     3.15533  3.15533  0.00000 -0.31067
      15     H     0.42385  0.42385  0.00000  0.15229
      16     H     0.42119  0.42119  0.00000  0.15762
      17     C     3.15763  3.15763  0.00000 -0.31525
      18     H     0.42159  0.42159  0.00000  0.15681
      19     H     0.42012  0.42012  0.00000  0.15977
      20     C     3.24148  3.24148  0.00000 -0.48296
      21     H     0.41955  0.41955  0.00000  0.16090
      22     H     0.42232  0.42232  0.00000  0.15536
      23     H     0.42179  0.42179  0.00000  0.15642
      24     H     0.41553  0.41553  0.00000  0.16895
      25     H     0.41962  0.41962  0.00000  0.16076

   Total alpha = 36.00000, Total beta = 36.00000, Total charge =  0.00000
