  ==> Input File <==

--------------------------------------------------------------------------
set {
	reference rhf
	basis cc-pvtz
}

set_num_threads( 4 )
memory 2 gb

molecule MOL {
0 1

H	 -3.144994	 -1.202467	 -0.018751
O	 -2.321472	 -0.864941	 -0.318626
C	 -2.021813	 0.336996	 0.342658
C	 -0.669613	 0.837286	 -0.127252
H	 -2.780861	 1.084746	 0.127159
H	 -2.006390	 0.184138	 1.420053
C	 0.490865	 -0.082543	 0.241244
H	 -0.708709	 0.967192	 -1.204587
H	 -0.507562	 1.822272	 0.303070
C	 0.613854	 -0.316008	 1.744233
H	 1.414578	 0.340143	 -0.137104
H	 0.361354	 -1.039604	 -0.260137
C	 1.768661	 -1.241393	 2.112836
H	 0.745168	 0.639292	 2.245094
H	 -0.315880	 -0.732694	 2.123253
H	 2.716940	 -0.834474	 1.778022
H	 1.830616	 -1.385519	 3.185540
H	 1.649576	 -2.217725	 1.654535

	symmetry c1
}
set optking {
	frozen_dihedral = ("
		10 7 4 8
	")
}

ee = optimize('scf')
oeprop('DIPOLE', 'QUADRUPOLE', 'MULLIKEN_CHARGES')
f=open( 'psi4out.xyz', 'w' )
f.write( "18  " )
f.write( str(ee) + "\n" )
f.write( MOL.save_string_xyz() )
f.close()
--------------------------------------------------------------------------

    Molecular point group: c1
  Charge       = 0
  Multiplicity = 1
  Basis Set: CC-PVTZ
  Basis Set:
  @DF-RHF Final Energy:  -271.28410670192943
    Total Energy =                       -271.2841067019292609
    Molecular point group: c1
  Basis Set: CC-PVTZ
  Basis Set:
  Basis Set: CC-PVTZ
  Basis Set:
  @DF-RHF Final Energy:  -271.28479297416158
    Total Energy =                       -271.2847929741614053
  Basis Set: CC-PVTZ
  Basis Set:
  Basis Set: CC-PVTZ
  Basis Set:
  @DF-RHF Final Energy:  -271.28523973440463
    Total Energy =                       -271.2852397344045130
  Basis Set: CC-PVTZ
  Basis Set:
  Basis Set: CC-PVTZ
  Basis Set:
  @DF-RHF Final Energy:  -271.28526597402561
    Total Energy =                       -271.2852659740258332
  Basis Set: CC-PVTZ
  Basis Set:
  Basis Set: CC-PVTZ
  Basis Set:
  @DF-RHF Final Energy:  -271.28526790514809
    Total Energy =                       -271.2852679051477480
  Basis Set: CC-PVTZ
  Basis Set:
  Charge       = 0
  Multiplicity = 1
  Basis Set: CC-PVTZ
  Basis Set:

    Orbital Energies (a.u.)
    -----------------------

    Doubly Occupied:

       1A    -20.546727     2A    -11.265196     3A    -11.210950
       4A    -11.208589     5A    -11.204991     6A    -11.202744
       7A     -1.364430     8A     -1.075760     9A     -1.008139
      10A     -0.914526    11A     -0.831979    12A     -0.770169
      13A     -0.707221    14A     -0.647251    15A     -0.626513
      16A     -0.586174    17A     -0.564524    18A     -0.553918
      19A     -0.538959    20A     -0.500912    21A     -0.489377
      22A     -0.465018    23A     -0.457017    24A     -0.449042
      25A     -0.431358

  @DF-RHF Final Energy:  -271.28526846803300

   => Energetics <=

    Nuclear Repulsion Energy =            254.1154723542095155
    One-Electron Energy =                -871.5585136523887968
    Two-Electron Energy =                 346.1577728301463139
    DFT Exchange-Correlation Energy =       0.0000000000000000
    Empirical Dispersion Energy =           0.0000000000000000
    PCM Polarization Energy =               0.0000000000000000
    EFP Energy =                            0.0000000000000000
    Total Energy =                       -271.2852684680329958
    Molecular point group: c1
  Basis Set: CC-PVTZ
  Basis Set:

  -Total Gradient:
     Atom            X                  Y                   Z
    ------   -----------------  -----------------  -----------------
       1        0.000005765355     0.000003812937     0.000009273387
       2        0.000010041934    -0.000005622716    -0.000020614352
       3       -0.000000897353     0.000000356070     0.000024269981
       4        0.000565212046     0.000680151146     0.000078079273
       5        0.000011301671     0.000003355791    -0.000005103978
       6        0.000000185177     0.000000549216     0.000003189096
       7        0.000493302417     0.000622928137     0.000048578190
       8       -0.000602832134    -0.000768552900    -0.000072128244
       9       -0.000003157588     0.000005374719     0.000002124987
      10       -0.000452251647    -0.000534747095    -0.000044696724
      11       -0.000008533779     0.000003082562    -0.000000019073
      12       -0.000000168099    -0.000007640022    -0.000014487186
      13       -0.000007184423    -0.000007713889    -0.000011783492
      14       -0.000004473422     0.000004785311     0.000008102536
      15       -0.000002933038    -0.000001032932     0.000001384023
      16       -0.000000678134     0.000003143568     0.000002403932
      17       -0.000008157877     0.000003700349    -0.000007095693
      18        0.000005458894    -0.000005930252    -0.000001476666

  **** Optimization is complete! (in 6 steps) ****
    Final optimized geometry and variables:
    Molecular point group: c1

    Geometry (in Angstrom), charge = 0, multiplicity = 1:

    H           -2.781411981653    -0.904845060145    -0.667563037694
    O           -1.924811947364    -0.616696488764    -0.922771291423
    C           -1.651394634944     0.641657914158    -0.362572093419
    C           -0.263044055878     1.082759953555    -0.790374867965
    H           -2.377010010020     1.374630758830    -0.706188887867
    H           -1.722630719696     0.598175139298     0.720471117159
    C            0.873441044246     0.135556280185    -0.401075653034
    H           -0.269810240434     1.193367074265    -1.869872101661
    H           -0.083035064487     2.069118344437    -0.370521638383
    C            1.016124964635    -0.124559656021     1.096931579760
    H            1.802881298010     0.556031817217    -0.775436663217
    H            0.735517907209    -0.810103439702    -0.912957260419
    C            2.239767123433    -0.972278034515     1.430326486433
    H            1.080192414145     0.822698159314     1.627570845422
    H            0.129357097423    -0.626700550039     1.468281995774
    H            3.154436838849    -0.482032346219     1.113767055956
    H            2.313981651806    -1.154208997109     2.496519063094
    H            2.193324547811    -1.935245157947     0.932831752156

  Mulliken Charges: (a.u.)
   Center  Symbol    Alpha    Beta     Spin     Total
       1     H     0.39550  0.39550  0.00000  0.20901
       2     O     4.20006  4.20006  0.00000 -0.40012
       3     C     2.97783  2.97783  0.00000  0.04434
       4     C     3.09974  3.09974  0.00000 -0.19949
       5     H     0.46143  0.46143  0.00000  0.07714
       6     H     0.47094  0.47094  0.00000  0.05811
       7     C     3.08886  3.08886  0.00000 -0.17772
       8     H     0.44790  0.44790  0.00000  0.10419
       9     H     0.45338  0.45338  0.00000  0.09325
      10     C     3.08758  3.08758  0.00000 -0.17515
      11     H     0.45108  0.45108  0.00000  0.09784
      12     H     0.44689  0.44689  0.00000  0.10621
      13     C     3.15014  3.15014  0.00000 -0.30028
      14     H     0.45681  0.45681  0.00000  0.08639
      15     H     0.45292  0.45292  0.00000  0.09416
      16     H     0.45537  0.45537  0.00000  0.08927
      17     H     0.44973  0.44973  0.00000  0.10055
      18     H     0.45385  0.45385  0.00000  0.09231

   Total alpha = 25.00000, Total beta = 25.00000, Total charge =  0.00000
