  ==> Input File <==

--------------------------------------------------------------------------
set {
	reference rhf
	basis 6-31G*
}

set_num_threads( 4 )
memory 2 gb

molecule MOL {
0 1

H	 2.591676	 2.013956	 0.335017
O	 3.341076	 1.666752	 -0.126416
C	 3.569581	 0.339145	 0.272707
C	 2.539767	 -0.640285	 -0.279495
H	 4.553106	 0.084646	 -0.100901
H	 3.608576	 0.269204	 1.359154
C	 1.115811	 -0.397273	 0.226630
H	 2.556196	 -0.582511	 -1.364741
H	 2.852081	 -1.648031	 -0.010655
C	 0.571516	 0.976238	 -0.175895
H	 1.100764	 -0.490545	 1.308961
H	 0.455534	 -1.171633	 -0.164192
C	 -0.882786	 1.237589	 0.232813
H	 1.208693	 1.751452	 0.245883
H	 0.648586	 1.075901	 -1.256556
C	 -1.122088	 1.325285	 1.742622
H	 -1.203463	 2.171659	 -0.223800
H	 -1.519650	 0.461445	 -0.188902
C	 -2.564908	 1.691299	 2.097221
H	 -0.448897	 2.066901	 2.170325
H	 -0.873425	 0.378803	 2.216585
C	 -2.808055	 1.773213	 3.603817
H	 -2.817264	 2.645118	 1.638926
H	 -3.239671	 0.956732	 1.662490
H	 -2.170556	 2.523146	 4.063622
H	 -3.838392	 2.036176	 3.822659
H	 -2.599833	 0.822783	 4.087233

	symmetry c1
}
set optking {
	frozen_dihedral = ("
		10 7 4 8
	")
}

ee = optimize('scf')
oeprop('DIPOLE', 'QUADRUPOLE', 'MULLIKEN_CHARGES')
f=open( 'psi4out.xyz', 'w' )
f.write( "27  " )
f.write( str(ee) + "\n" )
f.write( MOL.save_string_xyz() )
f.close()
--------------------------------------------------------------------------

    Molecular point group: c1
  Charge       = 0
  Multiplicity = 1
  Basis Set: 6-31G*
  Basis Set:
  @DF-RHF Final Energy:  -388.26627983636587
    Total Energy =                       -388.2662798363655838
    Molecular point group: c1
  Basis Set: 6-31G*
  Basis Set:
  Basis Set: 6-31G*
  Basis Set:
  @DF-RHF Final Energy:  -388.27576463912737
    Total Energy =                       -388.2757646391277149
  Basis Set: 6-31G*
  Basis Set:
  Basis Set: 6-31G*
  Basis Set:
  @DF-RHF Final Energy:  -388.27769432731509
    Total Energy =                       -388.2776943273148618
  Basis Set: 6-31G*
  Basis Set:
  Basis Set: 6-31G*
  Basis Set:
  @DF-RHF Final Energy:  -388.27813113639115
    Total Energy =                       -388.2781311363914938
  Basis Set: 6-31G*
  Basis Set:
  @DF-RHF Final Energy:  -388.27811275325098
    Total Energy =                       -388.2781127532506389
  @DF-RHF Final Energy:  -388.27834180935224
    Total Energy =                       -388.2783418093528098
  Basis Set: 6-31G*
  Basis Set:
  @DF-RHF Final Energy:  -388.27835287494099
    Total Energy =                       -388.2783528749411062
  Basis Set: 6-31G*
  Basis Set:
  Basis Set: 6-31G*
  Basis Set:
  @DF-RHF Final Energy:  -388.27835614484059
    Total Energy =                       -388.2783561448400178
  Basis Set: 6-31G*
  Basis Set:
  Basis Set: 6-31G*
  Basis Set:
  @DF-RHF Final Energy:  -388.27835759705101
    Total Energy =                       -388.2783575970506718
  Basis Set: 6-31G*
  Basis Set:
  Charge       = 0
  Multiplicity = 1
  Basis Set: 6-31G*
  Basis Set:

    Orbital Energies (a.u.)
    -----------------------

    Doubly Occupied:

       1A    -20.549495     2A    -11.266240     3A    -11.223001
       4A    -11.220386     5A    -11.218524     6A    -11.217542
       7A    -11.216338     8A    -11.215622     9A    -11.210572
      10A     -1.356945    11A     -1.097106    12A     -1.061311
      13A     -1.013240    14A     -0.948811    15A     -0.890946
      16A     -0.825768    17A     -0.802346    18A     -0.776940
      19A     -0.696240    20A     -0.649897    21A     -0.628382
      22A     -0.624401    23A     -0.598786    24A     -0.583580
      25A     -0.568051    26A     -0.561670    27A     -0.549929
      28A     -0.528334    29A     -0.517905    30A     -0.498598
      31A     -0.485885    32A     -0.474330    33A     -0.468786
      34A     -0.461575    35A     -0.450164    36A     -0.439726
      37A     -0.422295

  @DF-RHF Final Energy:  -388.27835779488697

   => Energetics <=

    Nuclear Repulsion Energy =            465.4310614331406555
    One-Electron Energy =               -1448.7794997810287896
    Two-Electron Energy =                 595.0700805530007074
    DFT Exchange-Correlation Energy =       0.0000000000000000
    Empirical Dispersion Energy =           0.0000000000000000
    PCM Polarization Energy =               0.0000000000000000
    EFP Energy =                            0.0000000000000000
    Total Energy =                       -388.2783577948873699
    Molecular point group: c1
  Basis Set: 6-31G*
  Basis Set:

  -Total Gradient:
     Atom            X                  Y                   Z
    ------   -----------------  -----------------  -----------------
       1        0.000025949629    -0.000041330948     0.000018928540
       2        0.000097572343    -0.000028431217     0.000016019794
       3       -0.000068704342     0.000037586508    -0.000055215005
       4        0.000027311849     0.000072489889     0.000096167096
       5        0.000033479891     0.000072338772    -0.000028277860
       6       -0.000005986770    -0.000003641175    -0.000006611674
       7       -0.000078549077    -0.000068285205    -0.000140405237
       8       -0.000032651555    -0.000033904173     0.000035058334
       9        0.000019044918    -0.000063319056    -0.000007939891
      10       -0.000016880956     0.000028232030     0.000049844483
      11        0.000017839799     0.000018794529    -0.000035698110
      12       -0.000015618178    -0.000043206929     0.000041163263
      13       -0.000001602383     0.000026907037     0.000024007999
      14       -0.000057151075     0.000029689190    -0.000028940249
      15        0.000026865849    -0.000005189961     0.000042043434
      16        0.000012739697     0.000026429840    -0.000012273876
      17       -0.000016301399    -0.000002137031     0.000030360109
      18        0.000032675627    -0.000006406430    -0.000018415675
      19       -0.000010273154    -0.000004750668    -0.000006849005
      20        0.000007445586    -0.000011642702     0.000013771951
      21       -0.000003235858    -0.000010791015    -0.000028829903
      22        0.000005974041     0.000022504743     0.000002995609
      23       -0.000004673184    -0.000005435738    -0.000007812497
      24        0.000004419647    -0.000008353842     0.000004974132
      25        0.000002879547    -0.000002237042     0.000006921472
      26        0.000001680007     0.000005596505    -0.000000366709
      27       -0.000004250500    -0.000001505912    -0.000004620525

  **** Optimization is complete! (in 10 steps) ****
    Final optimized geometry and variables:
    Molecular point group: c1

    Geometry (in Angstrom), charge = 0, multiplicity = 1:

    H            2.605755341759     1.137497516698    -1.155967679431
    O            3.285553596121     0.542798608416    -1.433546705798
    C            3.213014739079    -0.651377307829    -0.697172764749
    C            2.014833498934    -1.531325917975    -1.051522931050
    H            4.125558776059    -1.183722078211    -0.932187779237
    H            3.228325660706    -0.446015888829     0.372886068530
    C            0.666400818574    -1.137570293126    -0.432368051929
    H            1.932859552648    -1.564991710410    -2.134873605097
    H            2.243667499338    -2.544203182407    -0.725453032284
    C            0.112084641984     0.230078849098    -0.853606208779
    H            0.752271822292    -1.180666514895     0.650839569561
    H           -0.059113163262    -1.900686282811    -0.706961957967
    C           -1.368346526366     0.439398291494    -0.514290675151
    H            0.683184379766     1.027539445381    -0.379168250403
    H            0.242124936235     0.351594279290    -1.926255083541
    C           -1.687776971746     0.447046016500     0.982837910967
    H           -1.689416307379     1.385547862249    -0.944894376831
    H           -1.957972646708    -0.332756253026    -1.005362975692
    C           -3.156565157796     0.759045895174     1.277096649173
    H           -1.058616620217     1.183735709037     1.481104269557
    H           -1.437100417883    -0.515441761514     1.422011168017
    C           -3.478542542068     0.765539611359     2.771036531312
    H           -3.412121536909     1.725884798190     0.848848193244
    H           -3.786818158618     0.027629157711     0.775582389355
    H           -2.886771542468     1.509827400858     3.296523123852
    H           -4.525639354859     0.991756640564     2.946924677144
    H           -3.268854816051    -0.200437372585     3.221787149250

  Mulliken Charges: (a.u.)
   Center  Symbol    Alpha    Beta     Spin     Total
       1     H     0.27563  0.27563  0.00000  0.44875
       2     O     4.37455  4.37455  0.00000 -0.74911
       3     C     2.99653  2.99653  0.00000  0.00694
       4     C     3.16744  3.16744  0.00000 -0.33489
       5     H     0.41484  0.41484  0.00000  0.17032
       6     H     0.43226  0.43226  0.00000  0.13548
       7     C     3.15838  3.15838  0.00000 -0.31676
       8     H     0.41387  0.41387  0.00000  0.17226
       9     H     0.42163  0.42163  0.00000  0.15674
      10     C     3.16105  3.16105  0.00000 -0.32210
      11     H     0.42106  0.42106  0.00000  0.15789
      12     H     0.41956  0.41956  0.00000  0.16089
      13     C     3.15288  3.15288  0.00000 -0.30576
      14     H     0.43472  0.43472  0.00000  0.13056
      15     H     0.41450  0.41450  0.00000  0.17100
      16     C     3.15328  3.15328  0.00000 -0.30656
      17     H     0.42090  0.42090  0.00000  0.15819
      18     H     0.42212  0.42212  0.00000  0.15576
      19     C     3.15137  3.15137  0.00000 -0.30274
      20     H     0.42513  0.42513  0.00000  0.14973
      21     H     0.42110  0.42110  0.00000  0.15781
      22     C     3.23929  3.23929  0.00000 -0.47859
      23     H     0.42279  0.42279  0.00000  0.15442
      24     H     0.42263  0.42263  0.00000  0.15473
      25     H     0.42178  0.42178  0.00000  0.15644
      26     H     0.41889  0.41889  0.00000  0.16222
      27     H     0.42181  0.42181  0.00000  0.15638

   Total alpha = 37.00000, Total beta = 37.00000, Total charge =  0.00000
