  ==> Input File <==

--------------------------------------------------------------------------
set {
	reference rhf
	basis 6-31G*
}

set_num_threads( 4 )
memory 2 gb

molecule MOL {
0 1

O	 1.439763	 0.933529	 0.808025
C	 1.122059	 0.121804	 -0.000188
C	 -0.170150	 -0.657997	 -0.000612
O	 1.884790	 -0.211395	 -1.033724
C	 -1.412532	 0.227344	 -0.000452
H	 -0.153702	 -1.313099	 -0.867402
H	 -0.153924	 -1.313811	 0.865644
C	 -2.706999	 -0.587347	 -0.000541
H	 -1.388000	 0.879466	 -0.868000
H	 -1.387972	 0.879138	 0.867341
C	 -3.956778	 0.291888	 0.000910
H	 -2.726114	 -1.239230	 -0.871609
H	 -2.725217	 -1.240844	 0.869333
H	 -3.985213	 0.933254	 -0.875158
H	 -4.860123	 -0.309979	 0.000519
H	 -3.984618	 0.931166	 0.878514
C	 3.131343	 0.449841	 -1.152091
H	 2.987835	 1.515887	 -1.254264
H	 3.595345	 0.048240	 -2.039428
H	 3.748139	 0.255836	 -0.286393

	symmetry c1
}
set optking {
	frozen_dihedral = ("
		1 2 3 6
	")
}

ee = optimize('scf')
oeprop('DIPOLE', 'QUADRUPOLE', 'MULLIKEN_CHARGES')
f=open( 'psi4out.xyz', 'w' )
f.write( "20  " )
f.write( str(ee) + "\n" )
f.write( MOL.save_string_xyz() )
f.close()
--------------------------------------------------------------------------

    Molecular point group: c1
  Charge       = 0
  Multiplicity = 1
  Basis Set: 6-31G*
  Basis Set:
  @DF-RHF Final Energy:  -383.93958162563138
    Total Energy =                       -383.9395816256313765
    Molecular point group: c1
  Basis Set: 6-31G*
  Basis Set:
  Basis Set: 6-31G*
  Basis Set:
  @DF-RHF Final Energy:  -383.94002680583975
    Total Energy =                       -383.9400268058398069
  Basis Set: 6-31G*
  Basis Set:
  Basis Set: 6-31G*
  Basis Set:
  @DF-RHF Final Energy:  -383.94011518499627
    Total Energy =                       -383.9401151849959888
  Basis Set: 6-31G*
  Basis Set:
  Basis Set: 6-31G*
  Basis Set:
  @DF-RHF Final Energy:  -383.94018640876590
    Total Energy =                       -383.9401864087664080
  Basis Set: 6-31G*
  Basis Set:
  Basis Set: 6-31G*
  Basis Set:
  @DF-RHF Final Energy:  -383.94018830039221
    Total Energy =                       -383.9401883003921512
  Basis Set: 6-31G*
  Basis Set:
  Charge       = 0
  Multiplicity = 1
  Basis Set: 6-31G*
  Basis Set:

    Orbital Energies (a.u.)
    -----------------------

    Doubly Occupied:

       1A    -20.606085     2A    -20.542241     3A    -11.371639
       4A    -11.280883     5A    -11.234060     6A    -11.225699
       7A    -11.222336     8A    -11.212582     9A     -1.469734
      10A     -1.361413    11A     -1.090323    12A     -1.024144
      13A     -0.969575    14A     -0.887677    15A     -0.805470
      16A     -0.771738    17A     -0.695341    18A     -0.680822
      19A     -0.672678    20A     -0.646809    21A     -0.598311
      22A     -0.592022    23A     -0.575044    24A     -0.550761
      25A     -0.534098    26A     -0.522816    27A     -0.504344
      28A     -0.479518    29A     -0.476770    30A     -0.473105
      31A     -0.453853    32A     -0.432824

  @DF-RHF Final Energy:  -383.94018834129201

   => Energetics <=

    Nuclear Repulsion Energy =            381.6295109572108686
    One-Electron Energy =               -1279.2099702526065812
    Two-Electron Energy =                 513.6402709541035847
    DFT Exchange-Correlation Energy =       0.0000000000000000
    Empirical Dispersion Energy =           0.0000000000000000
    PCM Polarization Energy =               0.0000000000000000
    EFP Energy =                            0.0000000000000000
    Total Energy =                       -383.9401883412921279
    Molecular point group: c1
  Basis Set: 6-31G*
  Basis Set:

  -Total Gradient:
     Atom            X                  Y                   Z
    ------   -----------------  -----------------  -----------------
       1        0.000310081180    -0.000449365493     0.000383154069
       2       -0.000343372671     0.000535976478    -0.000509770245
       3       -0.000162368308     0.000284205692    -0.000292675609
       4       -0.000051757815     0.000012784285     0.000074770023
       5       -0.000011137034     0.000043259240     0.000025059805
       6        0.000289050285    -0.000486604940     0.000326137407
       7       -0.000012349690     0.000047915163    -0.000034302004
       8        0.000006619710     0.000004469098     0.000026921157
       9        0.000006014603    -0.000013007751     0.000023217541
      10       -0.000021361709     0.000005655261     0.000008000750
      11       -0.000007303273     0.000002557744    -0.000024018828
      12        0.000012908255    -0.000006542822     0.000009193776
      13       -0.000006073929     0.000007618424     0.000006259474
      14       -0.000001606776     0.000009606559     0.000002160429
      15       -0.000006051385     0.000001745671    -0.000010563958
      16        0.000000822932    -0.000009354060     0.000000245615
      17       -0.000003481868     0.000007279927    -0.000012114817
      18        0.000005343669     0.000004216470    -0.000000976474
      19        0.000002941039     0.000001164371    -0.000000036252
      20       -0.000006917209    -0.000003579315    -0.000000661859

  **** Optimization is complete! (in 6 steps) ****
    Final optimized geometry and variables:
    Molecular point group: c1

    Geometry (in Angstrom), charge = 0, multiplicity = 1:

    O            1.439353148191     0.821433572165     0.982999293865
    C            1.163342583121     0.016038921636     0.151611057698
    C           -0.119270650036    -0.780813990062     0.135834390142
    O            1.962380441815    -0.282043326907    -0.862200370805
    C           -1.352835053175     0.129024603380     0.151195406334
    H           -0.126469191305    -1.441608696566    -0.721492688303
    H           -0.113363398015    -1.398674462185     1.029326041046
    C           -2.660080407576    -0.661927585732     0.210458356806
    H           -1.349361564382     0.754803273800    -0.738711363065
    H           -1.284383258225     0.797381526605     1.002800077936
    C           -3.894308493879     0.239037968233     0.216711528164
    H           -2.712489292156    -1.340917685211    -0.637833922151
    H           -2.663081854660    -1.284958689331     1.102249525358
    H           -3.937357959855     0.851333284572    -0.679460020634
    H           -4.806844993832    -0.346986299954     0.261058265872
    H           -3.887027898137     0.906892521256     1.073099741592
    C            3.198654462700     0.406287983915    -0.927994057296
    H            3.035786846189     1.470737744791    -1.015830331070
    H            3.699227149079     0.029945420648    -1.806429505751
    H            3.789929409657     0.208982123311    -0.045536275201

  Mulliken Charges: (a.u.)
   Center  Symbol    Alpha    Beta     Spin     Total
       1     O     4.28727  4.28727  0.00000 -0.57454
       2     C     2.60860  2.60860  0.00000  0.78281
       3     C     3.20403  3.20403  0.00000 -0.40806
       4     O     4.30355  4.30355  0.00000 -0.60709
       5     C     3.16078  3.16078  0.00000 -0.32155
       6     H     0.40067  0.40067  0.00000  0.19866
       7     H     0.40121  0.40121  0.00000  0.19758
       8     C     3.15340  3.15340  0.00000 -0.30679
       9     H     0.41740  0.41740  0.00000  0.16520
      10     H     0.40370  0.40370  0.00000  0.19260
      11     C     3.24000  3.24000  0.00000 -0.48000
      12     H     0.42179  0.42179  0.00000  0.15643
      13     H     0.42088  0.42088  0.00000  0.15825
      14     H     0.42061  0.42061  0.00000  0.15878
      15     H     0.41799  0.41799  0.00000  0.16401
      16     H     0.41912  0.41912  0.00000  0.16177
      17     C     3.09365  3.09365  0.00000 -0.18729
      18     H     0.40851  0.40851  0.00000  0.18299
      19     H     0.40839  0.40839  0.00000  0.18321
      20     H     0.40848  0.40848  0.00000  0.18305

   Total alpha = 32.00000, Total beta = 32.00000, Total charge =  0.00000
