                              Psi4 1.0.54 Driver

  ==> Input File <==

--------------------------------------------------------------------------
set {
	reference rhf
	basis cc-pvtz
}

set_num_threads( 4 )
memory 2 gb

molecule MOL {
0 1

H	 3.273419	 0.176595	 -0.102789
N	 2.433987	 -0.362316	 -0.080024
C	 1.263552	 0.494993	 0.021953
H	 2.497638	 -0.973615	 0.707122
C	 -0.016533	 -0.325589	 -0.026925
H	 1.280915	 1.180773	 -0.818522
H	 1.263064	 1.106893	 0.925038
C	 -1.280353	 0.525521	 0.047747
H	 -0.016686	 -0.912532	 -0.939714
H	 -0.014099	 -1.037598	 0.796369
C	 -1.214848	 1.769450	 -0.832219
H	 -1.451441	 0.824192	 1.078519
H	 -2.139298	 -0.073905	 -0.241694
H	 -0.385469	 2.407320	 -0.545897
H	 -2.124256	 2.354172	 -0.754567
H	 -1.080578	 1.503837	 -1.875580

	symmetry c1
}
set optking {
	frozen_dihedral = ("
		12 8 5 9
	")
}

ee,wfn = optimize('scf', return_wfn=True)
oeprop( wfn, 'DIPOLE', 'QUADRUPOLE', 'MULLIKEN_CHARGES')
f=open( 'psi4out.xyz', 'w' )
f.write( "16  " )
f.write( str(ee) + "\n" )
f.write( MOL.save_string_xyz() )
f.close()
--------------------------------------------------------------------------

    Molecular point group: c1
  Charge       = 0
  Multiplicity = 1
  Basis Set: CC-PVTZ
  Basis Set:
  @DF-RHF Final Energy:  -212.39542449369392
    Total Energy =                       -212.3954244936940086
    Molecular point group: c1
  Basis Set: CC-PVTZ
  Basis Set:
  Basis Set: CC-PVTZ
  Basis Set:
  @DF-RHF Final Energy:  -212.39654012546302
    Total Energy =                       -212.3965401254629910
  Basis Set: CC-PVTZ
  Basis Set:
  Basis Set: CC-PVTZ
  Basis Set:
  @DF-RHF Final Energy:  -212.39733802521212
    Total Energy =                       -212.3973380252122070
  Basis Set: CC-PVTZ
  Basis Set:
  Basis Set: CC-PVTZ
  Basis Set:
  @DF-RHF Final Energy:  -212.39741693100629
    Total Energy =                       -212.3974169310064326
  Basis Set: CC-PVTZ
  Basis Set:
  Basis Set: CC-PVTZ
  Basis Set:
  @DF-RHF Final Energy:  -212.39742365185899
    Total Energy =                       -212.3974236518589009
  Basis Set: CC-PVTZ
  Basis Set:
  Charge       = 0
  Multiplicity = 1
  Basis Set: CC-PVTZ
  Basis Set:

    Orbital Energies (a.u.)
    -----------------------

    Doubly Occupied:

       1A    -15.526459     2A    -11.237773     3A    -11.213274
       4A    -11.208213     5A    -11.206211     6A     -1.178351
       7A     -1.059093     8A     -0.955605     9A     -0.862377
      10A     -0.776990    11A     -0.665857    12A     -0.632529
      13A     -0.606457    14A     -0.594335    15A     -0.548825
      16A     -0.526429    17A     -0.516471    18A     -0.467357
      19A     -0.461648    20A     -0.457185    21A     -0.383896

  @DF-RHF Final Energy:  -212.39742418239763

   => Energetics <=

    Nuclear Repulsion Energy =            189.2004157983133155
    One-Electron Energy =                -661.0250118963700743
    Two-Electron Energy =                 259.4271719156591871
    DFT Exchange-Correlation Energy =       0.0000000000000000
    Empirical Dispersion Energy =           0.0000000000000000
    PCM Polarization Energy =               0.0000000000000000
    EFP Energy =                            0.0000000000000000
    Total Energy =                       -212.3974241823975717
    Molecular point group: c1
  Basis Set: CC-PVTZ
  Basis Set:

  -Total Gradient:
     Atom            X                  Y                   Z
    ------   -----------------  -----------------  -----------------
       1        0.000003700013    -0.000001701610    -0.000002303443
       2        0.000020754626    -0.000004202909    -0.000038161859
       3       -0.000008179968     0.000004262286     0.000093130393
       4       -0.000011426112     0.000012166472    -0.000004385990
       5        0.001806471879     0.002958007110    -0.001984743615
       6        0.000006502851    -0.000023321073     0.000003158170
       7        0.000006137827     0.000028348218    -0.000000661096
       8        0.002120071785     0.003255520835    -0.000025765207
       9       -0.001892011028    -0.002991073288     0.001635360582
      10       -0.000002545444     0.000013982895    -0.000004901978
      11        0.000011540703     0.000000638760    -0.000016650697
      12       -0.002060174308    -0.003249151994     0.000343061189
      13       -0.000002057351    -0.000004832227     0.000004058070
      14       -0.000001049517     0.000003749374     0.000000535120
      15        0.000001588992    -0.000010278427     0.000004154117
      16        0.000000675052     0.000007885577    -0.000005883755

  **** Optimization is complete! (in 6 steps) ****
    Final optimized geometry and variables:
    Molecular point group: c1

    Geometry (in Angstrom), charge = 0, multiplicity = 1:

    H            3.020428397488    -0.336888585405     0.386844264654
    N            2.163278481795    -0.840594000933     0.302736198726
    C            1.024618586172     0.063341064756     0.266756099828
    H            2.105117907547    -1.458080992632     1.085313413500
    C           -0.264532357751    -0.715884952972     0.053021578743
    H            1.181457143539     0.752637084980    -0.553740886424
    H            0.932282442736     0.667462884343     1.171382992797
    C           -1.550692401995     0.114321669279     0.099637490589
    H           -0.207335333485    -1.265821088850    -0.880789149598
    H           -0.332667448288    -1.477728665075     0.827054140568
    C           -1.554650832845     1.368418432310    -0.769550692134
    H           -1.781320506506     0.370154341719     1.130171941680
    H           -2.366593174639    -0.528038443116    -0.218574333157
    H           -0.836650691734     2.103512234789    -0.426056614377
    H           -2.531581304106     1.837774618627    -0.757925154515
    H           -1.315912991888     1.129520006562    -1.800999710994

  Mulliken Charges: (a.u.)
   Center  Symbol    Alpha    Beta     Spin     Total
       1     H     0.43002  0.43002  0.00000  0.13997
       2     N     3.68996  3.68996  0.00000 -0.37991
       3     C     3.02764  3.02764  0.00000 -0.05527
       4     H     0.43092  0.43092  0.00000  0.13815
       5     C     3.08756  3.08756  0.00000 -0.17511
       6     H     0.45428  0.45428  0.00000  0.09143
       7     H     0.46778  0.46778  0.00000  0.06443
       8     C     3.09451  3.09451  0.00000 -0.18902
       9     H     0.44777  0.44777  0.00000  0.10446
      10     H     0.45739  0.45739  0.00000  0.08521
      11     C     3.15581  3.15581  0.00000 -0.31163
      12     H     0.45441  0.45441  0.00000  0.09117
      13     H     0.45000  0.45000  0.00000  0.10000
      14     H     0.45364  0.45364  0.00000  0.09271
      15     H     0.44574  0.44574  0.00000  0.10851
      16     H     0.45256  0.45256  0.00000  0.09489

   Total alpha = 21.00000, Total beta = 21.00000, Total charge = -0.00000

*** Psi4 exiting successfully. Buy a developer a beer!
