  ==> Input File <==

--------------------------------------------------------------------------
set {
	reference rhf
	basis 6-31G*
}

set_num_threads( 4 )
memory 2 gb

molecule MOL {
0 1

O	 3.225979	 0.970355	 -0.599647
C	 2.701189	 0.057885	 -0.047330
C	 1.245376	 -0.013843	 0.345420
O	 3.347903	 -1.046386	 0.304773
C	 0.455112	 1.231400	 -0.050772
H	 0.838542	 -0.913825	 -0.103701
H	 1.208210	 -0.175333	 1.419774
C	 -0.998893	 1.219485	 0.433193
H	 0.482531	 1.345121	 -1.130325
H	 0.957290	 2.103070	 0.354729
C	 -1.883438	 0.145884	 -0.207175
H	 -1.431207	 2.195402	 0.224832
H	 -1.019646	 1.105716	 1.516076
C	 -3.347647	 0.245583	 0.225435
H	 -1.822183	 0.231698	 -1.291012
H	 -1.510341	 -0.844814	 0.042401
C	 -4.239992	 -0.825570	 -0.404234
H	 -3.732888	 1.230466	 -0.033079
H	 -3.408585	 0.170602	 1.310038
C	 -5.248697	 -0.253348	 -1.399612
H	 -3.617291	 -1.563332	 -0.905824
H	 -4.771559	 -1.358882	 0.381130
H	 -5.866206	 -1.036447	 -1.828617
H	 -4.746739	 0.256914	 -2.216843
H	 -5.909439	 0.463371	 -0.920021
C	 4.728119	 -1.109107	 -0.004993
H	 4.882018	 -1.033965	 -1.071845
H	 5.068212	 -2.067527	 0.355250
H	 5.265056	 -0.311663	 0.488280

	symmetry c1
}
set optking {
	frozen_dihedral = ("
		21 17 14 11
	")
}

ee = optimize('scf')
oeprop('DIPOLE', 'QUADRUPOLE', 'MULLIKEN_CHARGES')
f=open( 'psi4out.xyz', 'w' )
f.write( "29  " )
f.write( str(ee) + "\n" )
f.write( MOL.save_string_xyz() )
f.close()
--------------------------------------------------------------------------

    Molecular point group: c1
  Charge       = 0
  Multiplicity = 1
  Basis Set: 6-31G*
  Basis Set:
  @DF-RHF Final Energy:  -501.03839385031404
    Total Energy =                       -501.0383938503142645
    Molecular point group: c1
  Basis Set: 6-31G*
  Basis Set:
  Basis Set: 6-31G*
  Basis Set:
  @DF-RHF Final Energy:  -501.03863122067946
    Total Energy =                       -501.0386312206798038
  Basis Set: 6-31G*
  Basis Set:
  Basis Set: 6-31G*
  Basis Set:
  @DF-RHF Final Energy:  -501.03872295521262
    Total Energy =                       -501.0387229552128474
  Basis Set: 6-31G*
  Basis Set:
  Basis Set: 6-31G*
  Basis Set:
  @DF-RHF Final Energy:  -501.03871105675853
    Total Energy =                       -501.0387110567587570
  Basis Set: 6-31G*
  Basis Set:
  Basis Set: 6-31G*
  Basis Set:
  @DF-RHF Final Energy:  -501.03872541385238
    Total Energy =                       -501.0387254138522621
  Basis Set: 6-31G*
  Basis Set:
  Charge       = 0
  Multiplicity = 1
  Basis Set: 6-31G*
  Basis Set:

    Orbital Energies (a.u.)
    -----------------------

    Doubly Occupied:

       1A    -20.603392     2A    -20.545218     3A    -11.372031
       4A    -11.280680     5A    -11.234778     6A    -11.219159
       7A    -11.217504     8A    -11.216360     9A    -11.215528
      10A    -11.214149    11A    -11.209093    12A     -1.469091
      13A     -1.362533    14A     -1.097469    15A     -1.065102
      16A     -1.018672    17A     -0.976825    18A     -0.928082
      19A     -0.862965    20A     -0.800796    21A     -0.788868
      22A     -0.764028    23A     -0.700620    24A     -0.682360
      25A     -0.672132    26A     -0.641770    27A     -0.631018
      28A     -0.603728    29A     -0.601541    30A     -0.581731
      31A     -0.563875    32A     -0.553571    33A     -0.532332
      34A     -0.522681    35A     -0.516545    36A     -0.515084
      37A     -0.497275    38A     -0.475986    39A     -0.473722
      40A     -0.459484    41A     -0.456120    42A     -0.454409
      43A     -0.440450    44A     -0.435021

  @DF-RHF Final Energy:  -501.03872602774902

   => Energetics <=

    Nuclear Repulsion Energy =            611.9385009549247343
    One-Electron Energy =               -1895.0069051388325079
    Two-Electron Energy =                 782.0296781561582975
    DFT Exchange-Correlation Energy =       0.0000000000000000
    Empirical Dispersion Energy =           0.0000000000000000
    PCM Polarization Energy =               0.0000000000000000
    EFP Energy =                            0.0000000000000000
    Total Energy =                       -501.0387260277493624
    Molecular point group: c1
  Basis Set: 6-31G*
  Basis Set:

  -Total Gradient:
     Atom            X                  Y                   Z
    ------   -----------------  -----------------  -----------------
       1        0.000053360187     0.000094823529     0.000207289283
       2       -0.000145543854    -0.000270715907    -0.000566996136
       3        0.000051209542     0.000086271335     0.000170720910
       4        0.000042926866     0.000079848346     0.000160675588
       5        0.000017064821     0.000024835882     0.000004070016
       6        0.000062078088     0.000016177590    -0.000006945060
       7       -0.000042313304    -0.000004604583     0.000017547670
       8        0.000015001034     0.000004955158     0.000000175295
       9        0.000006882684    -0.000000675122     0.000004442170
      10        0.000020733520     0.000003539879    -0.000003256985
      11        0.000164474822    -0.000759427021     0.000933952575
      12        0.000003350644    -0.000003881364     0.000004845758
      13        0.000003634022     0.000001232673    -0.000007813329
      14       -0.000356350702     0.001174105974    -0.001665523784
      15       -0.000015322971     0.000008090901     0.000027857737
      16       -0.000062468563     0.000002511280     0.000004155008
      17        0.000272126946    -0.001313605750     0.002037730100
      18       -0.000003358148    -0.000033242114    -0.000043240181
      19       -0.000000971617    -0.000040879033     0.000026031690
      20        0.000001840707    -0.000024693200     0.000011054989
      21       -0.000088694552     0.000943881041    -0.001378368124
      22       -0.000009327776     0.000045711050     0.000033292642
      23       -0.000029435090    -0.000005910066    -0.000024617912
      24        0.000014314380    -0.000011956073     0.000032926080
      25        0.000022013116    -0.000020060897     0.000011765369
      26        0.000001148306     0.000001458682     0.000003621313
      27       -0.000006290982     0.000001530022     0.000001706293
      28        0.000001365506     0.000001446613     0.000003312912
      29        0.000006552362    -0.000000768826    -0.000000411886

  **** Optimization is complete! (in 6 steps) ****
    Final optimized geometry and variables:
    Molecular point group: c1

    Geometry (in Angstrom), charge = 0, multiplicity = 1:

    O            3.182594509635     0.920952797006    -0.480132073686
    C            2.661050403996     0.014029400371     0.084265346517
    C            1.206643113229    -0.055429044666     0.482607361581
    O            3.311647521118    -1.083226490834     0.450827736107
    C            0.412589106500     1.182881019132     0.072446312970
    H            0.800365860787    -0.962187618495     0.046861369565
    H            1.173203607332    -0.202644875497     1.559132982890
    C           -1.039996217718     1.174734469448     0.561216004611
    H            0.436438469110     1.282442530345    -1.008578499116
    H            0.914487349186     2.060708582849     0.464776576551
    C           -1.925746940356     0.093795975392    -0.063753147725
    H           -1.473913646569     2.147950540898     0.343597038857
    H           -1.057162154701     1.073128222962     1.645474894662
    C           -3.388127436511     0.190386805566     0.379704841590
    H           -1.872529840869     0.170115328226    -1.149194602862
    H           -1.550503259584    -0.894420712059     0.191290799230
    C           -4.300852236380    -0.873097640977    -0.270487810738
    H           -3.764754368080     1.184833953037     0.151796825245
    H           -3.427235573832     0.099114972923     1.462471862771
    C           -5.300481630765    -0.282675640746    -1.266873222158
    H           -3.690517663850    -1.606020108831    -0.792057715640
    H           -4.844808005367    -1.418366578984     0.494916235197
    H           -5.904096052037    -1.058820928496    -1.727737725957
    H           -4.789200100999     0.254594865537    -2.061112514584
    H           -5.974141491244     0.415357247789    -0.778200915081
    C            4.691574886711    -1.146156456291     0.139795843735
    H            4.843597260170    -1.085642085336    -0.928258636215
    H            5.035111179816    -2.098355091023     0.513016805874
    H            5.226840435198    -0.340204873320     0.620908032564

  Mulliken Charges: (a.u.)
   Center  Symbol    Alpha    Beta     Spin     Total
       1     O     4.28596  4.28596  0.00000 -0.57191
       2     C     2.60486  2.60486  0.00000  0.79028
       3     C     3.20965  3.20965  0.00000 -0.41931
       4     O     4.30746  4.30746  0.00000 -0.61492
       5     C     3.15367  3.15367  0.00000 -0.30734
       6     H     0.39892  0.39892  0.00000  0.20215
       7     H     0.40118  0.40118  0.00000  0.19764
       8     C     3.15731  3.15731  0.00000 -0.31463
       9     H     0.41313  0.41313  0.00000  0.17375
      10     H     0.40873  0.40873  0.00000  0.18254
      11     C     3.15680  3.15680  0.00000 -0.31359
      12     H     0.41813  0.41813  0.00000  0.16374
      13     H     0.42389  0.42389  0.00000  0.15223
      14     C     3.15470  3.15470  0.00000 -0.30939
      15     H     0.42278  0.42278  0.00000  0.15444
      16     H     0.42282  0.42282  0.00000  0.15436
      17     C     3.15517  3.15517  0.00000 -0.31034
      18     H     0.42038  0.42038  0.00000  0.15925
      19     H     0.42126  0.42126  0.00000  0.15749
      20     C     3.23981  3.23981  0.00000 -0.47961
      21     H     0.42068  0.42068  0.00000  0.15863
      22     H     0.41982  0.41982  0.00000  0.16037
      23     H     0.42045  0.42045  0.00000  0.15910
      24     H     0.42199  0.42199  0.00000  0.15602
      25     H     0.42135  0.42135  0.00000  0.15731
      26     C     3.09241  3.09241  0.00000 -0.18481
      27     H     0.40910  0.40910  0.00000  0.18180
      28     H     0.40851  0.40851  0.00000  0.18298
      29     H     0.40910  0.40910  0.00000  0.18179

   Total alpha = 44.00000, Total beta = 44.00000, Total charge =  0.00000
