  ==> Input File <==

--------------------------------------------------------------------------
set {
	reference rhf
	basis 6-31G*
}

set_num_threads( 4 )
memory 2 gb

molecule MOL {
0 1

O	 0.712180	 0.656200	 0.979333
C	 1.122059	 0.121804	 -0.000188
C	 0.540344	 0.261986	 -1.385775
O	 2.172624	 -0.688929	 0.000216
C	 -0.673064	 1.184842	 -1.443369
H	 1.334980	 0.615384	 -2.037249
H	 0.292798	 -0.736236	 -1.736530
C	 -1.242592	 1.308839	 -2.857452
H	 -0.395074	 2.166019	 -1.071187
H	 -1.438617	 0.812695	 -0.769619
C	 -2.459452	 2.230697	 -2.924032
H	 -0.471268	 1.681323	 -3.528564
H	 -1.517064	 0.322665	 -3.226501
H	 -2.208672	 3.234477	 -2.593593
H	 -2.843371	 2.301409	 -3.936891
H	 -3.262144	 1.865784	 -2.289867
C	 3.452279	 -0.082609	 0.000533
H	 3.583069	 0.529321	 -0.880332
H	 4.163299	 -0.894027	 0.001117
H	 3.582335	 0.529955	 0.881077

	symmetry c1
}
set optking {
	frozen_dihedral = ("
		1 2 4 17
	")
}

ee = optimize('scf')
oeprop('DIPOLE', 'QUADRUPOLE', 'MULLIKEN_CHARGES')
f=open( 'psi4out.xyz', 'w' )
f.write( "20  " )
f.write( str(ee) + "\n" )
f.write( MOL.save_string_xyz() )
f.close()
--------------------------------------------------------------------------

    Molecular point group: c1
  Charge       = 0
  Multiplicity = 1
  Basis Set: 6-31G*
  Basis Set:
  @DF-RHF Final Energy:  -383.92158984398935
    Total Energy =                       -383.9215898439890680
    Molecular point group: c1
  Basis Set: 6-31G*
  Basis Set:
  Basis Set: 6-31G*
  Basis Set:
  @DF-RHF Final Energy:  -383.91982569102947
    Total Energy =                       -383.9198256910297005
  Basis Set: 6-31G*
  Basis Set:
  Basis Set: 6-31G*
  Basis Set:
  @DF-RHF Final Energy:  -383.92257298538067
    Total Energy =                       -383.9225729853804978
  Basis Set: 6-31G*
  Basis Set:
  Basis Set: 6-31G*
  Basis Set:
  @DF-RHF Final Energy:  -383.92286099433164
    Total Energy =                       -383.9228609943316997
  Basis Set: 6-31G*
  Basis Set:
  Basis Set: 6-31G*
  Basis Set:
  @DF-RHF Final Energy:  -383.92286861648302
    Total Energy =                       -383.9228686164829014
  Basis Set: 6-31G*
  Basis Set:
  Charge       = 0
  Multiplicity = 1
  Basis Set: 6-31G*
  Basis Set:

    Orbital Energies (a.u.)
    -----------------------

    Doubly Occupied:

       1A    -20.585720     2A    -20.557274     3A    -11.375153
       4A    -11.290678     5A    -11.239295     6A    -11.222559
       7A    -11.221799     8A    -11.212332     9A     -1.459368
      10A     -1.366972    11A     -1.090031    12A     -1.019949
      13A     -0.970018    14A     -0.894642    15A     -0.807134
      16A     -0.765716    17A     -0.695686    18A     -0.678677
      19A     -0.673564    20A     -0.643122    21A     -0.614738
      22A     -0.591424    23A     -0.587557    24A     -0.548626
      25A     -0.537044    26A     -0.512488    27A     -0.498318
      28A     -0.487725    29A     -0.478898    30A     -0.472238
      31A     -0.451460    32A     -0.433782

  @DF-RHF Final Energy:  -383.92286950514318

   => Energetics <=

    Nuclear Repulsion Energy =            380.9752471037950841
    One-Electron Energy =               -1277.8282583493910352
    Two-Electron Energy =                 512.9301417404529957
    DFT Exchange-Correlation Energy =       0.0000000000000000
    Empirical Dispersion Energy =           0.0000000000000000
    PCM Polarization Energy =               0.0000000000000000
    EFP Energy =                            0.0000000000000000
    Total Energy =                       -383.9228695051430122
    Molecular point group: c1
  Basis Set: 6-31G*
  Basis Set:

  -Total Gradient:
     Atom            X                  Y                   Z
    ------   -----------------  -----------------  -----------------
       1       -0.003166651850    -0.003953972362     0.000603325748
       2        0.004781275341     0.005747772179    -0.002818408161
       3        0.000005657380     0.000006278691     0.000049798250
       4       -0.001798909266    -0.001944943906     0.006251619630
       5       -0.000016487847     0.000009758381    -0.000015711176
       6        0.000014877945     0.000003720169    -0.000001870991
       7        0.000006761848     0.000014434960     0.000008526103
       8       -0.000022119832    -0.000005213038    -0.000003922504
       9       -0.000008388147    -0.000003315931     0.000001858835
      10        0.000005542851    -0.000010842842    -0.000005183325
      11        0.000011588168     0.000014921720    -0.000003683751
      12        0.000004163985    -0.000008903362     0.000001145762
      13       -0.000010711736    -0.000003623663     0.000004376538
      14       -0.000003208401     0.000005916099     0.000004542660
      15        0.000007695874     0.000002916941     0.000000808722
      16       -0.000000039139    -0.000005520387    -0.000003151318
      17        0.000167612200     0.000137330589    -0.004083892304
      18        0.000015579522    -0.000000286217    -0.000001918524
      19        0.000002096189     0.000006499565     0.000006628431
      20        0.000003664921    -0.000012927588     0.000005111373

  **** Optimization is complete! (in 6 steps) ****
    Final optimized geometry and variables:
    Molecular point group: c1

    Geometry (in Angstrom), charge = 0, multiplicity = 1:

    O            0.238361845352     0.011668830390     1.896101801101
    C            0.661347574300    -0.481763574706     0.908855749777
    C            0.053389624508    -0.338223211294    -0.464134499777
    O            1.720733563690    -1.323640921283     0.926749528806
    C           -1.164543353568     0.578634959498    -0.510296266269
    H            0.834777038396     0.011264456523    -1.135934083369
    H           -0.192769066134    -1.341056044139    -0.804191944105
    C           -1.757736715022     0.691292036522    -1.915581277712
    H           -0.886047539184     1.564047991027    -0.148702271378
    H           -1.916479708205     0.206403481034     0.178352953160
    C           -2.977252869665     1.610465896985    -1.968760710009
    H           -0.998503873476     1.060109361412    -2.602489326419
    H           -2.036391581335    -0.298161304562    -2.272266684656
    H           -2.723149597533     2.617112852391    -1.649693345364
    H           -3.377717209816     1.673116275687    -2.975684396581
    H           -3.768636367273     1.248493682563    -1.318993217193
    C            2.999182579629    -0.728511209722     1.000072611857
    H            3.197453611586    -0.127423578543     0.118435243370
    H            3.712945395186    -1.536118988593     1.046405277858
    H            3.085974538569    -0.114483394282     1.887354517007

  Mulliken Charges: (a.u.)
   Center  Symbol    Alpha    Beta     Spin     Total
       1     O     4.25472  4.25472  0.00000 -0.50944
       2     C     2.61241  2.61241  0.00000  0.77518
       3     C     3.21204  3.21204  0.00000 -0.42408
       4     O     4.31625  4.31625  0.00000 -0.63250
       5     C     3.15176  3.15176  0.00000 -0.30352
       6     H     0.40759  0.40759  0.00000  0.18481
       7     H     0.39763  0.39763  0.00000  0.20474
       8     C     3.15414  3.15414  0.00000 -0.30828
       9     H     0.41351  0.41351  0.00000  0.17299
      10     H     0.40999  0.40999  0.00000  0.18001
      11     C     3.23941  3.23941  0.00000 -0.47882
      12     H     0.42367  0.42367  0.00000  0.15266
      13     H     0.42219  0.42219  0.00000  0.15563
      14     H     0.42013  0.42013  0.00000  0.15975
      15     H     0.41845  0.41845  0.00000  0.16311
      16     H     0.41934  0.41934  0.00000  0.16132
      17     C     3.09332  3.09332  0.00000 -0.18664
      18     H     0.42266  0.42266  0.00000  0.15469
      19     H     0.40323  0.40323  0.00000  0.19353
      20     H     0.40757  0.40757  0.00000  0.18486

   Total alpha = 32.00000, Total beta = 32.00000, Total charge =  0.00000
