                              Psi4 1.0.54 Driver

  ==> Input File <==

--------------------------------------------------------------------------
set {
	reference rhf
	basis cc-pvtz
}

set_num_threads( 4 )
memory 2 gb

molecule MOL {
0 1

H	 1.660013	 -1.098030	 0.841599
O	 1.583947	 -0.677544	 -0.001533
C	 0.489979	 0.078084	 0.002623
C	 -0.763662	 -0.754014	 0.000816
O	 0.539051	 1.259395	 -0.000088
C	 -2.038001	 0.074705	 -0.000833
H	 -0.712945	 -1.405886	 -0.864342
H	 -0.715137	 -1.405770	 0.866182
H	 -2.087267	 0.710831	 -0.874232
H	 -2.903419	 -0.576199	 -0.001922
H	 -2.089467	 0.710909	 0.872389

	symmetry c1
}
set optking {
	frozen_dihedral = ("
		1 2 3 5
	")
}

ee,wfn = optimize('scf', return_wfn=True)
oeprop( wfn, 'DIPOLE', 'QUADRUPOLE', 'MULLIKEN_CHARGES')
f=open( 'psi4out.xyz', 'w' )
f.write( "11  " )
f.write( str(ee) + "\n" )
f.write( MOL.save_string_xyz() )
f.close()
--------------------------------------------------------------------------

    Molecular point group: c1
  Charge       = 0
  Multiplicity = 1
  Basis Set: CC-PVTZ
  Basis Set:
  @DF-RHF Final Energy:  -266.93245205894067
    Total Energy =                       -266.9324520589405552
    Molecular point group: c1
  Basis Set: CC-PVTZ
  Basis Set:
  Basis Set: CC-PVTZ
  Basis Set:
  @DF-RHF Final Energy:  -266.93391114805286
    Total Energy =                       -266.9339111480527436
  Basis Set: CC-PVTZ
  Basis Set:
  Basis Set: CC-PVTZ
  Basis Set:
  @DF-RHF Final Energy:  -266.93376510404528
    Total Energy =                       -266.9337651040453352
  Basis Set: CC-PVTZ
  Basis Set:
  Basis Set: CC-PVTZ
  Basis Set:
  @DF-RHF Final Energy:  -266.93404637119710
    Total Energy =                       -266.9340463711970415
  Basis Set: CC-PVTZ
  Basis Set:
  Basis Set: CC-PVTZ
  Basis Set:
  @DF-RHF Final Energy:  -266.93405532994865
    Total Energy =                       -266.9340553299487624
  Basis Set: CC-PVTZ
  Basis Set:
  Charge       = 0
  Multiplicity = 1
  Basis Set: CC-PVTZ
  Basis Set:

    Orbital Energies (a.u.)
    -----------------------

    Doubly Occupied:

       1A    -20.589103     2A    -20.550212     3A    -11.374853
       4A    -11.247619     5A    -11.221707     6A     -1.464951
       7A     -1.372763     8A     -1.066654     9A     -0.910297
      10A     -0.815272    11A     -0.716699    12A     -0.674595
      13A     -0.662628    14A     -0.617226    15A     -0.573941
      16A     -0.532264    17A     -0.522543    18A     -0.505046
      19A     -0.495239    20A     -0.449130

  @DF-RHF Final Energy:  -266.93405571422647

   => Energetics <=

    Nuclear Repulsion Energy =            179.4554872316075773
    One-Electron Energy =                -720.0535986497338854
    Two-Electron Energy =                 273.6640557038998054
    DFT Exchange-Correlation Energy =       0.0000000000000000
    Empirical Dispersion Energy =           0.0000000000000000
    PCM Polarization Energy =               0.0000000000000000
    EFP Energy =                            0.0000000000000000
    Total Energy =                       -266.9340557142265311
    Molecular point group: c1
  Basis Set: CC-PVTZ
  Basis Set:

  -Total Gradient:
     Atom            X                  Y                   Z
    ------   -----------------  -----------------  -----------------
       1        0.001827987119     0.002894749218     0.001142979350
       2       -0.002357664698    -0.003590020121    -0.000038208871
       3        0.000556632281     0.000554464331    -0.004235901855
       4        0.000021120925     0.000019920921    -0.000047213645
       5       -0.000033462023     0.000119170297     0.003142705704
       6       -0.000015877619    -0.000002605525     0.000012842457
       7       -0.000001921128     0.000000637557     0.000015933205
       8        0.000003870996     0.000003191442     0.000015895375
       9        0.000000965162    -0.000000557659    -0.000003818910
      10       -0.000004738945     0.000002938995    -0.000003187913
      11        0.000003087932    -0.000001889454    -0.000002024895

  **** Optimization is complete! (in 6 steps) ****
    Final optimized geometry and variables:
    Molecular point group: c1

    Geometry (in Angstrom), charge = 0, multiplicity = 1:

    H            1.774287916005    -1.049842170713     0.861352350671
    O            1.638358051588    -0.635393170977     0.025813664913
    C            0.493020795482     0.091997546745     0.000771066062
    C           -0.760816274201    -0.745554533063    -0.013731911327
    O            0.520882417706     1.264371593602    -0.037203152920
    C           -2.043665478370     0.069457402609    -0.032439245132
    H           -0.691341481858    -1.397373864845    -0.878008582360
    H           -0.727542633121    -1.402836764859     0.851097088035
    H           -2.084108110967     0.705408440908    -0.906203633387
    H           -2.903855522660    -0.588419202713    -0.046846321552
    H           -2.113983712190     0.705493234193     0.839939636991

  Mulliken Charges: (a.u.)
   Center  Symbol    Alpha    Beta     Spin     Total
       1     H     0.38927  0.38927  0.00000  0.22145
       2     O     4.16876  4.16876  0.00000 -0.33752
       3     C     2.80399  2.80399  0.00000  0.39202
       4     C     3.10607  3.10607  0.00000 -0.21214
       5     O     4.16031  4.16031  0.00000 -0.32062
       6     C     3.13916  3.13916  0.00000 -0.27832
       7     H     0.43722  0.43722  0.00000  0.12556
       8     H     0.45134  0.45134  0.00000  0.09732
       9     H     0.44518  0.44518  0.00000  0.10964
      10     H     0.45014  0.45014  0.00000  0.09973
      11     H     0.44856  0.44856  0.00000  0.10287

   Total alpha = 20.00000, Total beta = 20.00000, Total charge =  0.00000

*** Psi4 exiting successfully. Buy a developer a beer!
