  ==> Input File <==

--------------------------------------------------------------------------
set {
	reference rhf
	basis cc-pvtz
}

set_num_threads( 4 )
memory 2 gb

molecule MOL {
0 1

H	 -1.498998	 -1.833305	 -1.189355
N	 -0.793516	 -1.130700	 -1.254270
C	 -0.561396	 -0.500007	 0.035200
H	 -1.104787	 -0.461834	 -1.927370
C	 0.575129	 0.507849	 -0.048832
H	 -0.295882	 -1.278511	 0.742768
H	 -1.449002	 -0.005559	 0.432808
C	 1.951750	 -0.141983	 0.035101
H	 0.478254	 1.061643	 -0.975981
H	 0.467676	 1.231891	 0.755499
H	 2.101550	 -0.848142	 -0.774949
H	 2.738260	 0.600794	 -0.026526
H	 2.078939	 -0.679792	 0.968824

	symmetry c1
}
set optking {
	frozen_dihedral = ("
		6 3 5 9
	")
}

ee = optimize('scf')
oeprop('DIPOLE', 'QUADRUPOLE', 'MULLIKEN_CHARGES')
f=open( 'psi4out.xyz', 'w' )
f.write( "13  " )
f.write( str(ee) + "\n" )
f.write( MOL.save_string_xyz() )
f.close()
--------------------------------------------------------------------------

    Molecular point group: c1
  Charge       = 0
  Multiplicity = 1
  Basis Set: CC-PVTZ
  Basis Set:
  @DF-RHF Final Energy:  -173.35063317128208
    Total Energy =                       -173.3506331712819986
    Molecular point group: c1
  Basis Set: CC-PVTZ
  Basis Set:
  Basis Set: CC-PVTZ
  Basis Set:
  @DF-RHF Final Energy:  -173.35096830036852
    Total Energy =                       -173.3509683003684358
  Basis Set: CC-PVTZ
  Basis Set:
  Basis Set: CC-PVTZ
  Basis Set:
  @DF-RHF Final Energy:  -173.35103484135934
    Total Energy =                       -173.3510348413594784
  Basis Set: CC-PVTZ
  Basis Set:
  Basis Set: CC-PVTZ
  Basis Set:
  @DF-RHF Final Energy:  -173.35103753636901
    Total Energy =                       -173.3510375363688922
  Basis Set: CC-PVTZ
  Basis Set:
  Charge       = 0
  Multiplicity = 1
  Basis Set: CC-PVTZ
  Basis Set:

    Orbital Energies (a.u.)
    -----------------------

    Doubly Occupied:

       1A    -15.527244     2A    -11.238858     3A    -11.210522
       4A    -11.198819     5A     -1.178599     6A     -1.030578
       7A     -0.900228     8A     -0.795090     9A     -0.663034
      10A     -0.632752    11A     -0.600916    12A     -0.559240
      13A     -0.529766    14A     -0.489221    15A     -0.476046
      16A     -0.468031    17A     -0.383570

  @DF-RHF Final Energy:  -173.35103787368183

   => Energetics <=

    Nuclear Repulsion Energy =            133.5142937157571055
    One-Electron Energy =                -497.9656387555018000
    Two-Electron Energy =                 191.1003071660627768
    DFT Exchange-Correlation Energy =       0.0000000000000000
    Empirical Dispersion Energy =           0.0000000000000000
    PCM Polarization Energy =               0.0000000000000000
    EFP Energy =                            0.0000000000000000
    Total Energy =                       -173.3510378736819177
    Molecular point group: c1
  Basis Set: CC-PVTZ
  Basis Set:

  -Total Gradient:
     Atom            X                  Y                   Z
    ------   -----------------  -----------------  -----------------
       1        0.000000188372     0.000004240112    -0.000003224327
       2       -0.000019682983    -0.000013379226    -0.000009488124
       3       -0.001323318795     0.001676450200     0.002725961741
       4        0.000001678798    -0.000001205805     0.000007317556
       5       -0.002021759003     0.002402107665     0.001335207319
       6        0.001423977167    -0.001761252143    -0.002498235606
       7        0.000013139725    -0.000006992386    -0.000008672686
       8        0.000031152377    -0.000023077735    -0.000014274121
       9        0.001907101750    -0.002290870396    -0.001543332013
      10       -0.000006334705     0.000003306254    -0.000000631426
      11       -0.000004533255    -0.000001661551     0.000005583622
      12       -0.000001411154     0.000004779970     0.000008227298
      13       -0.000000198295     0.000007555041    -0.000004439233

  **** Optimization is complete! (in 5 steps) ****
    Final optimized geometry and variables:
    Molecular point group: c1

    Geometry (in Angstrom), charge = 0, multiplicity = 1:

    H           -1.701416149393    -1.540528276160    -0.874668200658
    N           -1.040247162012    -0.795668323230    -0.932964721443
    C           -0.850165445541    -0.156468557948     0.362644321528
    H           -1.387603206195    -0.143485766257    -1.604576426673
    C            0.301144062749     0.845325024551     0.304437771518
    H           -0.603718470462    -0.944675117444     1.065854613948
    H           -1.750831807177     0.336945799331     0.724559712106
    C            1.674351821568     0.180515571029     0.346886135765
    H            0.222071111478     1.409750588241    -0.620860113815
    H            0.209037805384     1.552873451422     1.121925030725
    H            1.770632535442    -0.548173227053    -0.447885792376
    H            2.466912727992     0.911730758123     0.233829988072
    H            1.829357140514    -0.330607744306     1.291613825243

  Mulliken Charges: (a.u.)
   Center  Symbol    Alpha    Beta     Spin     Total
       1     H     0.42862  0.42862  0.00000  0.14275
       2     N     3.69333  3.69333  0.00000 -0.38667
       3     C     3.02982  3.02982  0.00000 -0.05965
       4     H     0.43060  0.43060  0.00000  0.13880
       5     C     3.07830  3.07830  0.00000 -0.15660
       6     H     0.45934  0.45934  0.00000  0.08133
       7     H     0.46011  0.46011  0.00000  0.07977
       8     C     3.14873  3.14873  0.00000 -0.29746
       9     H     0.46081  0.46081  0.00000  0.07837
      10     H     0.45274  0.45274  0.00000  0.09452
      11     H     0.44723  0.44723  0.00000  0.10554
      12     H     0.45191  0.45191  0.00000  0.09617
      13     H     0.45844  0.45844  0.00000  0.08311

   Total alpha = 17.00000, Total beta = 17.00000, Total charge =  0.00000
