  ==> Input File <==

--------------------------------------------------------------------------
set {
	reference rhf
	basis cc-pvtz
}

set_num_threads( 4 )
memory 2 gb

molecule MOL {
0 1

H	 2.867672	 -0.456275	 0.875795
C	 2.403497	 -0.020426	 0.000000
N	 0.989899	 -0.304564	 0.000000
H	 2.867672	 -0.456275	 -0.875795
H	 2.620366	 1.051270	 0.000000
C	 0.315497	 0.242468	 1.159096
C	 0.709810	 -1.719258	 -0.133268
H	 0.709626	 -0.181435	 2.087920
H	 0.476987	 1.313680	 1.193045
C	 -1.172449	 -0.039396	 1.076557
H	 1.160621	 -2.087428	 -1.047570
H	 1.133597	 -2.290712	 0.698350
C	 -0.788267	 -1.950717	 -0.182602
H	 -1.670429	 0.283851	 1.979969
H	 -1.598993	 0.502361	 0.234739
O	 -1.420084	 -1.407137	 0.938323
H	 -1.008546	 -3.009046	 -0.189357
H	 -1.194931	 -1.507865	 -1.089578

	symmetry c1
}
set optking {
	frozen_dihedral = ("
		6 3 2 5
	")
}

ee = optimize('scf')
oeprop('DIPOLE', 'QUADRUPOLE', 'MULLIKEN_CHARGES')
f=open( 'psi4out.xyz', 'w' )
f.write( "18  " )
f.write( str(ee) + "\n" )
f.write( MOL.save_string_xyz() )
f.close()
--------------------------------------------------------------------------

    Molecular point group: c1
  Charge       = 0
  Multiplicity = 1
  Basis Set: CC-PVTZ
  Basis Set:
  @DF-RHF Final Energy:  -325.14510900463688
    Total Energy =                       -325.1451090046364243
    Molecular point group: c1
  Basis Set: CC-PVTZ
  Basis Set:
  Basis Set: CC-PVTZ
  Basis Set:
  @DF-RHF Final Energy:  -325.14574753724122
    Total Energy =                       -325.1457475372409363
  Basis Set: CC-PVTZ
  Basis Set:
  Basis Set: CC-PVTZ
  Basis Set:
  @DF-RHF Final Energy:  -325.14582494106173
    Total Energy =                       -325.1458249410619032
  Basis Set: CC-PVTZ
  Basis Set:
  Charge       = 0
  Multiplicity = 1
  Basis Set: CC-PVTZ
  Basis Set:

    Orbital Energies (a.u.)
    -----------------------

    Doubly Occupied:

       1A    -20.547661     2A    -15.544685     3A    -11.264447
       4A    -11.264418     5A    -11.242574     6A    -11.242556
       7A    -11.239214     8A     -1.386598     9A     -1.234460
      10A     -1.039236    11A     -0.982226    12A     -0.884109
      13A     -0.869539    14A     -0.774744    15A     -0.685228
      16A     -0.646749    17A     -0.645451    18A     -0.635365
      19A     -0.631362    20A     -0.574388    21A     -0.557088
      22A     -0.540705    23A     -0.527341    24A     -0.501801
      25A     -0.485230    26A     -0.454105    27A     -0.410812
      28A     -0.356176

  @DF-RHF Final Energy:  -325.14582548218380

   => Energetics <=

    Nuclear Repulsion Energy =            341.9889771327187873
    One-Electron Energy =               -1119.9330617235784757
    Two-Electron Energy =                 452.7982591086755519
    DFT Exchange-Correlation Energy =       0.0000000000000000
    Empirical Dispersion Energy =           0.0000000000000000
    PCM Polarization Energy =               0.0000000000000000
    EFP Energy =                            0.0000000000000000
    Total Energy =                       -325.1458254821841365
    Molecular point group: c1
  Basis Set: CC-PVTZ
  Basis Set:

  -Total Gradient:
     Atom            X                  Y                   Z
    ------   -----------------  -----------------  -----------------
       1       -0.000020197083    -0.000005562589     0.000006003615
       2        0.000026817898    -0.000175295194     0.000691871758
       3       -0.000125518700     0.000411831061    -0.000368022965
       4       -0.000020290900    -0.000003494827    -0.000005584669
       5       -0.000029257255     0.000000971656    -0.000499833440
       6        0.000077177516    -0.000287914215     0.000136927986
       7        0.000094908374    -0.000055543266    -0.000016991134
       8       -0.000014099560    -0.000003994901    -0.000009060924
       9       -0.000010189391     0.000014068200     0.000023795340
      10       -0.000004369661     0.000000452669     0.000032266378
      11        0.000014088076    -0.000013987119    -0.000011139519
      12        0.000001303052     0.000009755401     0.000004873733
      13        0.000013662457     0.000123344470    -0.000009200601
      14       -0.000010947720    -0.000005395483     0.000001651989
      15        0.000011459166    -0.000001143748     0.000002207675
      16       -0.000028810130    -0.000015923787     0.000039262192
      17        0.000037618984     0.000019603063     0.000006598265
      18       -0.000013355126    -0.000011771392    -0.000025625680

  **** Optimization is complete! (in 4 steps) ****
    Final optimized geometry and variables:
    Molecular point group: c1

    Geometry (in Angstrom), charge = 0, multiplicity = 1:

    H            2.769737156713     0.293234729261     0.457945680871
    C            2.256442566683     0.719064496555    -0.408414850200
    N            0.842002428074     0.439446236469    -0.414379378964
    H            2.715165397843     0.314448432576    -1.301951330285
    H            2.421342333915     1.789387886694    -0.406734300902
    C            0.166850934704     0.988484390650     0.743427400701
    C            0.558567587649    -0.974973991274    -0.545027916927
    H            0.557648952518     0.562374097911     1.672638517434
    H            0.332131374618     2.059257181019     0.778899078821
    C           -1.321985434918     0.711798923527     0.658110641965
    H            1.010808518769    -1.346981226948    -1.457149321027
    H            0.977739895269    -1.545879714401     0.289366505995
    C           -0.940209298744    -1.201640716440    -0.598379544253
    H           -1.820553371788     1.037408422876     1.560433917216
    H           -1.744750379508     1.254983498175    -0.184756176444
    O           -1.574064435534    -0.655047602207     0.519859586609
    H           -1.163326439277    -2.259418660866    -0.604885625263
    H           -1.342419242026    -0.758735250049    -1.507414561973

  Mulliken Charges: (a.u.)
   Center  Symbol    Alpha    Beta     Spin     Total
       1     H     0.46941  0.46941  0.00000  0.06118
       2     C     3.09495  3.09495  0.00000 -0.18990
       3     N     3.61707  3.61707  0.00000 -0.23414
       4     H     0.45181  0.45181  0.00000  0.09639
       5     H     0.45130  0.45130  0.00000  0.09740
       6     C     3.04117  3.04117  0.00000 -0.08234
       7     C     3.04088  3.04088  0.00000 -0.08177
       8     H     0.46865  0.46865  0.00000  0.06270
       9     H     0.45397  0.45397  0.00000  0.09205
      10     C     2.98346  2.98346  0.00000  0.03308
      11     H     0.45389  0.45389  0.00000  0.09222
      12     H     0.46894  0.46894  0.00000  0.06212
      13     C     2.98353  2.98353  0.00000  0.03293
      14     H     0.44973  0.44973  0.00000  0.10054
      15     H     0.46750  0.46750  0.00000  0.06499
      16     O     4.18646  4.18646  0.00000 -0.37293
      17     H     0.44974  0.44974  0.00000  0.10051
      18     H     0.46752  0.46752  0.00000  0.06497

   Total alpha = 28.00000, Total beta = 28.00000, Total charge = -0.00000
