  ==> Input File <==

--------------------------------------------------------------------------
set {
	reference rhf
	basis 6-31G*
}

set_num_threads( 4 )
memory 2 gb

molecule MOL {
0 1

O	 2.151022	 0.765797	 0.733206
C	 2.701189	 0.057885	 -0.047330
C	 2.765372	 0.275230	 -1.539788
O	 3.347903	 -1.046386	 0.304773
C	 2.044470	 1.542936	 -1.992929
H	 3.814740	 0.283401	 -1.815380
H	 2.341006	 -0.606532	 -2.013186
C	 2.010285	 1.723092	 -3.514398
H	 2.513016	 2.406608	 -1.530700
H	 1.027977	 1.516250	 -1.615499
C	 3.374876	 1.962888	 -4.166700
H	 1.364516	 2.568831	 -3.738970
H	 1.539063	 0.854361	 -3.971855
C	 3.275636	 2.245626	 -5.667103
H	 3.864169	 2.801950	 -3.674372
H	 4.019923	 1.100603	 -4.013888
C	 4.633677	 2.481639	 -6.330544
H	 2.641922	 3.116115	 -5.828006
H	 2.776816	 1.411695	 -6.158465
C	 4.525479	 2.767061	 -7.828051
H	 5.133933	 3.314007	 -5.840086
H	 5.267023	 1.610828	 -6.174526
H	 5.503823	 2.929883	 -8.269572
H	 3.926284	 3.653564	 -8.015863
H	 4.059837	 1.937476	 -8.352685
C	 4.728119	 -1.109107	 -0.004993
H	 4.882018	 -1.033965	 -1.071845
H	 5.068212	 -2.067527	 0.355250
H	 5.265056	 -0.311663	 0.488280

	symmetry c1
}
set optking {
	frozen_dihedral = ("
		1 2 4 26
	")
}

ee = optimize('scf')
oeprop('DIPOLE', 'QUADRUPOLE', 'MULLIKEN_CHARGES')
f=open( 'psi4out.xyz', 'w' )
f.write( "29  " )
f.write( str(ee) + "\n" )
f.write( MOL.save_string_xyz() )
f.close()
--------------------------------------------------------------------------

    Molecular point group: c1
  Charge       = 0
  Multiplicity = 1
  Basis Set: 6-31G*
  Basis Set:
  @DF-RHF Final Energy:  -501.01839306162481
    Total Energy =                       -501.0183930616251473
    Molecular point group: c1
  Basis Set: 6-31G*
  Basis Set:
  Basis Set: 6-31G*
  Basis Set:
  @DF-RHF Final Energy:  -501.01825882290518
    Total Energy =                       -501.0182588229054090
  Basis Set: 6-31G*
  Basis Set:
  Basis Set: 6-31G*
  Basis Set:
  @DF-RHF Final Energy:  -501.02236906309747
    Total Energy =                       -501.0223690630971305
  Basis Set: 6-31G*
  Basis Set:
  Basis Set: 6-31G*
  Basis Set:
  @DF-RHF Final Energy:  -501.02327133540894
    Total Energy =                       -501.0232713354093903
  Basis Set: 6-31G*
  Basis Set:
  @DF-RHF Final Energy:  -501.02349982377348
    Total Energy =                       -501.0234998237733635
  @DF-RHF Final Energy:  -501.02354233227572
    Total Energy =                       -501.0235423322751558
  Basis Set: 6-31G*
  Basis Set:
  @DF-RHF Final Energy:  -501.02354809640292
    Total Energy =                       -501.0235480964028056
  Basis Set: 6-31G*
  Basis Set:
  Basis Set: 6-31G*
  Basis Set:
  @DF-RHF Final Energy:  -501.02353880532257
    Total Energy =                       -501.0235388053224597
  Basis Set: 6-31G*
  Basis Set:
  Basis Set: 6-31G*
  Basis Set:
  @DF-RHF Final Energy:  -501.02355355450322
    Total Energy =                       -501.0235535545040193
  Basis Set: 6-31G*
  Basis Set:
  Charge       = 0
  Multiplicity = 1
  Basis Set: 6-31G*
  Basis Set:

    Orbital Energies (a.u.)
    -----------------------

    Doubly Occupied:

       1A    -20.588785     2A    -20.552507     3A    -11.374273
       4A    -11.294389     5A    -11.241195     6A    -11.223103
       7A    -11.221017     8A    -11.219912     9A    -11.218864
      10A    -11.217594    11A    -11.211487    12A     -1.458617
      13A     -1.367147    14A     -1.101056    15A     -1.068077
      16A     -1.014885    17A     -0.978519    18A     -0.942642
      19A     -0.869012    20A     -0.804366    21A     -0.794376
      22A     -0.762253    23A     -0.700774    24A     -0.678240
      25A     -0.674915    26A     -0.653531    27A     -0.633195
      28A     -0.615680    29A     -0.597009    30A     -0.590429
      31A     -0.571160    32A     -0.550056    33A     -0.548504
      34A     -0.531694    35A     -0.522736    36A     -0.505814
      37A     -0.489184    38A     -0.481705    39A     -0.474518
      40A     -0.465513    41A     -0.465442    42A     -0.454847
      43A     -0.441987    44A     -0.432123

  @DF-RHF Final Energy:  -501.02355353272696

   => Energetics <=

    Nuclear Repulsion Energy =            613.7446946801269405
    One-Electron Energy =               -1898.3302392360474187
    Two-Electron Energy =                 783.5619910231937411
    DFT Exchange-Correlation Energy =       0.0000000000000000
    Empirical Dispersion Energy =           0.0000000000000000
    PCM Polarization Energy =               0.0000000000000000
    EFP Energy =                            0.0000000000000000
    Total Energy =                       -501.0235535327267371
    Molecular point group: c1
  Basis Set: 6-31G*
  Basis Set:

  -Total Gradient:
     Atom            X                  Y                   Z
    ------   -----------------  -----------------  -----------------
       1        0.002575270202     0.001235818188     0.000209373907
       2       -0.003420161581    -0.001067691031     0.000649774996
       3        0.000010652611    -0.000059045322     0.000013705693
       4        0.000239513798    -0.001136300594    -0.003019815882
       5       -0.000019083415     0.000017137581     0.000010212544
       6       -0.000008895111     0.000020998224     0.000039769451
       7       -0.000011067942     0.000007031542     0.000004720463
       8       -0.000016102898    -0.000054833689    -0.000007735149
       9        0.000012532728    -0.000013123001    -0.000005094339
      10       -0.000022081959    -0.000003428318    -0.000005296217
      11        0.000017954109     0.000019074859     0.000019489688
      12        0.000010429146     0.000003354745     0.000035194764
      13       -0.000027226409     0.000000569332    -0.000009563366
      14       -0.000005549469     0.000008377121     0.000003583405
      15       -0.000007704598     0.000017823150    -0.000018899773
      16        0.000022792994     0.000004062456     0.000020470093
      17        0.000005047775    -0.000012046500     0.000003259416
      18        0.000016289142     0.000015498579     0.000007535796
      19       -0.000018739122     0.000012520763    -0.000006507534
      20        0.000002207363    -0.000026675871    -0.000005424145
      21       -0.000013330795     0.000004316128    -0.000006770621
      22        0.000009583610     0.000006711381     0.000008812021
      23        0.000000470979    -0.000006244265    -0.000000509602
      24        0.000003977128    -0.000000001820     0.000006635365
      25       -0.000003635471     0.000001151117    -0.000006578875
      26        0.000608399737     0.001011303145     0.002065088867
      27        0.000028295075    -0.000002544103     0.000010033373
      28        0.000028362677     0.000003130222    -0.000005034170
      29       -0.000018200304    -0.000006944014    -0.000010430189

  **** Optimization is complete! (in 10 steps) ****
    Final optimized geometry and variables:
    Molecular point group: c1

    Geometry (in Angstrom), charge = 0, multiplicity = 1:

    O           -0.925589836954    -0.126922399831     3.409431803156
    C           -0.462455953143    -0.914451278604     2.660312119115
    C           -0.405167198385    -0.729024042455     1.158918008964
    O            0.028456453897    -2.085427269766     3.117721204781
    C           -1.211630919111     0.475366317667     0.674476571386
    H            0.638875323745    -0.633411522079     0.874589644058
    H           -0.758642070225    -1.648684976542     0.699728698664
    C           -1.247626613456     0.621296192752    -0.850564491945
    H           -0.809470060550     1.377887851587     1.123038362221
    H           -2.226662166695     0.382585006631     1.045743901352
    C            0.100075684321     0.947040478809    -1.500944197651
    H           -1.951076541488     1.413713184821    -1.094940351945
    H           -1.652342529854    -0.287599561794    -1.293257406877
    C           -0.010201134552     1.192547625003    -3.007162014181
    H            0.524596366384     1.828607974876    -1.023076517216
    H            0.805342090940     0.136673050541    -1.329048546374
    C            1.332352270827     1.505348422514    -3.670347861526
    H           -0.699604005004     2.015446863906    -3.187574758787
    H           -0.450111577127     0.317690522946    -3.483320239539
    C            1.213293050370     1.748526246578    -5.174461834584
    H            1.772135510412     2.380762824947    -3.197226187567
    H            2.022630744576     0.683362883047    -3.491902976072
    H            2.180862984585     1.966683374051    -5.615760566338
    H            0.557006767857     2.588204069766    -5.384919306651
    H            0.807229289195     0.877784686722    -5.681563247568
    C            1.386037303924    -2.395435169135     2.896815959721
    H            1.584893371485    -2.615831697399     1.854484017910
    H            1.595009140818    -3.273165499717     3.488075967096
    H            2.026091217241    -1.585308925931     3.226995287225

  Mulliken Charges: (a.u.)
   Center  Symbol    Alpha    Beta     Spin     Total
       1     O     4.25275  4.25275  0.00000 -0.50550
       2     C     2.60956  2.60956  0.00000  0.78088
       3     C     3.22373  3.22373  0.00000 -0.44746
       4     O     4.31188  4.31188  0.00000 -0.62376
       5     C     3.15260  3.15260  0.00000 -0.30520
       6     H     0.40424  0.40424  0.00000  0.19151
       7     H     0.40152  0.40152  0.00000  0.19696
       8     C     3.15678  3.15678  0.00000 -0.31355
       9     H     0.41036  0.41036  0.00000  0.17929
      10     H     0.40857  0.40857  0.00000  0.18286
      11     C     3.15497  3.15497  0.00000 -0.30995
      12     H     0.41721  0.41721  0.00000  0.16558
      13     H     0.42353  0.42353  0.00000  0.15294
      14     C     3.15032  3.15032  0.00000 -0.30064
      15     H     0.42206  0.42206  0.00000  0.15587
      16     H     0.42598  0.42598  0.00000  0.14804
      17     C     3.15149  3.15149  0.00000 -0.30298
      18     H     0.42256  0.42256  0.00000  0.15488
      19     H     0.42379  0.42379  0.00000  0.15242
      20     C     3.23942  3.23942  0.00000 -0.47885
      21     H     0.42255  0.42255  0.00000  0.15489
      22     H     0.42417  0.42417  0.00000  0.15167
      23     H     0.41898  0.41898  0.00000  0.16203
      24     H     0.42111  0.42111  0.00000  0.15779
      25     H     0.42169  0.42169  0.00000  0.15662
      26     C     3.09338  3.09338  0.00000 -0.18677
      27     H     0.41974  0.41974  0.00000  0.16051
      28     H     0.40024  0.40024  0.00000  0.19952
      29     H     0.41480  0.41480  0.00000  0.17039

   Total alpha = 44.00000, Total beta = 44.00000, Total charge = -0.00000
