  ==> Input File <==

--------------------------------------------------------------------------
set {
	reference rhf
	basis 6-31G*
}

set_num_threads( 4 )
memory 2 gb

molecule MOL {
0 1

H	 -1.094601	 -0.880507	 0.189142
N	 -0.712432	 0.000013	 -0.096310
C	 0.734192	 -0.000004	 0.040609
H	 -1.123202	 0.699247	 0.491225
H	 1.139899	 -0.873598	 -0.456463
H	 1.139939	 0.873831	 -0.456100
H	 1.096456	 -0.000300	 1.069655

	symmetry c1
}
set optking {
	frozen_dihedral = ("
		1 2 3 7
	")
}

ee = optimize('scf')
oeprop('DIPOLE', 'QUADRUPOLE', 'MULLIKEN_CHARGES')
f=open( 'psi4out.xyz', 'w' )
f.write( "7  " )
f.write( str(ee) + "\n" )
f.write( MOL.save_string_xyz() )
f.close()
--------------------------------------------------------------------------

    Molecular point group: c1
  Charge       = 0
  Multiplicity = 1
  Basis Set: 6-31G*
  Basis Set:
  @DF-RHF Final Energy:   -95.20948960132846
    Total Energy =                        -95.2094896013284142
    Molecular point group: c1
  Basis Set: 6-31G*
  Basis Set:
  Basis Set: 6-31G*
  Basis Set:
  @DF-RHF Final Energy:   -95.20951457413511
    Total Energy =                        -95.2095145741350848
  Basis Set: 6-31G*
  Basis Set:
  Charge       = 0
  Multiplicity = 1
  Basis Set: 6-31G*
  Basis Set:

    Orbital Energies (a.u.)
    -----------------------

    Doubly Occupied:

       1A    -15.534125     2A    -11.237350     3A     -1.170176
       4A     -0.896514     5A     -0.665436     6A     -0.602062
       7A     -0.557470     8A     -0.518116     9A     -0.382192

  @DF-RHF Final Energy:   -95.20951668753685

   => Energetics <=

    Nuclear Repulsion Energy =             42.3336528577235853
    One-Electron Energy =                -211.9594598871987046
    Two-Electron Energy =                  74.4162903419382360
    DFT Exchange-Correlation Energy =       0.0000000000000000
    Empirical Dispersion Energy =           0.0000000000000000
    PCM Polarization Energy =               0.0000000000000000
    EFP Energy =                            0.0000000000000000
    Total Energy =                        -95.2095166875368761
    Molecular point group: c1
  Basis Set: 6-31G*
  Basis Set:

  -Total Gradient:
     Atom            X                  Y                   Z
    ------   -----------------  -----------------  -----------------
       1        0.000171503167    -0.000604742415    -0.001533240752
       2       -0.000276982302     0.001134776506     0.001856153650
       3        0.000188455450    -0.002149653928    -0.000285487489
       4        0.000061750479     0.000043200469    -0.000007885713
       5       -0.000098519548     0.000006292939    -0.000026880013
       6       -0.000021583533     0.000004275103     0.000017979142
       7       -0.000024623713     0.001565851326    -0.000020638825

  **** Optimization is complete! (in 3 steps) ****
    Final optimized geometry and variables:
    Molecular point group: c1

    Geometry (in Angstrom), charge = 0, multiplicity = 1:

    H           -1.096449938667    -0.874284830659     0.193097113719
    N           -0.712478906917     0.004647547555    -0.092674397736
    C            0.734530209395     0.005773859327     0.039138929068
    H           -1.127547358695     0.714229634428     0.478177597540
    H            1.139646405776    -0.863303403357    -0.465346805877
    H            1.138852354366     0.884285127190    -0.451511563744
    H            1.099004662453     0.005750464929     1.067213678131

  Mulliken Charges: (a.u.)
   Center  Symbol    Alpha    Beta     Spin     Total
       1     H     0.33335  0.33335  0.00000  0.33330
       2     N     3.91841  3.91841  0.00000 -0.83682
       3     C     3.14700  3.14700  0.00000 -0.29399
       4     H     0.33318  0.33318  0.00000  0.33364
       5     H     0.41795  0.41795  0.00000  0.16411
       6     H     0.41686  0.41686  0.00000  0.16628
       7     H     0.43326  0.43326  0.00000  0.13349

   Total alpha =  9.00000, Total beta =  9.00000, Total charge =  0.00000
