  ==> Input File <==

--------------------------------------------------------------------------
set {
	reference rhf
	basis 6-31G*
}

set_num_threads( 1 )
memory 2 gb

molecule MOL {
0 1

O	 1.381333	 2.107614	 -0.189326
C	 0.331796	 2.509768	 -0.576445
C	 -0.963431	 1.735066	 -0.566939
O	 0.160146	 3.726984	 -1.076504
C	 -0.823008	 0.326187	 0.001381
H	 -1.685934	 2.317466	 -0.001686
H	 -1.335825	 1.712663	 -1.587498
C	 -2.149452	 -0.435131	 -0.000098
H	 -0.432892	 0.385753	 1.012544
H	 -0.083322	 -0.220062	 -0.575494
C	 -3.368779	 0.488503	 -0.000883
H	 -2.193746	 -1.087250	 -0.871175
H	 -2.195311	 -1.087803	 0.870418
C	 -4.693822	 -0.272754	 -0.001129
H	 -3.325798	 1.139422	 -0.871284
H	 -3.326423	 1.139959	 0.869145
H	 -4.781274	 -0.907928	 -0.878124
H	 -5.538651	 0.408946	 -0.001420
H	 -4.781694	 -0.907783	 0.875984
C	 1.301698	 4.562269	 -1.140636
H	 1.706071	 4.729689	 -0.152718
H	 0.962849	 5.492773	 -1.568678
H	 2.063141	 4.117976	 -1.765387

	symmetry c1
}
set optking {
	frozen_dihedral = ("
		15 11 8 12,
		1 2 3 6,
		9 5 3 6,
		1 2 4 20
	")
}

ee = energy('scf')
oeprop('DIPOLE', 'QUADRUPOLE', 'MULLIKEN_CHARGES')
f=open( 'psi4out.xyz', 'w' )
f.write( "23  " )
f.write( str(ee) + "\n" )
f.write( MOL.save_string_xyz() )
f.close()
--------------------------------------------------------------------------

    Molecular point group: c1

    Geometry (in Angstrom), charge = 0, multiplicity = 1:

       Center              X                  Y                   Z               Mass
    ------------   -----------------  -----------------  -----------------  -----------------
           O          2.341123780994     0.434589350895     0.213024526890    15.994914619560
           C          1.291586780994     0.836743350895    -0.174094473110    12.000000000000
           C         -0.003640219006     0.062041350895    -0.164588473110    12.000000000000
           O          1.119936780994     2.053959350895    -0.674153473110    15.994914619560
           C          0.136782780994    -1.346837649105     0.403731526890    12.000000000000
           H         -0.726143219006     0.644441350895     0.400664526890     1.007825032070
           H         -0.376034219006     0.039638350895    -1.185147473110     1.007825032070
           C         -1.189661219006    -2.108155649105     0.402252526890    12.000000000000
           H          0.526898780994    -1.287271649105     1.414894526890     1.007825032070
           H          0.876468780994    -1.893086649105    -0.173143473110     1.007825032070
           C         -2.408988219006    -1.184521649105     0.401467526890    12.000000000000
           H         -1.233955219006    -2.760274649105    -0.468824473110     1.007825032070
           H         -1.235520219006    -2.760827649105     1.272768526890     1.007825032070
           C         -3.734031219006    -1.945778649105     0.401221526890    12.000000000000
           H         -2.366007219006    -0.533602649105    -0.468933473110     1.007825032070
           H         -2.366632219006    -0.533065649105     1.271495526890     1.007825032070
           H         -3.821483219006    -2.580952649105    -0.475773473110     1.007825032070
           H         -4.578860219006    -1.264078649105     0.400930526890     1.007825032070
           H         -3.821903219006    -2.580807649105     1.278334526890     1.007825032070
           C          2.261488780994     2.889244350895    -0.738285473110    12.000000000000
           H          2.665861780994     3.056664350895     0.249632526890     1.007825032070
           H          1.922639780994     3.819748350895    -1.166327473110     1.007825032070
           H          3.022931780994     2.444951350895    -1.363036473110     1.007825032070

  Charge       = 0
  Multiplicity = 1
  Basis Set: 6-31G*
  Basis Set:

    Orbital Energies (a.u.)
    -----------------------

    Doubly Occupied:

       1A    -20.603003     2A    -20.544339     3A    -11.370901
       4A    -11.280450     5A    -11.233793     6A    -11.218782
       7A    -11.218233     8A    -11.216845     9A    -11.210840
      10A     -1.468536    11A     -1.361869    12A     -1.098444
      13A     -1.038627    14A     -0.986798    15A     -0.932788
      16A     -0.855515    17A     -0.793724    18A     -0.757667
      19A     -0.700504    20A     -0.683023    21A     -0.670495
      22A     -0.649653    23A     -0.609881    24A     -0.600945
      25A     -0.579307    26A     -0.560441    27A     -0.552419
      28A     -0.526129    29A     -0.520936    30A     -0.512064
      31A     -0.496673    32A     -0.468446    33A     -0.457747
      34A     -0.455755    35A     -0.451118    36A     -0.436109

  @DF-RHF Final Energy:  -422.96554201857413

   => Energetics <=

    Nuclear Repulsion Energy =            462.3358855139741195
    One-Electron Energy =               -1492.3571641935000116
    Two-Electron Energy =                 607.0557366609529026
    DFT Exchange-Correlation Energy =       0.0000000000000000
    Empirical Dispersion Energy =           0.0000000000000000
    PCM Polarization Energy =               0.0000000000000000
    EFP Energy =                            0.0000000000000000
    Total Energy =                       -422.9655420185730463

  Mulliken Charges: (a.u.)
   Center  Symbol    Alpha    Beta     Spin     Total
       1     O     4.28621  4.28621  0.00000 -0.57243
       2     C     2.60220  2.60220  0.00000  0.79559
       3     C     3.21886  3.21886  0.00000 -0.43772
       4     O     4.30734  4.30734  0.00000 -0.61467
       5     C     3.15355  3.15355  0.00000 -0.30710
       6     H     0.39660  0.39660  0.00000  0.20681
       7     H     0.40019  0.40019  0.00000  0.19963
       8     C     3.15449  3.15449  0.00000 -0.30898
       9     H     0.41055  0.41055  0.00000  0.17890
      10     H     0.40911  0.40911  0.00000  0.18179
      11     C     3.16221  3.16221  0.00000 -0.32441
      12     H     0.42110  0.42110  0.00000  0.15780
      13     H     0.41815  0.41815  0.00000  0.16370
      14     C     3.23703  3.23703  0.00000 -0.47405
      15     H     0.41949  0.41949  0.00000  0.16102
      16     H     0.42200  0.42200  0.00000  0.15600
      17     H     0.42138  0.42138  0.00000  0.15723
      18     H     0.41917  0.41917  0.00000  0.16167
      19     H     0.42121  0.42121  0.00000  0.15758
      20     C     3.09231  3.09231  0.00000 -0.18463
      21     H     0.40914  0.40914  0.00000  0.18172
      22     H     0.40856  0.40856  0.00000  0.18287
      23     H     0.40917  0.40917  0.00000  0.18167

   Total alpha = 36.00000, Total beta = 36.00000, Total charge =  0.00000
