  ==> Input File <==

--------------------------------------------------------------------------
set {
	reference rhf
	basis 6-31G*
}

set_num_threads( 4 )
memory 2 gb

molecule MOL {
0 1

H	 3.840390	 0.214148	 0.413719
N	 3.092854	 -0.246221	 -0.068770
C	 1.865559	 0.531981	 0.018834
H	 2.973547	 -1.140361	 0.368390
C	 0.645745	 -0.382037	 -0.029944
H	 1.841966	 1.207024	 -0.831236
H	 1.815756	 1.155410	 0.915079
C	 -0.679275	 0.379305	 0.025956
H	 0.698998	 -0.976915	 -0.937203
H	 0.693479	 -1.083846	 0.802235
C	 -1.903357	 -0.536963	 -0.023547
H	 -0.726309	 1.082987	 -0.803784
H	 -0.717680	 0.977832	 0.934877
C	 -3.225172	 0.228290	 0.028445
H	 -1.867824	 -1.134999	 -0.931459
H	 -1.860449	 -1.239604	 0.805977
H	 -3.313397	 0.915643	 -0.808262
H	 -4.073500	 -0.448134	 -0.008893
H	 -3.306061	 0.809945	 0.942516

	symmetry c1
}
set optking {
	frozen_dihedral = ("
		1 2 3 6
	")
}

ee = optimize('scf')
oeprop('DIPOLE', 'QUADRUPOLE', 'MULLIKEN_CHARGES')
f=open( 'psi4out.xyz', 'w' )
f.write( "19  " )
f.write( str(ee) + "\n" )
f.write( MOL.save_string_xyz() )
f.close()
--------------------------------------------------------------------------

    Molecular point group: c1
  Charge       = 0
  Multiplicity = 1
  Basis Set: 6-31G*
  Basis Set:
  @DF-RHF Final Energy:  -251.34915918380409
    Total Energy =                       -251.3491591838040904
    Molecular point group: c1
  Basis Set: 6-31G*
  Basis Set:
  Basis Set: 6-31G*
  Basis Set:
  @DF-RHF Final Energy:  -251.34934351870811
    Total Energy =                       -251.3493435187082810
  Basis Set: 6-31G*
  Basis Set:
  Basis Set: 6-31G*
  Basis Set:
  @DF-RHF Final Energy:  -251.34938559833154
    Total Energy =                       -251.3493855983317644
  Basis Set: 6-31G*
  Basis Set:
  Basis Set: 6-31G*
  Basis Set:
  @DF-RHF Final Energy:  -251.34938689387189
    Total Energy =                       -251.3493868938716673
  Basis Set: 6-31G*
  Basis Set:
  Basis Set: 6-31G*
  Basis Set:
  @DF-RHF Final Energy:  -251.34938806345897
    Total Energy =                       -251.3493880634588891
  Basis Set: 6-31G*
  Basis Set:
  Charge       = 0
  Multiplicity = 1
  Basis Set: 6-31G*
  Basis Set:

    Orbital Energies (a.u.)
    -----------------------

    Doubly Occupied:

       1A    -15.531541     2A    -11.239477     3A    -11.216148
       4A    -11.215463     5A    -11.214717     6A    -11.209004
       7A     -1.175924     8A     -1.075247     9A     -1.000233
      10A     -0.901358    11A     -0.816133    12A     -0.792801
      13A     -0.656569    14A     -0.647383    15A     -0.614841
      16A     -0.594870    17A     -0.564367    18A     -0.542749
      19A     -0.540266    20A     -0.496291    21A     -0.486990
      22A     -0.467614    23A     -0.464151    24A     -0.449177
      25A     -0.381583

  @DF-RHF Final Energy:  -251.34938835249724

   => Energetics <=

    Nuclear Repulsion Energy =            245.7652849416521406
    One-Electron Energy =                -825.6395547884906136
    Two-Electron Energy =                 328.5248814943411162
    DFT Exchange-Correlation Energy =       0.0000000000000000
    Empirical Dispersion Energy =           0.0000000000000000
    PCM Polarization Energy =               0.0000000000000000
    EFP Energy =                            0.0000000000000000
    Total Energy =                       -251.3493883524973853
    Molecular point group: c1
  Basis Set: 6-31G*
  Basis Set:

  -Total Gradient:
     Atom            X                  Y                   Z
    ------   -----------------  -----------------  -----------------
       1       -0.000763671685    -0.001870020467     0.003143272795
       2        0.000599360851     0.001790378430    -0.004340168394
       3        0.001863169680     0.002407171823     0.003014924357
       4        0.000011719008    -0.000033153835     0.000003354136
       5       -0.000010466036    -0.000001768724    -0.000031857287
       6       -0.001678537315    -0.002333018084    -0.001811046235
       7       -0.000015729728     0.000022778752    -0.000000772995
       8       -0.000006393634     0.000000241042    -0.000000472854
       9        0.000008961974     0.000008110865     0.000018143435
      10        0.000009325981     0.000006366618    -0.000006191969
      11       -0.000007545346     0.000003652896     0.000018184546
      12       -0.000002555585     0.000011082666    -0.000002141975
      13        0.000001815749    -0.000007362519    -0.000001609830
      14       -0.000005278103    -0.000005265499    -0.000011203759
      15        0.000000051772    -0.000001637292     0.000005115499
      16       -0.000002371473     0.000000670447     0.000003923552
      17        0.000000564666     0.000004951600     0.000001146100
      18       -0.000002492422     0.000001606366    -0.000004919388
      19        0.000000071646    -0.000004785085     0.000002320267

  **** Optimization is complete! (in 6 steps) ****
    Final optimized geometry and variables:
    Molecular point group: c1

    Geometry (in Angstrom), charge = 0, multiplicity = 1:

    H            3.862894893171     0.217021324134     0.358489335331
    N            3.100677331020    -0.235660399658    -0.108081307990
    C            1.868757639636     0.535243402715     0.041564371444
    H            3.002641854028    -1.126598568686     0.341371219000
    C            0.647229161376    -0.378947883520    -0.011156041536
    H            1.801386920844     1.234322290801    -0.786771643991
    H            1.843211508747     1.115853591910     0.964199871206
    C           -0.677521661182     0.383791266290     0.026778202877
    H            0.702955760799    -0.976908447049    -0.917672438655
    H            0.685636463880    -1.076605808500     0.825121069310
    C           -1.901804355260    -0.532492481072    -0.018342004859
    H           -0.718111569779     1.076568516794    -0.811792368274
    H           -0.719793861217     0.993122970004     0.928209659543
    C           -3.223052139929     0.234782822974     0.014075814813
    H           -1.860759963134    -1.142756940943    -0.917851018735
    H           -1.865456382935    -1.223649715756     0.821084602479
    H           -3.304718421921     0.910673791664    -0.832478163076
    H           -4.071678655363    -0.441413500529    -0.019918671098
    H           -3.309606597577     0.828775700736     0.919614642753

  Mulliken Charges: (a.u.)
   Center  Symbol    Alpha    Beta     Spin     Total
       1     H     0.33360  0.33360  0.00000  0.33280
       2     N     3.92418  3.92418  0.00000 -0.84836
       3     C     3.05104  3.05104  0.00000 -0.10208
       4     H     0.33540  0.33540  0.00000  0.32920
       5     C     3.16420  3.16420  0.00000 -0.32841
       6     H     0.41989  0.41989  0.00000  0.16022
       7     H     0.43290  0.43290  0.00000  0.13421
       8     C     3.15368  3.15368  0.00000 -0.30736
       9     H     0.41385  0.41385  0.00000  0.17229
      10     H     0.42723  0.42723  0.00000  0.14553
      11     C     3.15127  3.15127  0.00000 -0.30255
      12     H     0.42180  0.42180  0.00000  0.15640
      13     H     0.42401  0.42401  0.00000  0.15197
      14     C     3.23948  3.23948  0.00000 -0.47895
      15     H     0.42182  0.42182  0.00000  0.15635
      16     H     0.42328  0.42328  0.00000  0.15344
      17     H     0.42132  0.42132  0.00000  0.15735
      18     H     0.41907  0.41907  0.00000  0.16186
      19     H     0.42196  0.42196  0.00000  0.15607

   Total alpha = 25.00000, Total beta = 25.00000, Total charge = -0.00000
