  ==> Input File <==

--------------------------------------------------------------------------
set {
	reference rhf
	basis 6-31G*
}

set_num_threads( 1 )
memory 2 gb

molecule MOL {
0 1

O	 3.678856	 -2.320370	 2.084526
C	 2.942916	 -1.701192	 1.385904
C	 1.455159	 -1.548334	 1.590847
O	 3.347903	 -1.046386	 0.304773
C	 0.942776	 -2.275458	 2.832164
H	 1.246631	 -0.484212	 1.627623
H	 0.965865	 -1.915816	 0.692378
C	 -0.579751	 -2.217794	 2.996731
H	 1.423932	 -1.862666	 3.713760
H	 1.255228	 -3.312739	 2.778829
C	 -1.146843	 -0.821946	 3.270816
H	 -0.854465	 -2.872265	 3.820700
H	 -1.056257	 -2.633413	 2.110045
C	 -2.653644	 -0.833505	 3.536179
H	 -0.634054	 -0.389661	 4.128717
H	 -0.943597	 -0.163138	 2.429605
C	 -3.232225	 0.556629	 3.806181
H	 -2.864340	 -1.480731	 4.385850
H	 -3.166133	 -1.275505	 2.683131
C	 -4.736735	 0.535871	 4.073988
H	 -2.720529	 1.000164	 4.657701
H	 -3.026425	 1.203809	 2.956131
H	 -5.117116	 1.535222	 4.261647
H	 -4.972275	 -0.075670	 4.940437
H	 -5.280370	 0.128963	 3.225955
C	 4.728119	 -1.109107	 -0.004993
H	 4.882018	 -1.033965	 -1.071845
H	 5.068212	 -2.067527	 0.355250
H	 5.265056	 -0.311663	 0.488280

	symmetry c1
}
set optking {
	frozen_dihedral = ("
		21 17 14 11,
		17 14 11 15,
		15 11 8 5,
		6 3 5 9,
		11 8 5 9,
		1 2 4 26,
		6 3 2 1
	")
}

ee = energy('scf')
oeprop('DIPOLE', 'QUADRUPOLE', 'MULLIKEN_CHARGES')
f=open( 'psi4out.xyz', 'w' )
f.write( "29  " )
f.write( str(ee) + "\n" )
f.write( MOL.save_string_xyz() )
f.close()
--------------------------------------------------------------------------

    Molecular point group: c1

    Geometry (in Angstrom), charge = 0, multiplicity = 1:

       Center              X                  Y                   Z               Mass
    ------------   -----------------  -----------------  -----------------  -----------------
           O          3.208241008891    -1.163319988563    -0.246657770265    15.994914619560
           C          2.472301008891    -0.544141988563    -0.945279770265    12.000000000000
           C          0.984544008891    -0.391283988563    -0.740336770265    12.000000000000
           O          2.877288008891     0.110664011437    -2.026410770265    15.994914619560
           C          0.472161008891    -1.118407988563     0.500980229735    12.000000000000
           H          0.776016008891     0.672838011437    -0.703560770265     1.007825032070
           H          0.495250008891    -0.758765988563    -1.638805770265     1.007825032070
           C         -1.050365991109    -1.060743988563     0.665547229735    12.000000000000
           H          0.953317008891    -0.705615988563     1.382576229735     1.007825032070
           H          0.784613008891    -2.155688988563     0.447645229735     1.007825032070
           C         -1.617457991109     0.335104011437     0.939632229735    12.000000000000
           H         -1.325079991109    -1.715214988563     1.489516229735     1.007825032070
           H         -1.526871991109    -1.476362988563    -0.221138770265     1.007825032070
           C         -3.124258991109     0.323545011437     1.204995229735    12.000000000000
           H         -1.104668991109     0.767389011437     1.797533229735     1.007825032070
           H         -1.414211991109     0.993912011437     0.098421229735     1.007825032070
           C         -3.702839991109     1.713679011437     1.474997229735    12.000000000000
           H         -3.334954991109    -0.323680988563     2.054666229735     1.007825032070
           H         -3.636747991109    -0.118454988563     0.351947229735     1.007825032070
           C         -5.207349991109     1.692921011437     1.742804229735    12.000000000000
           H         -3.191143991109     2.157214011437     2.326517229735     1.007825032070
           H         -3.497039991109     2.360859011437     0.624947229735     1.007825032070
           H         -5.587730991109     2.692272011437     1.930463229735     1.007825032070
           H         -5.442889991109     1.081380011437     2.609253229735     1.007825032070
           H         -5.750984991109     1.286013011437     0.894771229735     1.007825032070
           C          4.257504008891     0.047943011437    -2.336176770265    12.000000000000
           H          4.411403008891     0.123085011437    -3.403028770265     1.007825032070
           H          4.597597008891    -0.910476988563    -1.975933770265     1.007825032070
           H          4.794441008891     0.845387011437    -1.842903770265     1.007825032070

  Charge       = 0
  Multiplicity = 1
  Basis Set: 6-31G*
  Basis Set:

    Orbital Energies (a.u.)
    -----------------------

    Doubly Occupied:

       1A    -20.602636     2A    -20.545248     3A    -11.373347
       4A    -11.277737     5A    -11.235244     6A    -11.219369
       7A    -11.217832     8A    -11.216116     9A    -11.215920
      10A    -11.214548    11A    -11.209129    12A     -1.469538
      13A     -1.362827    14A     -1.098303    15A     -1.067029
      16A     -1.019507    17A     -0.976461    18A     -0.928197
      19A     -0.861635    20A     -0.799290    21A     -0.790524
      22A     -0.763111    23A     -0.703347    24A     -0.681726
      25A     -0.673315    26A     -0.651402    27A     -0.628955
      28A     -0.606588    29A     -0.594893    30A     -0.581430
      31A     -0.568071    32A     -0.549648    33A     -0.533372
      34A     -0.526369    35A     -0.512787    36A     -0.510931
      37A     -0.496713    38A     -0.477980    39A     -0.470352
      40A     -0.462450    41A     -0.458847    42A     -0.455439
      43A     -0.440996    44A     -0.436170

  @DF-RHF Final Energy:  -501.04114930631943

   => Energetics <=

    Nuclear Repulsion Energy =            610.3806764331997101
    One-Electron Energy =               -1891.8732958349637556
    Two-Electron Energy =                 780.4514700954482578
    DFT Exchange-Correlation Energy =       0.0000000000000000
    Empirical Dispersion Energy =           0.0000000000000000
    PCM Polarization Energy =               0.0000000000000000
    EFP Energy =                            0.0000000000000000
    Total Energy =                       -501.0411493063156740

  Mulliken Charges: (a.u.)
   Center  Symbol    Alpha    Beta     Spin     Total
       1     O     4.28649  4.28649  0.00000 -0.57299
       2     C     2.60441  2.60441  0.00000  0.79119
       3     C     3.20969  3.20969  0.00000 -0.41937
       4     O     4.30815  4.30815  0.00000 -0.61630
       5     C     3.15393  3.15393  0.00000 -0.30785
       6     H     0.39841  0.39841  0.00000  0.20318
       7     H     0.40108  0.40108  0.00000  0.19785
       8     C     3.15664  3.15664  0.00000 -0.31329
       9     H     0.41299  0.41299  0.00000  0.17401
      10     H     0.40874  0.40874  0.00000  0.18252
      11     C     3.15511  3.15511  0.00000 -0.31021
      12     H     0.41818  0.41818  0.00000  0.16365
      13     H     0.42383  0.42383  0.00000  0.15235
      14     C     3.15030  3.15030  0.00000 -0.30060
      15     H     0.42258  0.42258  0.00000  0.15485
      16     H     0.42358  0.42358  0.00000  0.15284
      17     C     3.15147  3.15147  0.00000 -0.30294
      18     H     0.42331  0.42331  0.00000  0.15338
      19     H     0.42396  0.42396  0.00000  0.15209
      20     C     3.23936  3.23936  0.00000 -0.47873
      21     H     0.42279  0.42279  0.00000  0.15443
      22     H     0.42340  0.42340  0.00000  0.15319
      23     H     0.41921  0.41921  0.00000  0.16158
      24     H     0.42154  0.42154  0.00000  0.15691
      25     H     0.42182  0.42182  0.00000  0.15636
      26     C     3.09781  3.09781  0.00000 -0.19562
      27     H     0.40974  0.40974  0.00000  0.18052
      28     H     0.39810  0.39810  0.00000  0.20381
      29     H     0.41339  0.41339  0.00000  0.17322

   Total alpha = 44.00000, Total beta = 44.00000, Total charge =  0.00000
