                              Psi4 1.0.54 Driver

  ==> Input File <==

--------------------------------------------------------------------------
set {
	reference rhf
	basis cc-pvtz
}

set_num_threads( 4 )
memory 2 gb

molecule MOL {
0 1

H	 -3.401682	 -1.036167	 0.000000
O	 -3.113760	 -0.140926	 0.000000
C	 -1.775087	 -0.058754	 0.000000
C	 -1.002384	 -0.601020	 1.019467
C	 -1.173850	 0.593413	 -1.063661
H	 -1.476121	 -1.105508	 1.841351
C	 0.366764	 -0.488392	 0.970049
H	 -1.788066	 1.004442	 -1.839427
C	 0.198367	 0.697605	 -1.098170
H	 0.974069	 -0.902458	 1.750330
C	 0.984274	 0.162190	 -0.089146
H	 0.665875	 1.203354	 -1.922896
C	 2.452626	 0.286190	 -0.147697
O	 3.203878	 -0.138211	 0.665728
H	 2.832852	 0.817925	 -1.026610

	symmetry c1
}
set optking {
	frozen_dihedral = ("
		5 3 2 1
	")
}

ee,wfn = optimize('scf', return_wfn=True)
oeprop( wfn, 'DIPOLE', 'QUADRUPOLE', 'MULLIKEN_CHARGES')
f=open( 'psi4out.xyz', 'w' )
f.write( "15  " )
f.write( str(ee) + "\n" )
f.write( MOL.save_string_xyz() )
f.close()
--------------------------------------------------------------------------

    Molecular point group: c1
  Charge       = 0
  Multiplicity = 1
  Basis Set: CC-PVTZ
  Basis Set:
  @DF-RHF Final Energy:  -418.43768849765075
    Total Energy =                       -418.4376884976510382
    Molecular point group: c1
  Basis Set: CC-PVTZ
  Basis Set:
  Basis Set: CC-PVTZ
  Basis Set:
  @DF-RHF Final Energy:  -418.43807441693099
    Total Energy =                       -418.4380744169311583
  Basis Set: CC-PVTZ
  Basis Set:
  Basis Set: CC-PVTZ
  Basis Set:
  @DF-RHF Final Energy:  -418.43807406705571
    Total Energy =                       -418.4380740670560499
  Basis Set: CC-PVTZ
  Basis Set:
  Basis Set: CC-PVTZ
  Basis Set:
  @DF-RHF Final Energy:  -418.43782109932675
    Total Energy =                       -418.4378210993265839
  Basis Set: CC-PVTZ
  Basis Set:
  Basis Set: CC-PVTZ
  Basis Set:
  @DF-RHF Final Energy:  -418.43812415774005
    Total Energy =                       -418.4381241577397077
  Basis Set: CC-PVTZ
  Basis Set:
  Charge       = 0
  Multiplicity = 1
  Basis Set: CC-PVTZ
  Basis Set:

    Orbital Energies (a.u.)
    -----------------------

    Doubly Occupied:

       1A    -20.591282     2A    -20.549721     3A    -11.325674
       4A    -11.314743     5A    -11.257986     6A    -11.252659
       7A    -11.242018     8A    -11.241572     9A    -11.239604
      10A     -1.421357    11A     -1.405868    12A     -1.175654
      13A     -1.045096    14A     -1.041297    15A     -0.890373
      16A     -0.864544    17A     -0.798920    18A     -0.757532
      19A     -0.714271    20A     -0.672447    21A     -0.652461
      22A     -0.634921    23A     -0.622667    24A     -0.610070
      25A     -0.566102    26A     -0.558682    27A     -0.546062
      28A     -0.504347    29A     -0.488935    30A     -0.424572
      31A     -0.360574    32A     -0.342514

  @DF-RHF Final Energy:  -418.43812483134650

   => Energetics <=

    Nuclear Repulsion Energy =            401.8397794555497740
    One-Electron Energy =               -1366.3267568157511960
    Two-Electron Energy =                 546.0488525288549226
    DFT Exchange-Correlation Energy =       0.0000000000000000
    Empirical Dispersion Energy =           0.0000000000000000
    PCM Polarization Energy =               0.0000000000000000
    EFP Energy =                            0.0000000000000000
    Total Energy =                       -418.4381248313464994
    Molecular point group: c1
  Basis Set: CC-PVTZ
  Basis Set:

  -Total Gradient:
     Atom            X                  Y                   Z
    ------   -----------------  -----------------  -----------------
       1       -0.000120421167    -0.000057916443    -0.002934404014
       2        0.000087485331    -0.000868790385     0.003142115950
       3       -0.000002815059     0.002736285989     0.001001754251
       4       -0.000166742384    -0.000013342685    -0.000087257500
       5        0.000158086179    -0.001805130858    -0.001111599328
       6        0.000004953668     0.000006574085     0.000006947296
       7        0.000146052389     0.000068870288    -0.000085435697
       8       -0.000002753337    -0.000003025477     0.000015051293
       9       -0.000110246776    -0.000022952024    -0.000094945288
      10       -0.000009862726    -0.000001229496     0.000002824467
      11        0.000003857607    -0.000064068625     0.000136998527
      12        0.000015428314     0.000007465339     0.000011605812
      13        0.000004020711     0.000055822452    -0.000004182456
      14        0.000002118372    -0.000028885318     0.000011929922
      15       -0.000009161130    -0.000009676844    -0.000011403237

  **** Optimization is complete! (in 6 steps) ****
    Final optimized geometry and variables:
    Molecular point group: c1

    Geometry (in Angstrom), charge = 0, multiplicity = 1:

    H           -3.426480852726    -0.997550567356     0.037978324000
    O           -3.126527895911    -0.105618757581     0.014869344260
    C           -1.770833589591    -0.050212698982    -0.030857378422
    C           -1.003981701532    -0.586349986968     0.995242683402
    C           -1.168159722619     0.565976323584    -1.108777145293
    H           -1.491745993276    -1.051106284060     1.830450757913
    C            0.366506868216    -0.502490969045     0.936578035063
    H           -1.779924869357     0.971002473732    -1.889869454369
    C            0.209382761461     0.655215007175    -1.152192818755
    H            0.972970730730    -0.910628687491     1.720548059322
    C            0.985999861024     0.122300369592    -0.139076974991
    H            0.681716701564     1.137888377586    -1.987828316509
    C            2.459254539361     0.222000177221    -0.209197456269
    O            3.206614221216    -0.207242249574     0.603776115534
    H            2.841691097566     0.738199048383    -1.096250572281

  Mulliken Charges: (a.u.)
   Center  Symbol    Alpha    Beta     Spin     Total
       1     H     0.38415  0.38415  0.00000  0.23170
       2     O     4.18285  4.18285  0.00000 -0.36570
       3     C     2.86188  2.86188  0.00000  0.27624
       4     C     3.11830  3.11830  0.00000 -0.23660
       5     C     3.10703  3.10703  0.00000 -0.21406
       6     H     0.41739  0.41739  0.00000  0.16522
       7     C     3.07008  3.07008  0.00000 -0.14015
       8     H     0.41357  0.41357  0.00000  0.17287
       9     C     3.07410  3.07410  0.00000 -0.14820
      10     H     0.40695  0.40695  0.00000  0.18610
      11     C     2.99729  2.99729  0.00000  0.00541
      12     H     0.42085  0.42085  0.00000  0.15830
      13     C     2.91023  2.91023  0.00000  0.17954
      14     O     4.17593  4.17593  0.00000 -0.35187
      15     H     0.45940  0.45940  0.00000  0.08120

   Total alpha = 32.00000, Total beta = 32.00000, Total charge = -0.00000

*** Psi4 exiting successfully. Buy a developer a beer!
