  ==> Input File <==

--------------------------------------------------------------------------
set {
	reference rhf
	basis 6-31G*
}

set_num_threads( 4 )
memory 2 gb

molecule MOL {
0 1

O	 1.846825	 1.296220	 0.000415
C	 1.705091	 0.115954	 0.001797
C	 0.381791	 -0.609817	 0.001258
O	 2.721346	 -0.737485	 -0.000216
C	 -0.823008	 0.326187	 0.001381
H	 0.371250	 -1.265087	 -0.865474
H	 0.370908	 -1.265746	 0.867490
C	 -1.912959	 -0.130850	 0.972044
H	 -1.227061	 0.389056	 -1.004092
H	 -0.496725	 1.329058	 0.258476
C	 -3.129537	 0.796320	 0.984336
H	 -2.233368	 -1.138457	 0.711157
H	 -1.500964	 -0.194203	 1.978090
C	 -4.217719	 0.339816	 1.955272
H	 -3.543834	 0.858661	 -0.019463
H	 -2.811221	 1.803064	 1.245636
H	 -4.581587	 -0.651234	 1.699078
H	 -5.066063	 1.016993	 1.941334
H	 -3.842975	 0.300235	 2.974247
C	 4.024888	 -0.184556	 -0.001949
H	 4.179030	 0.422472	 -0.882452
H	 4.701782	 -1.024608	 -0.003642
H	 4.181981	 0.421185	 0.878906

	symmetry c1
}
set optking {
	frozen_dihedral = ("
		9 5 3 6
	")
}

ee = optimize('scf')
oeprop('DIPOLE', 'QUADRUPOLE', 'MULLIKEN_CHARGES')
f=open( 'psi4out.xyz', 'w' )
f.write( "23  " )
f.write( str(ee) + "\n" )
f.write( MOL.save_string_xyz() )
f.close()
--------------------------------------------------------------------------

    Molecular point group: c1
  Charge       = 0
  Multiplicity = 1
  Basis Set: 6-31G*
  Basis Set:
  @DF-RHF Final Energy:  -422.97221149575137
    Total Energy =                       -422.9722114957512531
    Molecular point group: c1
  Basis Set: 6-31G*
  Basis Set:
  Basis Set: 6-31G*
  Basis Set:
  @DF-RHF Final Energy:  -422.97244226882748
    Total Energy =                       -422.9724422688282175
  Basis Set: 6-31G*
  Basis Set:
  Basis Set: 6-31G*
  Basis Set:
  @DF-RHF Final Energy:  -422.97235385378787
    Total Energy =                       -422.9723538537880358
  Basis Set: 6-31G*
  Basis Set:
  Basis Set: 6-31G*
  Basis Set:
  @DF-RHF Final Energy:  -422.97258350931611
    Total Energy =                       -422.9725835093155411
  Basis Set: 6-31G*
  Basis Set:
  Basis Set: 6-31G*
  Basis Set:
  @DF-RHF Final Energy:  -422.97258393309096
    Total Energy =                       -422.9725839330910730
  Basis Set: 6-31G*
  Basis Set:
  Basis Set: 6-31G*
  Basis Set:
  @DF-RHF Final Energy:  -422.97258838804277
    Total Energy =                       -422.9725883880424817
  Basis Set: 6-31G*
  Basis Set:
  Charge       = 0
  Multiplicity = 1
  Basis Set: 6-31G*
  Basis Set:

    Orbital Energies (a.u.)
    -----------------------

    Doubly Occupied:

       1A    -20.603699     2A    -20.545988     3A    -11.372763
       4A    -11.280915     5A    -11.235530     6A    -11.217802
       7A    -11.217042     8A    -11.215672     9A    -11.209107
      10A     -1.469644    11A     -1.363002    12A     -1.091189
      13A     -1.042736    14A     -0.986645    15A     -0.931521
      16A     -0.843816    17A     -0.794741    18A     -0.766811
      19A     -0.699014    20A     -0.681850    21A     -0.671991
      22A     -0.647093    23A     -0.610787    24A     -0.599407
      25A     -0.571317    26A     -0.557756    27A     -0.556474
      28A     -0.526714    29A     -0.523136    30A     -0.502609
      31A     -0.485753    32A     -0.468121    33A     -0.463920
      34A     -0.458180    35A     -0.456353    36A     -0.436637

  @DF-RHF Final Energy:  -422.97258934185174

   => Energetics <=

    Nuclear Repulsion Energy =            452.9531543224137522
    One-Electron Energy =               -1473.6400191174680003
    Two-Electron Energy =                 597.7142754532021627
    DFT Exchange-Correlation Energy =       0.0000000000000000
    Empirical Dispersion Energy =           0.0000000000000000
    PCM Polarization Energy =               0.0000000000000000
    EFP Energy =                            0.0000000000000000
    Total Energy =                       -422.9725893418520855
    Molecular point group: c1
  Basis Set: 6-31G*
  Basis Set:

  -Total Gradient:
     Atom            X                  Y                   Z
    ------   -----------------  -----------------  -----------------
       1        0.000010136287    -0.000020598627    -0.000039548108
       2       -0.000039572726     0.000062104048     0.000044108369
       3       -0.002337768649    -0.002990446590     0.002100769420
       4        0.000018297289    -0.000001772613     0.000002908633
       5        0.002524202590     0.003222910168    -0.001165904447
       6        0.001483181026     0.001946784726    -0.001534552483
       7       -0.000008581267     0.000017313511    -0.000026924409
       8       -0.000005291009    -0.000033938332     0.000029827101
       9       -0.001675692264    -0.002195173789     0.000572993010
      10        0.000012783321    -0.000016735260     0.000007289407
      11        0.000017206155     0.000008289839     0.000007564480
      12        0.000008723816     0.000006760060    -0.000005745229
      13       -0.000010240519    -0.000010021563     0.000008551840
      14       -0.000008345501     0.000001067665     0.000000032985
      15        0.000000102889     0.000002349620     0.000002198747
      16       -0.000002178664     0.000002844382    -0.000000317190
      17        0.000003091925    -0.000001087293     0.000002011782
      18       -0.000004135501    -0.000003181582    -0.000000911265
      19       -0.000001022653     0.000003580680    -0.000000976928
      20        0.000013690895    -0.000003610442     0.000001913614
      21       -0.000000934354     0.000000274401    -0.000002251997
      22        0.000002476496     0.000002778894    -0.000001913490
      23       -0.000000129585    -0.000000491905    -0.000001123839

  **** Optimization is complete! (in 7 steps) ****
    Final optimized geometry and variables:
    Molecular point group: c1

    Geometry (in Angstrom), charge = 0, multiplicity = 1:

    O            1.787476845457     1.167237980574    -0.413507786344
    C            1.619506393366    -0.009440200306    -0.423666032017
    C            0.285768102126    -0.722250158777    -0.389803216620
    O            2.618665108287    -0.882201562552    -0.466181918523
    C           -0.928350404350     0.217248507309    -0.388446071128
    H            0.278672599722    -1.383258480183    -1.250624179405
    H            0.298459757776    -1.365289221212     0.485099746761
    C           -2.036428857452    -0.255689753314     0.557162388622
    H           -1.337306332813     0.275391033594    -1.393043901021
    H           -0.613529707688     1.216054372354    -0.114655639017
    C           -3.270155820055     0.647280492478     0.531011948924
    H           -2.329884203359    -1.271996176957     0.297610807063
    H           -1.646246342260    -0.301214019710     1.572765628972
    C           -4.370771461746     0.182207590132     1.483856765129
    H           -3.664134146053     0.688960322458    -0.482222192795
    H           -2.976528004809     1.663139647006     0.785801536176
    H           -4.708389062584    -0.819823953393     1.234228629855
    H           -5.232255349031     0.841327382422     1.441048054155
    H           -4.018502926408     0.165064705828     2.511365836679
    C            3.932458192687    -0.354985477383    -0.497447863186
    H            4.074027710245     0.260795032812    -1.373945874667
    H            4.592015787296    -1.208182912698    -0.529371478562
    H            4.126377820495     0.235301323107     0.386549599215

  Mulliken Charges: (a.u.)
   Center  Symbol    Alpha    Beta     Spin     Total
       1     O     4.28497  4.28497  0.00000 -0.56994
       2     C     2.61240  2.61240  0.00000  0.77519
       3     C     3.20869  3.20869  0.00000 -0.41738
       4     O     4.30571  4.30571  0.00000 -0.61142
       5     C     3.15930  3.15930  0.00000 -0.31859
       6     H     0.39813  0.39813  0.00000  0.20374
       7     H     0.39829  0.39829  0.00000  0.20343
       8     C     3.15533  3.15533  0.00000 -0.31066
       9     H     0.41834  0.41834  0.00000  0.16332
      10     H     0.39600  0.39600  0.00000  0.20801
      11     C     3.15233  3.15233  0.00000 -0.30466
      12     H     0.42437  0.42437  0.00000  0.15126
      13     H     0.42284  0.42284  0.00000  0.15432
      14     C     3.23943  3.23943  0.00000 -0.47886
      15     H     0.42260  0.42260  0.00000  0.15479
      16     H     0.42032  0.42032  0.00000  0.15935
      17     H     0.42210  0.42210  0.00000  0.15579
      18     H     0.41869  0.41869  0.00000  0.16263
      19     H     0.42147  0.42147  0.00000  0.15706
      20     C     3.09202  3.09202  0.00000 -0.18404
      21     H     0.40901  0.40901  0.00000  0.18198
      22     H     0.40850  0.40850  0.00000  0.18300
      23     H     0.40916  0.40916  0.00000  0.18168

   Total alpha = 36.00000, Total beta = 36.00000, Total charge =  0.00000
