                              Psi4 1.0.54 Driver

  ==> Input File <==

--------------------------------------------------------------------------
set {
	reference rhf
	basis cc-pvtz
}

set_num_threads( 4 )
memory 2 gb

molecule MOL {
0 1

H	 4.612622	 0.364315	 -0.041916
C	 3.752215	 -0.292579	 0.006025
C	 2.451957	 0.502398	 -0.038615
H	 3.817882	 -0.982935	 -0.828322
H	 3.830038	 -0.871740	 0.920100
C	 1.215950	 -0.382432	 0.027190
H	 2.407431	 1.093766	 -0.946396
H	 2.431928	 1.206246	 0.790103
N	 0.000002	 0.398962	 -0.040848
H	 1.221890	 -1.069389	 -0.813776
H	 1.259908	 -0.999702	 0.929481
C	 -1.215959	 -0.382426	 0.027146
H	 -0.000012	 1.086087	 0.683844
C	 -2.451944	 0.502419	 -0.038734
H	 -1.221867	 -1.069383	 -0.813825
H	 -1.259993	 -0.999700	 0.929427
C	 -3.752217	 -0.292541	 0.005779
H	 -2.407325	 1.093810	 -0.946477
H	 -2.431979	 1.206243	 0.790026
H	 -3.817783	 -0.982937	 -0.828544
H	 -4.612613	 0.364357	 -0.042303
H	 -3.830160	 -0.871657	 0.919871

	symmetry c1
}
ee,wfn = energy('scf', return_wfn=True)
oeprop( wfn, 'DIPOLE', 'QUADRUPOLE', 'MULLIKEN_CHARGES')
oeprop( wfn, 'GRID_ESP')
f=open( 'psi4out.xyz', 'w' )
f.write( "22  " )
f.write( str(ee) + "\n" )
f.write( MOL.save_string_xyz() )
f.close()
--------------------------------------------------------------------------

    Molecular point group: c1

    Geometry (in Angstrom), charge = 0, multiplicity = 1:

       Center              X                  Y                   Z               Mass
    ------------   -----------------  -----------------  -----------------  -----------------
           H          4.612621814598     0.364305772178    -0.041918720254     1.007825032070
           C          3.752214814598    -0.292588227822     0.006022279746    12.000000000000
           C          2.451956814598     0.502388772178    -0.038617720254    12.000000000000
           H          3.817881814598    -0.982944227822    -0.828324720254     1.007825032070
           H          3.830037814598    -0.871749227822     0.920097279746     1.007825032070
           C          1.215949814598    -0.382441227822     0.027187279746    12.000000000000
           H          2.407430814598     1.093756772178    -0.946398720254     1.007825032070
           H          2.431927814598     1.206236772178     0.790100279746     1.007825032070
           N          0.000001814598     0.398952772178    -0.040850720254    14.003074004780
           H          1.221889814598    -1.069398227822    -0.813778720254     1.007825032070
           H          1.259907814598    -0.999711227822     0.929478279746     1.007825032070
           C         -1.215959185402    -0.382435227822     0.027143279746    12.000000000000
           H         -0.000012185402     1.086077772178     0.683841279746     1.007825032070
           C         -2.451944185402     0.502409772178    -0.038736720254    12.000000000000
           H         -1.221867185402    -1.069392227822    -0.813827720254     1.007825032070
           H         -1.259993185402    -0.999709227822     0.929424279746     1.007825032070
           C         -3.752217185402    -0.292550227822     0.005776279746    12.000000000000
           H         -2.407325185402     1.093800772178    -0.946479720254     1.007825032070
           H         -2.431979185402     1.206233772178     0.790023279746     1.007825032070
           H         -3.817783185402    -0.982946227822    -0.828546720254     1.007825032070
           H         -4.612613185402     0.364347772178    -0.042305720254     1.007825032070
           H         -3.830160185402    -0.871666227822     0.919868279746     1.007825032070

  Charge       = 0
  Multiplicity = 1
  Basis Set: CC-PVTZ
  Basis Set:

    Orbital Energies (a.u.)
    -----------------------

    Doubly Occupied:

       1A    -15.528077     2A    -11.236193     3A    -11.236176
       4A    -11.211768     5A    -11.211767     6A    -11.207562
       7A    -11.207562     8A     -1.207423     9A     -1.060432
      10A     -1.027082    11A     -0.928768    12A     -0.868930
      13A     -0.812010    14A     -0.793929    15A     -0.669689
      16A     -0.627069    17A     -0.616222    18A     -0.614927
      19A     -0.574313    20A     -0.563332    21A     -0.529400
      22A     -0.529215    23A     -0.516201    24A     -0.485539
      25A     -0.482995    26A     -0.474675    27A     -0.466176
      28A     -0.451968    29A     -0.361445

  @DF-RHF Final Energy:  -290.49010247786856

   => Energetics <=

    Nuclear Repulsion Energy =            313.6640646680762643
    One-Electron Energy =               -1013.3069791919007230
    Two-Electron Energy =                 409.1528120459555566
    DFT Exchange-Correlation Energy =       0.0000000000000000
    Empirical Dispersion Energy =           0.0000000000000000
    PCM Polarization Energy =               0.0000000000000000
    EFP Energy =                            0.0000000000000000
    Total Energy =                       -290.4901024778688452

  Mulliken Charges: (a.u.)
   Center  Symbol    Alpha    Beta     Spin     Total
       1     H     0.44771  0.44771  0.00000  0.10459
       2     C     3.15360  3.15360  0.00000 -0.30721
       3     C     3.08020  3.08020  0.00000 -0.16039
       4     H     0.45474  0.45474  0.00000  0.09052
       5     H     0.45613  0.45613  0.00000  0.08773
       6     C     3.02267  3.02267  0.00000 -0.04534
       7     H     0.44915  0.44915  0.00000  0.10170
       8     H     0.45970  0.45970  0.00000  0.08060
       9     N     3.63856  3.63856  0.00000 -0.27711
      10     H     0.45913  0.45913  0.00000  0.08173
      11     H     0.47488  0.47488  0.00000  0.05024
      12     C     3.02267  3.02267  0.00000 -0.04534
      13     H     0.44562  0.44562  0.00000  0.10877
      14     C     3.08020  3.08020  0.00000 -0.16039
      15     H     0.45913  0.45913  0.00000  0.08173
      16     H     0.47488  0.47488  0.00000  0.05024
      17     C     3.15360  3.15360  0.00000 -0.30721
      18     H     0.44914  0.44914  0.00000  0.10171
      19     H     0.45970  0.45970  0.00000  0.08059
      20     H     0.45474  0.45474  0.00000  0.09051
      21     H     0.44770  0.44770  0.00000  0.10459
      22     H     0.45613  0.45613  0.00000  0.08774

   Total alpha = 29.00000, Total beta = 29.00000, Total charge =  0.00000

*** Psi4 exiting successfully. Buy a developer a beer!
