                              Psi4 1.0.54 Driver

  ==> Input File <==

--------------------------------------------------------------------------
set {
	reference rhf
	basis cc-pvtz
}

set_num_threads( 4 )
memory 2 gb

molecule MOL {
0 1

O	 1.885598	 1.224803	 -0.382690
C	 1.704209	 0.119472	 -0.000093
C	 0.380337	 -0.600947	 -0.000234
O	 2.666942	 -0.644670	 0.489446
C	 -0.824290	 0.329213	 -0.000115
H	 0.371455	 -1.255476	 -0.865660
H	 0.371410	 -1.255787	 0.864952
C	 -2.146151	 -0.432825	 -0.000068
H	 -0.773936	 0.979158	 -0.866319
H	 -0.773838	 0.979034	 0.866186
C	 -3.366283	 0.483552	 0.000557
H	 -2.189286	 -1.084450	 -0.869996
H	 -2.188867	 -1.085083	 0.869399
C	 -4.687436	 -0.278003	 0.000108
H	 -3.325150	 1.134819	 -0.867957
H	 -3.325087	 1.133730	 0.869885
H	 -4.773783	 -0.912098	 -0.876078
H	 -5.531922	 0.401392	 0.000363
H	 -4.773901	 -0.912898	 0.875703
C	 3.966691	 -0.092865	 0.548508
H	 4.313273	 0.173058	 -0.439104
H	 4.596520	 -0.859300	 0.970103
H	 3.979432	 0.786611	 1.175064

	symmetry c1
}
set optking {
	frozen_dihedral = ("
		1 2 3 6
	")
}

ee,wfn = optimize('scf', return_wfn=True)
oeprop( wfn, 'DIPOLE', 'QUADRUPOLE', 'MULLIKEN_CHARGES')
f=open( 'psi4out.xyz', 'w' )
f.write( "23  " )
f.write( str(ee) + "\n" )
f.write( MOL.save_string_xyz() )
f.close()
--------------------------------------------------------------------------

    Molecular point group: c1
  Charge       = 0
  Multiplicity = 1
  Basis Set: CC-PVTZ
  Basis Set:
  @DF-RHF Final Energy:  -423.13053160438574
    Total Energy =                       -423.1305316043861922
    Molecular point group: c1
  Basis Set: CC-PVTZ
  Basis Set:
  Basis Set: CC-PVTZ
  Basis Set:
  @DF-RHF Final Energy:  -423.12973350194375
    Total Energy =                       -423.1297335019436332
  Basis Set: CC-PVTZ
  Basis Set:
  Basis Set: CC-PVTZ
  Basis Set:
  @DF-RHF Final Energy:  -423.13066577531794
    Total Energy =                       -423.1306657753178797
  Basis Set: CC-PVTZ
  Basis Set:
  Basis Set: CC-PVTZ
  Basis Set:
  @DF-RHF Final Energy:  -423.13075456580555
    Total Energy =                       -423.1307545658053186
  Basis Set: CC-PVTZ
  Basis Set:
  Basis Set: CC-PVTZ
  Basis Set:
  @DF-RHF Final Energy:  -423.13075697182126
    Total Energy =                       -423.1307569718211425
  Basis Set: CC-PVTZ
  Basis Set:
  Charge       = 0
  Multiplicity = 1
  Basis Set: CC-PVTZ
  Basis Set:

    Orbital Energies (a.u.)
    -----------------------

    Doubly Occupied:

       1A    -20.597024     2A    -20.533359     3A    -11.364553
       4A    -11.278485     5A    -11.233564     6A    -11.217968
       7A    -11.216076     8A    -11.214732     9A    -11.207904
      10A     -1.472361    11A     -1.365510    12A     -1.094671
      13A     -1.044722    14A     -0.988022    15A     -0.933013
      16A     -0.844205    17A     -0.795744    18A     -0.770047
      19A     -0.698778    20A     -0.686457    21A     -0.675318
      22A     -0.653260    23A     -0.609778    24A     -0.600644
      25A     -0.573844    26A     -0.563983    27A     -0.553805
      28A     -0.525869    29A     -0.523402    30A     -0.507665
      31A     -0.484805    32A     -0.470895    33A     -0.467021
      34A     -0.463185    35A     -0.459793    36A     -0.437401

  @DF-RHF Final Energy:  -423.13075733916395

   => Energetics <=

    Nuclear Repulsion Energy =            452.9205034565133587
    One-Electron Energy =               -1473.8467938455003150
    Two-Electron Energy =                 597.7955330498228932
    DFT Exchange-Correlation Energy =       0.0000000000000000
    Empirical Dispersion Energy =           0.0000000000000000
    PCM Polarization Energy =               0.0000000000000000
    EFP Energy =                            0.0000000000000000
    Total Energy =                       -423.1307573391640062
    Molecular point group: c1
  Basis Set: CC-PVTZ
  Basis Set:

  -Total Gradient:
     Atom            X                  Y                   Z
    ------   -----------------  -----------------  -----------------
       1        0.000179681230    -0.000342725117    -0.000761386478
       2       -0.000372859737     0.000650949081     0.000996294868
       3        0.000459631615    -0.000834117666     0.000180661508
       4        0.000026930279    -0.000051813297     0.000019648306
       5        0.000005898614     0.000005694492     0.000003043432
       6       -0.000307284782     0.000575461485    -0.000438257395
       7        0.000004155777    -0.000002898312     0.000002564103
       8        0.000005934883    -0.000004262560     0.000000274418
       9       -0.000004222877     0.000004008820    -0.000000681096
      10        0.000004291428    -0.000005380466    -0.000002119420
      11        0.000002759010     0.000001819875    -0.000001963074
      12       -0.000000345403    -0.000001161882     0.000002696547
      13        0.000001249261     0.000002321658    -0.000000448693
      14       -0.000001137112    -0.000000186403    -0.000001858373
      15       -0.000001472256     0.000000764339     0.000001192027
      16        0.000000035717    -0.000002272896    -0.000001379558
      17        0.000000178968     0.000000598328     0.000001254242
      18       -0.000000256735    -0.000000399863    -0.000000088296
      19        0.000001060519     0.000001303296    -0.000001205198
      20        0.000015464166     0.000012901486    -0.000004390795
      21       -0.000011250144    -0.000005908311     0.000018150005
      22       -0.000003532940     0.000003023438    -0.000004322156
      23       -0.000004909470    -0.000007719526    -0.000007678928

  **** Optimization is complete! (in 6 steps) ****
    Final optimized geometry and variables:
    Molecular point group: c1

    Geometry (in Angstrom), charge = 0, multiplicity = 1:

    O            1.884084561328     1.222318531443    -0.337836206593
    C            1.706251782756     0.115310477536     0.042326678519
    C            0.388032883251    -0.615347278262     0.005422153649
    O            2.672719753784    -0.647881276555     0.524933940973
    C           -0.817946976759     0.311498672083    -0.082287980475
    H            0.426951578535    -1.265216564689    -0.864797016602
    H            0.331091809598    -1.264700411695     0.869723181508
    C           -2.134638047691    -0.454787827078    -0.164654341426
    H           -0.709202652752     0.955642754466    -0.946021400671
    H           -0.829856828804     0.965646715166     0.783801530929
    C           -3.354833325684     0.457623038605    -0.248553975131
    H           -2.117613172334    -1.109357401659    -1.033258005124
    H           -2.232848320340    -1.104080407341     0.702441870129
    C           -4.670633815605    -0.308347705909    -0.334296238586
    H           -3.257735783796     1.106115178298    -1.114610530349
    H           -3.373941260331     1.110706130283     0.619442079350
    H           -4.696580214963    -0.945142858057    -1.212370028219
    H           -5.515398807108     0.368234716644    -0.392176410837
    H           -4.812997998337    -0.941080918717     0.535550131467
    C            3.975033620828    -0.099760429119     0.560278052730
    H            4.307043730737     0.158678834005    -0.434323532410
    H            4.608908055791    -0.865473022457     0.977100308767
    H            3.999841941811     0.783697630177     1.180646615005

  Mulliken Charges: (a.u.)
   Center  Symbol    Alpha    Beta     Spin     Total
       1     O     4.19841  4.19841  0.00000 -0.39682
       2     C     2.81111  2.81111  0.00000  0.37778
       3     C     3.09535  3.09535  0.00000 -0.19070
       4     O     4.14538  4.14538  0.00000 -0.29075
       5     C     3.08617  3.08617  0.00000 -0.17234
       6     H     0.44337  0.44337  0.00000  0.11325
       7     H     0.43819  0.43819  0.00000  0.12361
       8     C     3.08951  3.08951  0.00000 -0.17901
       9     H     0.44161  0.44161  0.00000  0.11679
      10     H     0.45018  0.45018  0.00000  0.09963
      11     C     3.08398  3.08398  0.00000 -0.16795
      12     H     0.45532  0.45532  0.00000  0.08937
      13     H     0.45575  0.45575  0.00000  0.08849
      14     C     3.15039  3.15039  0.00000 -0.30078
      15     H     0.45287  0.45287  0.00000  0.09426
      16     H     0.45366  0.45366  0.00000  0.09269
      17     H     0.45518  0.45518  0.00000  0.08965
      18     H     0.44772  0.44772  0.00000  0.10456
      19     H     0.45539  0.45539  0.00000  0.08922
      20     C     3.03661  3.03661  0.00000 -0.07323
      21     H     0.45439  0.45439  0.00000  0.09123
      22     H     0.44515  0.44515  0.00000  0.10969
      23     H     0.45431  0.45431  0.00000  0.09139

   Total alpha = 36.00000, Total beta = 36.00000, Total charge = -0.00000

*** Psi4 exiting successfully. Buy a developer a beer!
