  ==> Input File <==

--------------------------------------------------------------------------
set {
	reference rhf
	basis 6-31G*
}

set_num_threads( 1 )
memory 2 gb

molecule MOL {
0 1

H	 1.856558	 -1.112502	 0.952158
C	 1.951159	 -0.223429	 0.317018
C	 0.692068	 0.589600	 0.160137
O	 2.993160	 0.039505	 -0.190159
C	 -0.558097	 -0.297372	 0.091132
H	 0.791645	 1.202255	 -0.728243
H	 0.616171	 1.253469	 1.020572
C	 -1.850991	 0.512573	 -0.019058
H	 -0.476753	 -0.965681	 -0.762987
H	 -0.604799	 -0.930658	 0.975228
C	 -3.096943	 -0.368295	 -0.099594
H	 -1.800724	 1.150330	 -0.898172
H	 -1.931651	 1.177355	 0.838044
H	 -3.060452	 -1.020287	 -0.967456
H	 -3.996858	 0.233488	 -0.175704
H	 -3.191959	 -0.995686	 0.782074

	symmetry c1
}
set optking {
	frozen_dihedral = ("
		9 5 8 12,
		6 3 5 9
	")
}

ee = energy('scf')
oeprop('DIPOLE', 'QUADRUPOLE', 'MULLIKEN_CHARGES')
f=open( 'psi4out.xyz', 'w' )
f.write( "16  " )
f.write( str(ee) + "\n" )
f.write( MOL.save_string_xyz() )
f.close()
--------------------------------------------------------------------------

    Molecular point group: c1

    Geometry (in Angstrom), charge = 0, multiplicity = 1:

       Center              X                  Y                   Z               Mass
    ------------   -----------------  -----------------  -----------------  -----------------
           H          1.837614320129    -1.149456887780     0.912683908819     1.007825032070
           C          1.932215320129    -0.260383887780     0.277543908819    12.000000000000
           C          0.673124320129     0.552645112220     0.120662908819    12.000000000000
           O          2.974216320129     0.002550112220    -0.229633091181    15.994914619560
           C         -0.577040679871    -0.334326887780     0.051657908819    12.000000000000
           H          0.772701320129     1.165300112220    -0.767717091181     1.007825032070
           H          0.597227320129     1.216514112220     0.981097908819     1.007825032070
           C         -1.869934679871     0.475618112220    -0.058532091181    12.000000000000
           H         -0.495696679871    -1.002635887780    -0.802461091181     1.007825032070
           H         -0.623742679871    -0.967612887780     0.935753908819     1.007825032070
           C         -3.115886679871    -0.405249887780    -0.139068091181    12.000000000000
           H         -1.819667679871     1.113375112220    -0.937646091181     1.007825032070
           H         -1.950594679871     1.140400112220     0.798569908819     1.007825032070
           H         -3.079395679871    -1.057241887780    -1.006930091181     1.007825032070
           H         -4.015801679871     0.196533112220    -0.215178091181     1.007825032070
           H         -3.210902679871    -1.032640887780     0.742599908819     1.007825032070

  Charge       = 0
  Multiplicity = 1
  Basis Set: 6-31G*
  Basis Set:

    Orbital Energies (a.u.)
    -----------------------

    Doubly Occupied:

       1A    -20.562110     2A    -11.326792     3A    -11.236061
       4A    -11.235473     5A    -11.229459     6A    -11.218657
       7A     -1.402146     8A     -1.096994     9A     -1.019253
      10A     -0.905194    11A     -0.811909    12A     -0.795524
      13A     -0.673967    14A     -0.650482    15A     -0.631272
      16A     -0.602637    17A     -0.586016    18A     -0.547068
      19A     -0.531813    20A     -0.503454    21A     -0.487878
      22A     -0.484050    23A     -0.478569    24A     -0.409446

  @DF-RHF Final Energy:  -270.01953340820381

   => Energetics <=

    Nuclear Repulsion Energy =            228.4825380129552173
    One-Electron Energy =                -818.1516957765347797
    Two-Electron Energy =                 319.6496243553757495
    DFT Exchange-Correlation Energy =       0.0000000000000000
    Empirical Dispersion Energy =           0.0000000000000000
    PCM Polarization Energy =               0.0000000000000000
    EFP Energy =                            0.0000000000000000
    Total Energy =                       -270.0195334082037562

  Mulliken Charges: (a.u.)
   Center  Symbol    Alpha    Beta     Spin     Total
       1     H     0.43155  0.43155  0.00000  0.13690
       2     C     2.82954  2.82954  0.00000  0.34091
       3     C     3.20874  3.20874  0.00000 -0.41748
       4     O     4.23904  4.23904  0.00000 -0.47808
       5     C     3.16517  3.16517  0.00000 -0.33033
       6     H     0.39850  0.39850  0.00000  0.20300
       7     H     0.40485  0.40485  0.00000  0.19031
       8     C     3.15156  3.15156  0.00000 -0.30312
       9     H     0.41521  0.41521  0.00000  0.16957
      10     H     0.41949  0.41949  0.00000  0.16103
      11     C     3.24030  3.24030  0.00000 -0.48060
      12     H     0.41874  0.41874  0.00000  0.16252
      13     H     0.42074  0.42074  0.00000  0.15853
      14     H     0.41962  0.41962  0.00000  0.16076
      15     H     0.41641  0.41641  0.00000  0.16719
      16     H     0.42055  0.42055  0.00000  0.15890

   Total alpha = 24.00000, Total beta = 24.00000, Total charge = -0.00000
