  ==> Input File <==

--------------------------------------------------------------------------
set {
	reference rhf
	basis 6-31G*
}

set_num_threads( 1 )
memory 2 gb

molecule MOL {
0 1

O	 2.863741	 -0.845858	 -1.845916
C	 2.507539	 -0.912153	 -0.713756
C	 1.076411	 -0.857540	 -0.236598
O	 3.347903	 -1.046386	 0.304773
C	 0.069262	 -0.715716	 -1.375743
H	 0.902482	 -1.752848	 0.351078
H	 0.999449	 -0.026039	 0.459375
C	 -1.379185	 -0.553459	 -0.902277
H	 0.147237	 -1.576827	 -2.032650
H	 0.345183	 0.144475	 -1.976044
C	 -1.968474	 -1.778093	 -0.196501
H	 -1.993349	 -0.323572	 -1.769847
H	 -1.450885	 0.311596	 -0.244592
C	 -3.446993	 -1.606431	 0.157775
H	 -1.851291	 -2.650903	 -0.837039
H	 -1.411765	 -1.990051	 0.713511
C	 -4.045153	 -2.822039	 0.868151
H	 -4.013679	 -1.407015	 -0.750155
H	 -3.566223	 -0.727578	 0.789519
C	 -5.522886	 -2.644027	 1.215018
H	 -3.925957	 -3.701348	 0.238667
H	 -3.482749	 -3.020307	 1.778191
H	 -5.917940	 -3.521643	 1.717342
H	 -6.118126	 -2.478539	 0.321431
H	 -5.671462	 -1.791873	 1.872309
C	 4.728119	 -1.109107	 -0.004993
H	 4.882018	 -1.033965	 -1.071845
H	 5.068212	 -2.067527	 0.355250
H	 5.265056	 -0.311663	 0.488280

	symmetry c1
}
set optking {
	frozen_dihedral = ("
		21 17 14 11,
		17 14 11 15,
		15 11 8 5,
		6 3 5 9,
		11 8 5 9,
		1 2 4 26,
		6 3 2 1
	")
}

ee = energy('scf')
oeprop('DIPOLE', 'QUADRUPOLE', 'MULLIKEN_CHARGES')
f=open( 'psi4out.xyz', 'w' )
f.write( "29  " )
f.write( str(ee) + "\n" )
f.write( MOL.save_string_xyz() )
f.close()
--------------------------------------------------------------------------

    Molecular point group: c1

    Geometry (in Angstrom), charge = 0, multiplicity = 1:

       Center              X                  Y                   Z               Mass
    ------------   -----------------  -----------------  -----------------  -----------------
           O          2.980011483957     0.509939669340    -1.602373089971    15.994914619560
           C          2.623809483957     0.443644669340    -0.470213089971    12.000000000000
           C          1.192681483957     0.498257669340     0.006944910029    12.000000000000
           O          3.464173483957     0.309411669340     0.548315910029    15.994914619560
           C          0.185532483957     0.640081669340    -1.132200089971    12.000000000000
           H          1.018752483957    -0.397050330660     0.594620910029     1.007825032070
           H          1.115719483957     1.329758669340     0.702917910029     1.007825032070
           C         -1.262914516043     0.802338669340    -0.658734089971    12.000000000000
           H          0.263507483957    -0.221029330660    -1.789107089971     1.007825032070
           H          0.461453483957     1.500272669340    -1.732501089971     1.007825032070
           C         -1.852203516043    -0.422295330660     0.047041910029    12.000000000000
           H         -1.877078516043     1.032225669340    -1.526304089971     1.007825032070
           H         -1.334614516043     1.667393669340    -0.001049089971     1.007825032070
           C         -3.330722516043    -0.250633330660     0.401317910029    12.000000000000
           H         -1.735020516043    -1.295105330660    -0.593496089971     1.007825032070
           H         -1.295494516043    -0.634253330660     0.957053910029     1.007825032070
           C         -3.928882516043    -1.466241330660     1.111693910029    12.000000000000
           H         -3.897408516043    -0.051217330660    -0.506612089971     1.007825032070
           H         -3.449952516043     0.628219669340     1.033061910029     1.007825032070
           C         -5.406615516043    -1.288229330660     1.458560910029    12.000000000000
           H         -3.809686516043    -2.345550330660     0.482209910029     1.007825032070
           H         -3.366478516043    -1.664509330660     2.021733910029     1.007825032070
           H         -5.801669516043    -2.165845330660     1.960884910029     1.007825032070
           H         -6.001855516043    -1.122741330660     0.564973910029     1.007825032070
           H         -5.555191516043    -0.436075330660     2.115851910029     1.007825032070
           C          4.844389483957     0.246690669340     0.238549910029    12.000000000000
           H          4.998288483957     0.321832669340    -0.828302089971     1.007825032070
           H          5.184482483957    -0.711729330660     0.598792910029     1.007825032070
           H          5.381326483957     1.044134669340     0.731822910029     1.007825032070

  Charge       = 0
  Multiplicity = 1
  Basis Set: 6-31G*
  Basis Set:

    Orbital Energies (a.u.)
    -----------------------

    Doubly Occupied:

       1A    -20.603064     2A    -20.544357     3A    -11.373420
       4A    -11.275574     5A    -11.235256     6A    -11.219305
       7A    -11.217793     8A    -11.216120     9A    -11.215939
      10A    -11.214535    11A    -11.209116    12A     -1.469432
      13A     -1.362723    14A     -1.098292    15A     -1.067036
      16A     -1.019544    17A     -0.976503    18A     -0.928157
      19A     -0.861567    20A     -0.799218    21A     -0.790473
      22A     -0.763168    23A     -0.703868    24A     -0.681136
      25A     -0.673071    26A     -0.650920    27A     -0.629298
      28A     -0.604559    29A     -0.594621    30A     -0.578925
      31A     -0.568374    32A     -0.550780    33A     -0.533860
      34A     -0.524700    35A     -0.515731    36A     -0.512259
      37A     -0.496751    38A     -0.478015    39A     -0.470337
      40A     -0.462464    41A     -0.458817    42A     -0.452438
      43A     -0.441709    44A     -0.435970

  @DF-RHF Final Energy:  -501.04093113776423

   => Energetics <=

    Nuclear Repulsion Energy =            610.3348644876356275
    One-Electron Energy =               -1891.7934409543152015
    Two-Electron Energy =                 780.4176453289131814
    DFT Exchange-Correlation Energy =       0.0000000000000000
    Empirical Dispersion Energy =           0.0000000000000000
    PCM Polarization Energy =               0.0000000000000000
    EFP Energy =                            0.0000000000000000
    Total Energy =                       -501.0409311377662789

  Mulliken Charges: (a.u.)
   Center  Symbol    Alpha    Beta     Spin     Total
       1     O     4.28689  4.28689  0.00000 -0.57378
       2     C     2.60422  2.60422  0.00000  0.79156
       3     C     3.21067  3.21067  0.00000 -0.42133
       4     O     4.30725  4.30725  0.00000 -0.61450
       5     C     3.15385  3.15385  0.00000 -0.30770
       6     H     0.39857  0.39857  0.00000  0.20287
       7     H     0.40092  0.40092  0.00000  0.19816
       8     C     3.15663  3.15663  0.00000 -0.31326
       9     H     0.41303  0.41303  0.00000  0.17395
      10     H     0.40868  0.40868  0.00000  0.18263
      11     C     3.15510  3.15510  0.00000 -0.31019
      12     H     0.41820  0.41820  0.00000  0.16361
      13     H     0.42384  0.42384  0.00000  0.15233
      14     C     3.15029  3.15029  0.00000 -0.30059
      15     H     0.42260  0.42260  0.00000  0.15481
      16     H     0.42360  0.42360  0.00000  0.15280
      17     C     3.15148  3.15148  0.00000 -0.30297
      18     H     0.42331  0.42331  0.00000  0.15337
      19     H     0.42395  0.42395  0.00000  0.15209
      20     C     3.23937  3.23937  0.00000 -0.47873
      21     H     0.42279  0.42279  0.00000  0.15441
      22     H     0.42341  0.42341  0.00000  0.15319
      23     H     0.41921  0.41921  0.00000  0.16158
      24     H     0.42154  0.42154  0.00000  0.15692
      25     H     0.42181  0.42181  0.00000  0.15637
      26     C     3.10317  3.10317  0.00000 -0.20634
      27     H     0.38990  0.38990  0.00000  0.22020
      28     H     0.41291  0.41291  0.00000  0.17418
      29     H     0.41282  0.41282  0.00000  0.17435

   Total alpha = 44.00000, Total beta = 44.00000, Total charge = -0.00000
