  ==> Input File <==

--------------------------------------------------------------------------
set {
	reference rhf
	basis cc-pvtz
}

set_num_threads( 4 )
memory 2 gb

molecule MOL {
0 1

H	 3.889604	 0.356866	 -0.089510
N	 3.091268	 -0.241216	 -0.065538
C	 1.860978	 0.530248	 0.016256
H	 3.192566	 -0.835836	 0.730398
C	 0.644130	 -0.381765	 -0.031064
H	 1.835721	 1.204666	 -0.833114
H	 1.808789	 1.151975	 0.911067
C	 -0.678115	 0.376691	 0.025731
H	 0.693998	 -0.977147	 -0.936845
H	 0.693309	 -1.082142	 0.800523
C	 -0.912369	 1.084129	 1.357594
H	 -1.497262	 -0.314483	 -0.159285
H	 -0.711952	 1.109134	 -0.777547
C	 -2.238104	 1.835841	 1.412655
H	 -0.878465	 0.354161	 2.161515
H	 -0.097121	 1.778204	 1.543069
H	 -3.076153	 1.162645	 1.265277
H	 -2.372761	 2.325773	 2.370173
H	 -2.288734	 2.597620	 0.641640

	symmetry c1
}
set optking {
	frozen_dihedral = ("
		12 8 5 9
	")
}

ee = optimize('scf')
oeprop('DIPOLE', 'QUADRUPOLE', 'MULLIKEN_CHARGES')
f=open( 'psi4out.xyz', 'w' )
f.write( "19  " )
f.write( str(ee) + "\n" )
f.write( MOL.save_string_xyz() )
f.close()
--------------------------------------------------------------------------

    Molecular point group: c1
  Charge       = 0
  Multiplicity = 1
  Basis Set: CC-PVTZ
  Basis Set:
  @DF-RHF Final Energy:  -251.44539459112195
    Total Energy =                       -251.4453945911221808
    Molecular point group: c1
  Basis Set: CC-PVTZ
  Basis Set:
  Basis Set: CC-PVTZ
  Basis Set:
  @DF-RHF Final Energy:  -251.44586097996756
    Total Energy =                       -251.4458609799677902
  Basis Set: CC-PVTZ
  Basis Set:
  Basis Set: CC-PVTZ
  Basis Set:
  @DF-RHF Final Energy:  -251.44614033170242
    Total Energy =                       -251.4461403317026793
  Basis Set: CC-PVTZ
  Basis Set:
  Basis Set: CC-PVTZ
  Basis Set:
  @DF-RHF Final Energy:  -251.44615155948148
    Total Energy =                       -251.4461515594813932
  Basis Set: CC-PVTZ
  Basis Set:
  Charge       = 0
  Multiplicity = 1
  Basis Set: CC-PVTZ
  Basis Set:

    Orbital Energies (a.u.)
    -----------------------

    Doubly Occupied:

       1A    -15.526225     2A    -11.237334     3A    -11.212483
       4A    -11.210966     5A    -11.208091     6A    -11.206130
       7A     -1.177900     8A     -1.073793     9A     -0.998134
      10A     -0.900306    11A     -0.828759    12A     -0.777775
      13A     -0.657272    14A     -0.636782    15A     -0.632708
      16A     -0.587916    17A     -0.569383    18A     -0.548422
      19A     -0.529240    20A     -0.505271    21A     -0.481383
      22A     -0.462601    23A     -0.458740    24A     -0.451693
      25A     -0.383059

  @DF-RHF Final Energy:  -251.44615218836907

   => Energetics <=

    Nuclear Repulsion Energy =            249.0915806450749983
    One-Electron Energy =                -832.5507398327553119
    Two-Electron Energy =                 332.0130069993113011
    DFT Exchange-Correlation Energy =       0.0000000000000000
    Empirical Dispersion Energy =           0.0000000000000000
    PCM Polarization Energy =               0.0000000000000000
    EFP Energy =                            0.0000000000000000
    Total Energy =                       -251.4461521883690693
    Molecular point group: c1
  Basis Set: CC-PVTZ
  Basis Set:

  -Total Gradient:
     Atom            X                  Y                   Z
    ------   -----------------  -----------------  -----------------
       1       -0.000009170411     0.000003997149    -0.000010245806
       2       -0.000017631208    -0.000001916608    -0.000003296090
       3       -0.000007859012    -0.000011388554     0.000007290903
       4       -0.000007081131     0.000011499263    -0.000001414498
       5       -0.000080820855    -0.000119666054     0.000115910663
       6        0.000017777777    -0.000002974943     0.000003671519
       7       -0.000021010693     0.000009966492     0.000009768711
       8        0.000045955569     0.000061974141    -0.000146297343
       9        0.000041610830     0.000077037778    -0.000043609055
      10        0.000029831268    -0.000017433486     0.000009821164
      11        0.000026551519     0.000007981830    -0.000039609987
      12       -0.000011767198    -0.000015728280     0.000099553616
      13       -0.000016019782     0.000030543493    -0.000000098514
      14       -0.000014379421    -0.000036031505     0.000012107839
      15       -0.000002758291     0.000011285623    -0.000001502633
      16        0.000025303468    -0.000004973969    -0.000014956126
      17       -0.000008900326     0.000005307550    -0.000007592945
      18       -0.000008003625    -0.000005833361     0.000004838607
      19        0.000018371518    -0.000003646559     0.000005659974

  **** Optimization is complete! (in 5 steps) ****
    Final optimized geometry and variables:
    Molecular point group: c1

    Geometry (in Angstrom), charge = 0, multiplicity = 1:

    H            3.598083335794    -0.277710821985    -0.619698074716
    N            2.775412668436    -0.842099422101    -0.596473884851
    C            1.584271069441    -0.022647795249    -0.427617935202
    H            2.878708428812    -1.479315086800     0.165701763673
    C            0.332720768855    -0.890123854059    -0.460335980735
    H            1.548189510267     0.683026849126    -1.251326679598
    H            1.608324876102     0.564290630432     0.488726366261
    C           -0.985836158232    -0.117528886142    -0.406191786000
    H            0.364512852940    -1.479296756179    -1.370016607909
    H            0.368675663185    -1.598665290911     0.365311286780
    C           -1.266850563441     0.601579249157     0.912638544659
    H           -1.796525673553    -0.815490903059    -0.595500594972
    H           -1.014052506921     0.603110777833    -1.220542229496
    C           -2.640345790943     1.264626325462     0.940717372883
    H           -1.195327995037    -0.111432324271     1.730021205371
    H           -0.507910678185     1.354360523010     1.097213309930
    H           -3.430635663087     0.534399549085     0.801861991143
    H           -2.815825853648     1.766326954514     1.885518408102
    H           -2.733565586263     2.003842133414     0.151926702090

  Mulliken Charges: (a.u.)
   Center  Symbol    Alpha    Beta     Spin     Total
       1     H     0.43009  0.43009  0.00000  0.13983
       2     N     3.69030  3.69030  0.00000 -0.38059
       3     C     3.02598  3.02598  0.00000 -0.05196
       4     H     0.43062  0.43062  0.00000  0.13876
       5     C     3.09220  3.09220  0.00000 -0.18441
       6     H     0.45730  0.45730  0.00000  0.08539
       7     H     0.46504  0.46504  0.00000  0.06993
       8     C     3.10076  3.10076  0.00000 -0.20152
       9     H     0.44279  0.44279  0.00000  0.11442
      10     H     0.45935  0.45935  0.00000  0.08129
      11     C     3.08578  3.08578  0.00000 -0.17157
      12     H     0.44860  0.44860  0.00000  0.10280
      13     H     0.45379  0.45379  0.00000  0.09242
      14     C     3.14929  3.14929  0.00000 -0.29858
      15     H     0.45511  0.45511  0.00000  0.08977
      16     H     0.45454  0.45454  0.00000  0.09091
      17     H     0.45468  0.45468  0.00000  0.09065
      18     H     0.44875  0.44875  0.00000  0.10249
      19     H     0.45502  0.45502  0.00000  0.08996

   Total alpha = 25.00000, Total beta = 25.00000, Total charge =  0.00000
