                              Psi4 1.0.54 Driver

  ==> Input File <==

--------------------------------------------------------------------------
set {
	reference rhf
	basis cc-pvtz
}

set_num_threads( 4 )
memory 2 gb

molecule MOL {
0 1

H	 -2.617446	 -0.462717	 1.593418
C	 -2.567943	 -0.636411	 0.520915
O	 -1.271010	 -0.503124	 0.043692
H	 -2.893205	 -1.646114	 0.316972
H	 -3.248467	 0.056053	 0.028711
C	 -0.718530	 0.758693	 0.228682
C	 0.718529	 0.758687	 -0.228709
H	 -1.271933	 1.500940	 -0.346457
H	 -0.760175	 1.047268	 1.276738
O	 1.401606	 -0.295166	 0.366636
H	 0.748705	 0.673477	 -1.312803
H	 1.176496	 1.708671	 0.046552
C	 2.714315	 -0.441627	 -0.061017
H	 2.765292	 -0.641548	 -1.128869
H	 3.305661	 0.447341	 0.150952
H	 3.143725	 -1.278506	 0.470147

	symmetry c1
}
set optking {
	frozen_dihedral = ("
		3 6 7 11
	")
}

ee,wfn = optimize('scf', return_wfn=True)
oeprop( wfn, 'DIPOLE', 'QUADRUPOLE', 'MULLIKEN_CHARGES')
f=open( 'psi4out.xyz', 'w' )
f.write( "16  " )
f.write( str(ee) + "\n" )
f.write( MOL.save_string_xyz() )
f.close()
--------------------------------------------------------------------------

    Molecular point group: c1
  Charge       = 0
  Multiplicity = 1
  Basis Set: CC-PVTZ
  Basis Set:
  @DF-RHF Final Energy:  -307.09548106891316
    Total Energy =                       -307.0954810689132728
    Molecular point group: c1
  Basis Set: CC-PVTZ
  Basis Set:
  Basis Set: CC-PVTZ
  Basis Set:
  @DF-RHF Final Energy:  -307.09588645996246
    Total Energy =                       -307.0958864599624007
  Basis Set: CC-PVTZ
  Basis Set:
  Basis Set: CC-PVTZ
  Basis Set:
  @DF-RHF Final Energy:  -307.09594382864043
    Total Energy =                       -307.0959438286405430
  Basis Set: CC-PVTZ
  Basis Set:
  Charge       = 0
  Multiplicity = 1
  Basis Set: CC-PVTZ
  Basis Set:

    Orbital Energies (a.u.)
    -----------------------

    Doubly Occupied:

       1A    -20.548138     2A    -20.546742     3A    -11.268464
       4A    -11.267792     5A    -11.261793     6A    -11.261117
       7A     -1.393158     8A     -1.374251     9A     -1.031640
      10A     -0.936545    11A     -0.895541    12A     -0.821570
      13A     -0.688159    14A     -0.680626    15A     -0.660698
      16A     -0.642394    17A     -0.627706    18A     -0.597221
      19A     -0.560649    20A     -0.527136    21A     -0.509813
      22A     -0.478145    23A     -0.466709    24A     -0.416862
      25A     -0.416718

  @DF-RHF Final Energy:  -307.09594629311670

   => Energetics <=

    Nuclear Repulsion Energy =            259.6069434141678016
    One-Electron Energy =                -933.6466044949688694
    Two-Electron Energy =                 366.9437147876839163
    DFT Exchange-Correlation Energy =       0.0000000000000000
    Empirical Dispersion Energy =           0.0000000000000000
    PCM Polarization Energy =               0.0000000000000000
    EFP Energy =                            0.0000000000000000
    Total Energy =                       -307.0959462931172084
    Molecular point group: c1
  Basis Set: CC-PVTZ
  Basis Set:

  -Total Gradient:
     Atom            X                  Y                   Z
    ------   -----------------  -----------------  -----------------
       1       -0.000011218430    -0.000000643349     0.000008758133
       2        0.000009361508     0.000029300997     0.000006409574
       3        0.001325088692    -0.001193920207     0.004025744130
       4        0.000004288917     0.000003974509    -0.000006059231
       5       -0.000014277532    -0.000009779775     0.000001427318
       6       -0.001700368852     0.003011213332    -0.005404949841
       7        0.000312608906    -0.007380022052     0.001706551992
       8       -0.000007634222    -0.000055775022    -0.000013454595
       9       -0.000003511041    -0.000006240774     0.000009049154
      10        0.000015692016    -0.000015154251    -0.000020610232
      11        0.000020578411     0.005614908320    -0.000342962680
      12        0.000034492177    -0.000011756093     0.000012254813
      13       -0.000054729990     0.000024781365     0.000023798445
      14       -0.000004045149    -0.000000343571     0.000005105080
      15        0.000034357239     0.000001852732    -0.000009026257
      16        0.000039317350    -0.000012396161    -0.000002035804

  **** Optimization is complete! (in 4 steps) ****
    Final optimized geometry and variables:
    Molecular point group: c1

    Geometry (in Angstrom), charge = 0, multiplicity = 1:

    H           -2.720744349509    -0.326572390666     1.422656570804
    C           -2.657578887644    -0.524221469981     0.354702041806
    O           -1.348869340296    -0.441040363615    -0.100312390401
    H           -3.009741395785    -1.527751739064     0.165852646313
    H           -3.308224195521     0.177919264175    -0.163497311558
    C           -0.758364579298     0.800596055900     0.084939751908
    C            0.674749116638     0.779538600240    -0.392255296048
    H           -1.294233794001     1.575759675296    -0.462484199096
    H           -0.779342688402     1.065981901332     1.141061060847
    O            1.379799093963    -0.242672179746     0.219311183211
    H            0.707025275224     0.706247788840    -1.478350135397
    H            1.115447691081     1.746751615082    -0.142021713077
    C            2.707134359387    -0.337654947450    -0.176858195140
    H            2.790912273800    -0.529863702718    -1.244127548328
    H            3.259670788147     0.571506091559     0.053216195677
    H            3.153899235911    -1.161142081685     0.360694557833

  Mulliken Charges: (a.u.)
   Center  Symbol    Alpha    Beta     Spin     Total
       1     H     0.47139  0.47139  0.00000  0.05722
       2     C     3.03159  3.03159  0.00000 -0.06319
       3     O     4.16592  4.16592  0.00000 -0.33185
       4     H     0.44592  0.44592  0.00000  0.10816
       5     H     0.47360  0.47360  0.00000  0.05280
       6     C     2.96267  2.96267  0.00000  0.07467
       7     C     2.96181  2.96181  0.00000  0.07637
       8     H     0.47588  0.47588  0.00000  0.04824
       9     H     0.47334  0.47334  0.00000  0.05333
      10     O     4.16470  4.16470  0.00000 -0.32940
      11     H     0.47296  0.47296  0.00000  0.05407
      12     H     0.47836  0.47836  0.00000  0.04327
      13     C     3.03204  3.03204  0.00000 -0.06407
      14     H     0.47061  0.47061  0.00000  0.05878
      15     H     0.47339  0.47339  0.00000  0.05322
      16     H     0.44581  0.44581  0.00000  0.10838

   Total alpha = 25.00000, Total beta = 25.00000, Total charge =  0.00000

*** Psi4 exiting successfully. Buy a developer a beer!
