  ==> Input File <==

--------------------------------------------------------------------------
set {
	reference rhf
	basis cc-pvtz
}

set_num_threads( 4 )
memory 2 gb

molecule MOL {
0 1

H	 -0.384567	 1.336808	 -0.987015
O	 0.057669	 1.301365	 -0.158528
C	 0.004145	 -0.005141	 0.363049
C	 1.199168	 -0.827145	 -0.096690
C	 -1.316386	 -0.602081	 -0.083515
H	 0.012026	 0.043363	 1.450619
H	 1.216685	 -0.896776	 -1.178167
H	 2.129940	 -0.372354	 0.228035
H	 1.160783	 -1.829622	 0.314294
H	 -1.357882	 -0.655920	 -1.165207
H	 -2.140147	 0.011735	 0.257253
H	 -1.440790	 -1.601175	 0.317669

	symmetry c1
}
set optking {
	frozen_dihedral = ("
		1 2 3 4
	")
}

ee = optimize('scf')
oeprop('DIPOLE', 'QUADRUPOLE', 'MULLIKEN_CHARGES')
f=open( 'psi4out.xyz', 'w' )
f.write( "12  " )
f.write( str(ee) + "\n" )
f.write( MOL.save_string_xyz() )
f.close()
--------------------------------------------------------------------------

    Molecular point group: c1
  Charge       = 0
  Multiplicity = 1
  Basis Set: CC-PVTZ
  Basis Set:
  @DF-RHF Final Energy:  -193.19293128277636
    Total Energy =                       -193.1929312827764136
    Molecular point group: c1
  Basis Set: CC-PVTZ
  Basis Set:
  Basis Set: CC-PVTZ
  Basis Set:
  @DF-RHF Final Energy:  -193.19447755249166
    Total Energy =                       -193.1944775524918043
  Basis Set: CC-PVTZ
  Basis Set:
  Basis Set: CC-PVTZ
  Basis Set:
  @DF-RHF Final Energy:  -193.19483854059939
    Total Energy =                       -193.1948385405995054
  Basis Set: CC-PVTZ
  Basis Set:
  Charge       = 0
  Multiplicity = 1
  Basis Set: CC-PVTZ
  Basis Set:

    Orbital Energies (a.u.)
    -----------------------

    Doubly Occupied:

       1A    -20.543152     2A    -11.273924     3A    -11.215389
       4A    -11.206836     5A     -1.363848     6A     -1.043336
       7A     -0.942639     8A     -0.818953     9A     -0.663208
      10A     -0.648643    11A     -0.605633    12A     -0.570656
      13A     -0.545663    14A     -0.517247    15A     -0.512807
      16A     -0.466673    17A     -0.433036

  @DF-RHF Final Energy:  -193.19484160203899

   => Energetics <=

    Nuclear Repulsion Energy =            135.5721236304485728
    One-Electron Energy =                -530.7906459915811865
    Two-Electron Energy =                 202.0236807590936223
    DFT Exchange-Correlation Energy =       0.0000000000000000
    Empirical Dispersion Energy =           0.0000000000000000
    PCM Polarization Energy =               0.0000000000000000
    EFP Energy =                            0.0000000000000000
    Total Energy =                       -193.1948416020389914
    Molecular point group: c1
  Basis Set: CC-PVTZ
  Basis Set:

  -Total Gradient:
     Atom            X                  Y                   Z
    ------   -----------------  -----------------  -----------------
       1       -0.001399785930     0.000326466791     0.000705588494
       2        0.001986424840    -0.000417697094    -0.000508169015
       3       -0.000953555923    -0.000249168174    -0.000982191285
       4        0.000408393352     0.000381419187     0.000811097873
       5       -0.000112737832    -0.000090817564    -0.000073544571
       6        0.000018650719     0.000001775112    -0.000035031851
       7        0.000001266999     0.000005363423     0.000016692423
       8        0.000043321743    -0.000012615367     0.000000756908
       9       -0.000042271814     0.000031556756     0.000021396772
      10        0.000007226523     0.000004534847     0.000013056461
      11        0.000018986195     0.000013759445     0.000020770353
      12        0.000024081128     0.000005422640     0.000009577436

  **** Optimization is complete! (in 4 steps) ****
    Final optimized geometry and variables:
    Molecular point group: c1

    Geometry (in Angstrom), charge = 0, multiplicity = 1:

    H           -0.279056604883     1.412732026118    -0.952567253830
    O            0.118527790484     1.327053182794    -0.105183438899
    C            0.006110036578     0.000044289715     0.353423528399
    C            1.208491760639    -0.819416697755    -0.089681287178
    C           -1.316356534214    -0.620595361487    -0.068369110892
    H            0.022484333381     0.073521357830     1.434691990008
    H            1.231040981470    -0.918496170462    -1.170703404591
    H            2.124244830085    -0.334618972986     0.223126943596
    H            1.180408829618    -1.814667673134     0.340569265616
    H           -1.375870637490    -0.703265088669    -1.150696618691
    H           -2.146526683797    -0.014861329600     0.274134242093
    H           -1.426270875682    -1.616191637009     0.344507948641

  Mulliken Charges: (a.u.)
   Center  Symbol    Alpha    Beta     Spin     Total
       1     H     0.39401  0.39401  0.00000  0.21199
       2     O     4.20990  4.20990  0.00000 -0.41980
       3     C     2.92475  2.92475  0.00000  0.15050
       4     C     3.14062  3.14062  0.00000 -0.28124
       5     C     3.15299  3.15299  0.00000 -0.30598
       6     H     0.45393  0.45393  0.00000  0.09214
       7     H     0.46116  0.46116  0.00000  0.07768
       8     H     0.44598  0.44598  0.00000  0.10805
       9     H     0.45859  0.45859  0.00000  0.08282
      10     H     0.46071  0.46071  0.00000  0.07858
      11     H     0.44418  0.44418  0.00000  0.11164
      12     H     0.45318  0.45318  0.00000  0.09364

   Total alpha = 17.00000, Total beta = 17.00000, Total charge = -0.00000
