  ==> Input File <==

--------------------------------------------------------------------------
set {
	reference rhf
	basis 6-31G*
}

set_num_threads( 1 )
memory 2 gb

molecule MOL {
0 1

H	 2.175697	 -0.091823	 -4.990933
C	 2.522188	 0.448462	 -4.115399
C	 1.373941	 0.721993	 -3.144892
H	 3.296918	 -0.148560	 -3.643488
H	 2.978561	 1.373679	 -4.456716
C	 1.827240	 1.489350	 -1.900908
H	 0.925697	 -0.219862	 -2.845580
H	 0.599047	 1.291131	 -3.656081
C	 0.695648	 1.793716	 -0.919008
H	 2.597768	 0.925866	 -1.386693
H	 2.275556	 2.431431	 -2.208377
C	 0.169600	 0.576866	 -0.172154
H	 1.044418	 2.494812	 -0.162309
H	 -0.131425	 2.290744	 -1.421094
C	 -1.181045	 0.701995	 0.511084
O	 0.798160	 -0.436498	 -0.105733
C	 -2.285934	 -0.139295	 -0.145128
H	 -1.449051	 1.751551	 0.493206
H	 -1.071135	 0.403303	 1.551943
C	 -3.651768	 0.085446	 0.506485
H	 -2.346596	 0.110469	 -1.202272
H	 -2.034737	 -1.195320	 -0.088721
C	 -4.759797	 -0.746382	 -0.137905
H	 -3.908762	 1.140117	 0.445781
H	 -3.588286	 -0.154158	 1.565709
H	 -4.868882	 -0.505166	 -1.191300
H	 -4.548009	 -1.809175	 -0.062213
H	 -5.715422	 -0.564821	 0.343442

	symmetry c1
}
set optking {
	frozen_dihedral = ("
		10 6 3 2,
		12 15 17 21
	")
}

ee = energy('scf')
oeprop('DIPOLE', 'QUADRUPOLE', 'MULLIKEN_CHARGES')
f=open( 'psi4out.xyz', 'w' )
f.write( "28  " )
f.write( str(ee) + "\n" )
f.write( MOL.save_string_xyz() )
f.close()
--------------------------------------------------------------------------

    Molecular point group: c1

    Geometry (in Angstrom), charge = 0, multiplicity = 1:

       Center              X                  Y                   Z               Mass
    ------------   -----------------  -----------------  -----------------  -----------------
           H          2.630114689530    -0.526638325925    -4.012994040224     1.007825032070
           C          2.976605689530     0.013646674075    -3.137460040224    12.000000000000
           C          1.828358689530     0.287177674075    -2.166953040224    12.000000000000
           H          3.751335689530    -0.583375325925    -2.665549040224     1.007825032070
           H          3.432978689530     0.938863674075    -3.478777040224     1.007825032070
           C          2.281657689530     1.054534674075    -0.922969040224    12.000000000000
           H          1.380114689530    -0.654677325925    -1.867641040224     1.007825032070
           H          1.053464689530     0.856315674075    -2.678142040224     1.007825032070
           C          1.150065689530     1.358900674075     0.058930959776    12.000000000000
           H          3.052185689530     0.491050674075    -0.408754040224     1.007825032070
           H          2.729973689530     1.996615674075    -1.230438040224     1.007825032070
           C          0.624017689530     0.142050674075     0.805784959776    12.000000000000
           H          1.498835689530     2.059996674075     0.815629959776     1.007825032070
           H          0.322992689530     1.855928674075    -0.443155040224     1.007825032070
           C         -0.726627310470     0.267179674075     1.489022959776    12.000000000000
           O          1.252577689530    -0.871313325925     0.872205959776    15.994914619560
           C         -1.831516310470    -0.574110325925     0.832810959776    12.000000000000
           H         -0.994633310470     1.316735674075     1.471144959776     1.007825032070
           H         -0.616717310470    -0.031512325925     2.529881959776     1.007825032070
           C         -3.197350310470    -0.349369325925     1.484423959776    12.000000000000
           H         -1.892178310470    -0.324346325925    -0.224333040224     1.007825032070
           H         -1.580319310470    -1.630135325925     0.889217959776     1.007825032070
           C         -4.305379310470    -1.181197325925     0.840033959776    12.000000000000
           H         -3.454344310470     0.705301674075     1.423719959776     1.007825032070
           H         -3.133868310470    -0.588973325925     2.543647959776     1.007825032070
           H         -4.414464310470    -0.939981325925    -0.213361040224     1.007825032070
           H         -4.093591310470    -2.243990325925     0.915725959776     1.007825032070
           H         -5.261004310470    -0.999636325925     1.321380959776     1.007825032070

  Charge       = 0
  Multiplicity = 1
  Basis Set: 6-31G*
  Basis Set:

    Orbital Energies (a.u.)
    -----------------------

    Doubly Occupied:

       1A    -20.546768     2A    -11.322252     3A    -11.230822
       4A    -11.229259     5A    -11.228642     6A    -11.223708
       7A    -11.216351     8A    -11.214140     9A    -11.212610
      10A    -11.205909    11A     -1.392642    12A     -1.091463
      13A     -1.077900    14A     -1.022084    15A     -0.991202
      16A     -0.909996    17A     -0.868733    18A     -0.806996
      19A     -0.797169    20A     -0.723649    21A     -0.667963
      22A     -0.654334    23A     -0.623340    24A     -0.618825
      25A     -0.609834    26A     -0.588839    27A     -0.575339
      28A     -0.574295    29A     -0.541401    30A     -0.531280
      31A     -0.517176    32A     -0.509238    33A     -0.502170
      34A     -0.480500    35A     -0.478123    36A     -0.472326
      37A     -0.468327    38A     -0.465300    39A     -0.455950
      40A     -0.391727

  @DF-RHF Final Energy:  -426.16880996478733

   => Energetics <=

    Nuclear Repulsion Energy =            533.7923827522691909
    One-Electron Energy =               -1635.8453885520966651
    Two-Electron Energy =                 675.8841958350384402
    DFT Exchange-Correlation Energy =       0.0000000000000000
    Empirical Dispersion Energy =           0.0000000000000000
    PCM Polarization Energy =               0.0000000000000000
    EFP Energy =                            0.0000000000000000
    Total Energy =                       -426.1688099647891477

  Mulliken Charges: (a.u.)
   Center  Symbol    Alpha    Beta     Spin     Total
       1     H     0.41941  0.41941  0.00000  0.16118
       2     C     3.24008  3.24008  0.00000 -0.48017
       3     C     3.15633  3.15633  0.00000 -0.31266
       4     H     0.41823  0.41823  0.00000  0.16354
       5     H     0.42354  0.42354  0.00000  0.15291
       6     C     3.14985  3.14985  0.00000 -0.29969
       7     H     0.41052  0.41052  0.00000  0.17897
       8     H     0.42782  0.42782  0.00000  0.14437
       9     C     3.21416  3.21416  0.00000 -0.42831
      10     H     0.40640  0.40640  0.00000  0.18720
      11     H     0.42185  0.42185  0.00000  0.15629
      12     C     2.73238  2.73238  0.00000  0.53525
      13     H     0.40342  0.40342  0.00000  0.19315
      14     H     0.41232  0.41232  0.00000  0.17536
      15     C     3.19847  3.19847  0.00000 -0.39695
      16     O     4.26860  4.26860  0.00000 -0.53720
      17     C     3.15701  3.15701  0.00000 -0.31403
      18     H     0.41702  0.41702  0.00000  0.16596
      19     H     0.40236  0.40236  0.00000  0.19529
      20     C     3.15259  3.15259  0.00000 -0.30518
      21     H     0.42038  0.42038  0.00000  0.15923
      22     H     0.40674  0.40674  0.00000  0.18652
      23     C     3.24024  3.24024  0.00000 -0.48048
      24     H     0.42245  0.42245  0.00000  0.15510
      25     H     0.42021  0.42021  0.00000  0.15958
      26     H     0.42083  0.42083  0.00000  0.15834
      27     H     0.41912  0.41912  0.00000  0.16177
      28     H     0.41767  0.41767  0.00000  0.16465

   Total alpha = 40.00000, Total beta = 40.00000, Total charge =  0.00000
