  ==> Input File <==

--------------------------------------------------------------------------
set {
	reference rhf
	basis cc-pvtz
}

set_num_threads( 4 )
memory 2 gb

molecule MOL {
0 1

O	 -1.278239	 1.034789	 -0.784693
C	 -1.204115	 0.062668	 -0.112312
C	 -2.386398	 -0.667698	 0.460323
O	 -0.068058	 -0.518372	 0.226882
H	 -2.382952	 -1.693172	 0.114333
H	 -3.296656	 -0.175702	 0.158400
H	 -2.312537	 -0.685191	 1.540100
C	 1.169086	 0.037484	 -0.230612
C	 1.253453	 1.429756	 0.362324
C	 1.205408	 0.035237	 -1.748269
H	 1.969956	 -0.577257	 0.151210
H	 1.218863	 1.387918	 1.443436
H	 2.182350	 1.902935	 0.067427
H	 0.430792	 2.044675	 0.017305
H	 2.136399	 0.467048	 -2.096545
H	 1.136142	 -0.972818	 -2.132554
H	 0.386131	 0.621493	 -2.148735

	symmetry c1
}
set optking {
	frozen_dihedral = ("
		11 8 4 2
	")
}

ee = optimize('scf')
oeprop('DIPOLE', 'QUADRUPOLE', 'MULLIKEN_CHARGES')
f=open( 'psi4out.xyz', 'w' )
f.write( "17  " )
f.write( str(ee) + "\n" )
f.write( MOL.save_string_xyz() )
f.close()
--------------------------------------------------------------------------

    Molecular point group: c1
  Charge       = 0
  Multiplicity = 1
  Basis Set: CC-PVTZ
  Basis Set:
  @DF-RHF Final Energy:  -345.03031367020793
    Total Energy =                       -345.0303136702074198
    Molecular point group: c1
  Basis Set: CC-PVTZ
  Basis Set:
  Basis Set: CC-PVTZ
  Basis Set:
  @DF-RHF Final Energy:  -345.03753168187683
    Total Energy =                       -345.0375316818766578
  Basis Set: CC-PVTZ
  Basis Set:
  Basis Set: CC-PVTZ
  Basis Set:
  @DF-RHF Final Energy:  -345.03829528966912
    Total Energy =                       -345.0382952896689517
  Basis Set: CC-PVTZ
  Basis Set:
  Basis Set: CC-PVTZ
  Basis Set:
  @DF-RHF Final Energy:  -345.03623133230815
    Total Energy =                       -345.0362313323080343
  Basis Set: CC-PVTZ
  Basis Set:
  Basis Set: CC-PVTZ
  Basis Set:
  @DF-RHF Final Energy:  -345.03863705891956
    Total Energy =                       -345.0386370589191642
  Basis Set: CC-PVTZ
  Basis Set:
  Basis Set: CC-PVTZ
  Basis Set:
  @DF-RHF Final Energy:  -345.03868001441168
    Total Energy =                       -345.0386800144114545
  Basis Set: CC-PVTZ
  Basis Set:
  Basis Set: CC-PVTZ
  Basis Set:
  @DF-RHF Final Energy:  -345.03868153635455
    Total Energy =                       -345.0386815363544883
  Basis Set: CC-PVTZ
  Basis Set:
  Charge       = 0
  Multiplicity = 1
  Basis Set: CC-PVTZ
  Basis Set:

    Orbital Energies (a.u.)
    -----------------------

    Doubly Occupied:

       1A    -20.589887     2A    -20.530075     3A    -11.366693
       4A    -11.292188     5A    -11.229193     6A    -11.212311
       7A    -11.212295     8A     -1.465662     9A     -1.363838
      10A     -1.077011    11A     -1.003727    12A     -0.946478
      13A     -0.868509    14A     -0.731960    15A     -0.698229
      16A     -0.672940    17A     -0.662920    18A     -0.615614
      19A     -0.586594    20A     -0.581150    21A     -0.570422
      22A     -0.552598    23A     -0.529704    24A     -0.520551
      25A     -0.498900    26A     -0.484570    27A     -0.449005
      28A     -0.431529

  @DF-RHF Final Energy:  -345.03868169589413

   => Energetics <=

    Nuclear Repulsion Energy =            327.4661087376373985
    One-Electron Energy =               -1119.5204753122343391
    Two-Electron Energy =                 447.0156848787028139
    DFT Exchange-Correlation Energy =       0.0000000000000000
    Empirical Dispersion Energy =           0.0000000000000000
    PCM Polarization Energy =               0.0000000000000000
    EFP Energy =                            0.0000000000000000
    Total Energy =                       -345.0386816958941836
    Molecular point group: c1
  Basis Set: CC-PVTZ
  Basis Set:

  -Total Gradient:
     Atom            X                  Y                   Z
    ------   -----------------  -----------------  -----------------
       1        0.000004206449    -0.000005639539    -0.000001936172
       2        0.000006677847     0.000014284885     0.000021336459
       3       -0.000000744578    -0.000010556155    -0.000017398571
       4       -0.000000677036     0.000008194217    -0.000014158206
       5       -0.000000374092    -0.000004262063     0.000006417916
       6        0.000002047612     0.000000411274     0.000002259654
       7       -0.000000965044     0.000004660386     0.000000833689
       8        0.000027884199     0.000004416853    -0.000002618903
       9       -0.000014029468     0.000006817676    -0.000001415845
      10       -0.000007285529    -0.000004227881    -0.000002000427
      11       -0.000008156957    -0.000014989572    -0.000000009830
      12       -0.000002372355     0.000002185526     0.000001217996
      13       -0.000007776537    -0.000004631082    -0.000001635337
      14        0.000003931935     0.000004507748     0.000004154841
      15       -0.000006571704     0.000001058442     0.000002081690
      16       -0.000001878353    -0.000002123626    -0.000001172252
      17        0.000006083610    -0.000000107085     0.000004043295

  **** Optimization is complete! (in 8 steps) ****
    Final optimized geometry and variables:
    Molecular point group: c1

    Geometry (in Angstrom), charge = 0, multiplicity = 1:

    O           -1.232154775591     0.804811970142    -0.488778775475
    C           -1.068151567762    -0.170209646695     0.163554908058
    C           -2.183876364774    -0.981283417850     0.763601490549
    O            0.107292851618    -0.688804290695     0.460937196319
    H           -2.131859659270    -1.998386222944     0.397274964809
    H           -3.132067338276    -0.539937193051     0.502857285227
    H           -2.070857511062    -1.013923514264     1.839562628007
    C            1.342763287999    -0.110348399526     0.013580530348
    C            1.573821829269     1.268793666575     0.609255567843
    C            1.478140626099    -0.157701674578    -1.499581924444
    H            2.067038966112    -0.789656980048     0.440154646788
    H            1.436583850378     1.243089489176     1.683660820892
    H            2.594788700943     1.573194197153     0.409349696562
    H            0.904996488041     2.003944933817     0.188535682661
    H            2.495901290555     0.098016066502    -1.771193773022
    H            1.275369910162    -1.157296589251    -1.865006272200
    H            0.806573257261     0.534777893529    -1.983559663239

  Mulliken Charges: (a.u.)
   Center  Symbol    Alpha    Beta     Spin     Total
       1     O     4.20213  4.20213  0.00000 -0.40426
       2     C     2.80039  2.80039  0.00000  0.39922
       3     C     3.13711  3.13711  0.00000 -0.27422
       4     O     4.16346  4.16346  0.00000 -0.32693
       5     H     0.44590  0.44590  0.00000  0.10821
       6     H     0.43879  0.43879  0.00000  0.12242
       7     H     0.44593  0.44593  0.00000  0.10814
       8     C     2.93828  2.93828  0.00000  0.12345
       9     C     3.15972  3.15972  0.00000 -0.31943
      10     C     3.15971  3.15971  0.00000 -0.31943
      11     H     0.43976  0.43976  0.00000  0.12048
      12     H     0.44827  0.44827  0.00000  0.10346
      13     H     0.45030  0.45030  0.00000  0.09940
      14     H     0.43584  0.43584  0.00000  0.12831
      15     H     0.45030  0.45030  0.00000  0.09939
      16     H     0.44827  0.44827  0.00000  0.10346
      17     H     0.43584  0.43584  0.00000  0.12831

   Total alpha = 28.00000, Total beta = 28.00000, Total charge = -0.00000
