  ==> Input File <==

--------------------------------------------------------------------------
set {
	reference rhf
	basis 6-31G*
}

set_num_threads( 4 )
memory 2 gb

molecule MOL {
0 1

O	 -2.042549	 -1.228399	 -0.269030
C	 -1.653912	 -0.146171	 0.050137
C	 -0.332303	 0.024011	 0.778412
C	 -2.438579	 1.106236	 -0.272369
C	 0.728985	 -0.938534	 0.222494
H	 0.018792	 1.048899	 0.696436
H	 -0.504321	 -0.192175	 1.827028
C	 2.069149	 -0.821258	 0.949983
H	 0.879289	 -0.747498	 -0.838636
H	 0.352943	 -1.953828	 0.305632
C	 3.123750	 -1.783629	 0.405130
H	 2.435504	 0.199978	 0.870695
H	 1.918586	 -1.011633	 2.010009
H	 3.321305	 -1.595534	 -0.646366
H	 2.798967	 -2.815511	 0.500939
H	 4.061812	 -1.680565	 0.941268
H	 -3.277823	 0.863061	 -0.908988
H	 -1.806773	 1.843019	 -0.759671
H	 -2.802853	 1.554979	 0.648059

	symmetry c1
}
set optking {
	frozen_dihedral = ("
		5 3 2 4
	")
}

ee = optimize('scf')
oeprop('DIPOLE', 'QUADRUPOLE', 'MULLIKEN_CHARGES')
f=open( 'psi4out.xyz', 'w' )
f.write( "19  " )
f.write( str(ee) + "\n" )
f.write( MOL.save_string_xyz() )
f.close()
--------------------------------------------------------------------------

    Molecular point group: c1
  Charge       = 0
  Multiplicity = 1
  Basis Set: 6-31G*
  Basis Set:
  @DF-RHF Final Energy:  -309.06508722226016
    Total Energy =                       -309.0650872222601038
    Molecular point group: c1
  Basis Set: 6-31G*
  Basis Set:
  Basis Set: 6-31G*
  Basis Set:
  @DF-RHF Final Energy:  -309.06385952217244
    Total Energy =                       -309.0638595221726632
  Basis Set: 6-31G*
  Basis Set:
  Basis Set: 6-31G*
  Basis Set:
  @DF-RHF Final Energy:  -309.06555857014683
    Total Energy =                       -309.0655585701469477
  Basis Set: 6-31G*
  Basis Set:
  Basis Set: 6-31G*
  Basis Set:
  @DF-RHF Final Energy:  -309.06572297870088
    Total Energy =                       -309.0657229787008191
  Basis Set: 6-31G*
  Basis Set:
  Basis Set: 6-31G*
  Basis Set:
  @DF-RHF Final Energy:  -309.06561288715790
    Total Energy =                       -309.0656128871578403
  Basis Set: 6-31G*
  Basis Set:
  Basis Set: 6-31G*
  Basis Set:
  @DF-RHF Final Energy:  -309.06581395674652
    Total Energy =                       -309.0658139567467515
  Basis Set: 6-31G*
  Basis Set:
  Basis Set: 6-31G*
  Basis Set:
  @DF-RHF Final Energy:  -309.06581951405354
    Total Energy =                       -309.0658195140535440
  Basis Set: 6-31G*
  Basis Set:
  Charge       = 0
  Multiplicity = 1
  Basis Set: 6-31G*
  Basis Set:

    Orbital Energies (a.u.)
    -----------------------

    Doubly Occupied:

       1A    -20.548818     2A    -11.326253     3A    -11.231127
       4A    -11.228853     5A    -11.221313     6A    -11.220599
       7A    -11.211338     8A     -1.394786     9A     -1.086700
      10A     -1.029174    11A     -0.984176    12A     -0.886910
      13A     -0.802568    14A     -0.731632    15A     -0.659683
      16A     -0.647409    17A     -0.623594    18A     -0.611405
      19A     -0.581794    20A     -0.572434    21A     -0.553446
      22A     -0.532684    23A     -0.513853    24A     -0.489718
      25A     -0.476530    26A     -0.473027    27A     -0.467933
      28A     -0.398423

  @DF-RHF Final Energy:  -309.06582038208421

   => Energetics <=

    Nuclear Repulsion Energy =            300.8004601838869121
    One-Electron Energy =               -1014.7202010590453938
    Two-Electron Energy =                 404.8539204930743267
    DFT Exchange-Correlation Energy =       0.0000000000000000
    Empirical Dispersion Energy =           0.0000000000000000
    PCM Polarization Energy =               0.0000000000000000
    EFP Energy =                            0.0000000000000000
    Total Energy =                       -309.0658203820841550
    Molecular point group: c1
  Basis Set: 6-31G*
  Basis Set:

  -Total Gradient:
     Atom            X                  Y                   Z
    ------   -----------------  -----------------  -----------------
       1        0.000026488363     0.000007042236     0.000016093398
       2       -0.000652354509     0.000128695472     0.001057088910
       3       -0.000113225045    -0.000933603596     0.000479161806
       4        0.000494065186     0.000076868292    -0.000939107445
       5        0.000263137676     0.000681979627    -0.000637519653
       6       -0.000012002252    -0.000004480804     0.000006521039
       7        0.000005076143     0.000006432836     0.000004529502
       8       -0.000004937691     0.000018221089    -0.000001990874
       9        0.000010381463    -0.000011549830     0.000011610932
      10       -0.000016166273     0.000005815757    -0.000003840045
      11       -0.000008362982     0.000002338996    -0.000018311364
      12       -0.000007637639     0.000008970256     0.000015463410
      13        0.000000247140    -0.000011642013    -0.000001882275
      14        0.000003003393    -0.000004407318    -0.000001454188
      15        0.000001447367     0.000004250497    -0.000002729655
      16        0.000001388869     0.000003458352     0.000001090527
      17        0.000008564178     0.000005253179     0.000011046880
      18       -0.000000593443     0.000013695389    -0.000001953586
      19        0.000001480061     0.000002661583     0.000006182682

  **** Optimization is complete! (in 8 steps) ****
    Final optimized geometry and variables:
    Molecular point group: c1

    Geometry (in Angstrom), charge = 0, multiplicity = 1:

    O           -2.008425428500    -0.674678612122    -0.539130937876
    C           -1.591088639678     0.397891090551    -0.224389651870
    C           -0.256333273939     0.548486862715     0.489562926334
    C           -2.363003993759     1.664879893687    -0.516660050977
    C            0.822363602023    -0.391109670876    -0.053385282209
    H            0.076313580203     1.581524181135     0.438477452859
    H           -0.438705977852     0.336768028778     1.542296730919
    C            2.138359253048    -0.286702131210     0.718447249721
    H            0.999076531783    -0.164004925108    -1.102572037087
    H            0.450264358007    -1.408652076099    -0.018528343059
    C            3.220309149667    -1.215252255847     0.168391441764
    H            2.496938287490     0.740348324061     0.691710667888
    H            1.960823416664    -0.520763194449     1.766071335031
    H            3.446286555828    -0.982930092507    -0.868391188968
    H            2.904173657049    -2.253311332450     0.212404518106
    H            4.141106523808    -1.124589381239     0.736054999210
    H           -3.332671229096     1.421825005823    -0.928186432070
    H           -1.809298037825     2.272138356991    -1.227922117609
    H           -2.482807841697     2.257875874102     0.385606640629

  Mulliken Charges: (a.u.)
   Center  Symbol    Alpha    Beta     Spin     Total
       1     O     4.26308  4.26308  0.00000 -0.52616
       2     C     2.73404  2.73404  0.00000  0.53192
       3     C     3.20824  3.20824  0.00000 -0.41648
       4     C     3.28849  3.28849  0.00000 -0.57699
       5     C     3.15284  3.15284  0.00000 -0.30568
       6     H     0.41517  0.41517  0.00000  0.16966
       7     H     0.40360  0.40360  0.00000  0.19279
       8     C     3.15299  3.15299  0.00000 -0.30598
       9     H     0.42023  0.42023  0.00000  0.15955
      10     H     0.40328  0.40328  0.00000  0.19343
      11     C     3.23968  3.23968  0.00000 -0.47936
      12     H     0.42396  0.42396  0.00000  0.15207
      13     H     0.42204  0.42204  0.00000  0.15591
      14     H     0.42095  0.42095  0.00000  0.15810
      15     H     0.41907  0.41907  0.00000  0.16187
      16     H     0.41873  0.41873  0.00000  0.16255
      17     H     0.39715  0.39715  0.00000  0.20569
      18     H     0.40716  0.40716  0.00000  0.18567
      19     H     0.40929  0.40929  0.00000  0.18142

   Total alpha = 28.00000, Total beta = 28.00000, Total charge =  0.00000
