  ==> Input File <==

--------------------------------------------------------------------------
set {
	reference rhf
	basis 6-31G*
}

set_num_threads( 4 )
memory 2 gb

molecule MOL {
0 1

H	 1.148083	 -1.049780	 0.784252
O	 1.319262	 -0.618148	 -0.041729
C	 0.709265	 0.639550	 -0.033818
C	 -0.615352	 0.687536	 -0.749127
H	 1.406749	 1.316940	 -0.513257
H	 0.577604	 0.999392	 0.986086
C	 -1.124194	 -0.287005	 -1.475841
H	 -1.160337	 1.612044	 -0.636165
H	 -0.601077	 -1.214130	 -1.624895
H	 -2.078896	 -0.184264	 -1.959541

	symmetry c1
}
set optking {
	frozen_dihedral = ("
		5 3 2 1
	")
}

ee = optimize('scf')
oeprop('DIPOLE', 'QUADRUPOLE', 'MULLIKEN_CHARGES')
f=open( 'psi4out.xyz', 'w' )
f.write( "10  " )
f.write( str(ee) + "\n" )
f.write( MOL.save_string_xyz() )
f.close()
--------------------------------------------------------------------------

    Molecular point group: c1
  Charge       = 0
  Multiplicity = 1
  Basis Set: 6-31G*
  Basis Set:
  @DF-RHF Final Energy:  -191.91522432733564
    Total Energy =                       -191.9152243273356362
    Molecular point group: c1
  Basis Set: 6-31G*
  Basis Set:
  Basis Set: 6-31G*
  Basis Set:
  @DF-RHF Final Energy:  -191.91556512777970
    Total Energy =                       -191.9155651277797574
  Basis Set: 6-31G*
  Basis Set:
  Basis Set: 6-31G*
  Basis Set:
  @DF-RHF Final Energy:  -191.91562944920494
    Total Energy =                       -191.9156294492048573
  Basis Set: 6-31G*
  Basis Set:
  Basis Set: 6-31G*
  Basis Set:
  @DF-RHF Final Energy:  -191.91563121301337
    Total Energy =                       -191.9156312130133699
  Basis Set: 6-31G*
  Basis Set:
  Charge       = 0
  Multiplicity = 1
  Basis Set: 6-31G*
  Basis Set:

    Orbital Energies (a.u.)
    -----------------------

    Doubly Occupied:

       1A    -20.559864     2A    -11.278675     3A    -11.225266
       4A    -11.212658     5A     -1.367901     6A     -1.054162
       7A     -0.925318     8A     -0.761126     9A     -0.698380
      10A     -0.653953    11A     -0.610882    12A     -0.573649
      13A     -0.517186    14A     -0.502705    15A     -0.445022
      16A     -0.358875

  @DF-RHF Final Energy:  -191.91563145932847

   => Energetics <=

    Nuclear Repulsion Energy =            119.2246426013840335
    One-Electron Energy =                -496.7893052684132726
    Two-Electron Energy =                 185.6490312077007729
    DFT Exchange-Correlation Energy =       0.0000000000000000
    Empirical Dispersion Energy =           0.0000000000000000
    PCM Polarization Energy =               0.0000000000000000
    EFP Energy =                            0.0000000000000000
    Total Energy =                       -191.9156314593284378
    Molecular point group: c1
  Basis Set: 6-31G*
  Basis Set:

  -Total Gradient:
     Atom            X                  Y                   Z
    ------   -----------------  -----------------  -----------------
       1        0.001783006487     0.000864365580     0.000973126744
       2       -0.002012711962    -0.000983396358    -0.000805412173
       3       -0.000504552827    -0.000164542294    -0.001897772343
       4        0.000010637448     0.000036262761     0.000022540844
       5        0.000732240058     0.000272116758     0.001717406521
       6       -0.000011999991    -0.000002516402    -0.000001564437
       7        0.000016544798    -0.000006677283    -0.000028175088
       8       -0.000002560843    -0.000006471096     0.000001688397
       9       -0.000008252581    -0.000007914063     0.000009094771
      10       -0.000002350589    -0.000001227601     0.000009066764

  **** Optimization is complete! (in 5 steps) ****
    Final optimized geometry and variables:
    Molecular point group: c1

    Geometry (in Angstrom), charge = 0, multiplicity = 1:

    H            1.008784358542    -1.167074266835     1.237104262596
    O            1.193423026224    -0.675954319986     0.450727265538
    C            0.561951709359     0.573394894175     0.511891106140
    C           -0.745060873656     0.622489917141    -0.231589458785
    H            1.250083116432     1.305314502955     0.100980771094
    H            0.394388803088     0.870742203603     1.546144240224
    C           -1.273532445639    -0.377332469249    -0.906555977062
    H           -1.256076969094     1.572181110214    -0.186011937278
    H           -0.779928850192    -1.328640334153    -0.977498114202
    H           -2.213757827651    -0.271000135264    -1.417384994993

  Mulliken Charges: (a.u.)
   Center  Symbol    Alpha    Beta     Spin     Total
       1     H     0.27808  0.27808  0.00000  0.44383
       2     O     4.36849  4.36849  0.00000 -0.73698
       3     C     3.00369  3.00369  0.00000 -0.00738
       4     C     3.08953  3.08953  0.00000 -0.17905
       5     H     0.41191  0.41191  0.00000  0.17619
       6     H     0.42659  0.42659  0.00000  0.14682
       7     C     3.19328  3.19328  0.00000 -0.38655
       8     H     0.41253  0.41253  0.00000  0.17493
       9     H     0.40252  0.40252  0.00000  0.19496
      10     H     0.41338  0.41338  0.00000  0.17323

   Total alpha = 16.00000, Total beta = 16.00000, Total charge =  0.00000
