  ==> Input File <==

--------------------------------------------------------------------------
set {
	reference rhf
	basis 6-31G*
}

set_num_threads( 1 )
memory 2 gb

molecule MOL {
0 1

O	 2.862325	 1.357334	 0.000267
C	 2.843464	 0.164689	 -0.000222
C	 1.546494	 -0.624492	 -0.000609
C	 4.124123	 -0.644674	 -0.000428
C	 0.291004	 0.242674	 0.000989
H	 1.557904	 -1.283758	 -0.867573
H	 1.558622	 -1.285963	 0.864672
C	 -0.856380	 -0.388347	 0.791611
H	 -0.020239	 0.419878	 -1.023636
H	 0.532120	 1.216994	 0.414162
C	 -2.121161	 0.471890	 0.798981
H	 -1.090676	 -1.366549	 0.374149
H	 -0.536943	 -0.564841	 1.817709
C	 -3.273487	 -0.152645	 1.587723
H	 -2.441797	 0.648372	 -0.226233
H	 -1.888336	 1.449710	 1.216900
C	 -4.533400	 0.712396	 1.590279
H	 -3.507921	 -1.129624	 1.170140
H	 -2.954671	 -0.328141	 2.613109
H	 -4.897126	 0.878090	 0.580131
H	 -5.332131	 0.243151	 2.156441
H	 -4.340275	 1.684830	 2.034374
H	 4.165367	 -1.288615	 -0.874074
H	 4.976217	 0.020734	 -0.001915
H	 4.166763	 -1.286207	 0.874930

	symmetry c1
}
set optking {
	frozen_dihedral = ("
		9 5 8 12,
		15 11 8 12,
		15 11 14 18,
		1 2 3 6
	")
}

ee = energy('scf')
oeprop('DIPOLE', 'QUADRUPOLE', 'MULLIKEN_CHARGES')
f=open( 'psi4out.xyz', 'w' )
f.write( "25  " )
f.write( str(ee) + "\n" )
f.write( MOL.save_string_xyz() )
f.close()
--------------------------------------------------------------------------

    Molecular point group: c1

    Geometry (in Angstrom), charge = 0, multiplicity = 1:

       Center              X                  Y                   Z               Mass
    ------------   -----------------  -----------------  -----------------  -----------------
           O          2.769453244663     1.223857972941    -0.533876172140    15.994914619560
           C          2.750592244663     0.031212972941    -0.534365172140    12.000000000000
           C          1.453622244663    -0.757968027059    -0.534752172140    12.000000000000
           C          4.031251244663    -0.778150027059    -0.534571172140    12.000000000000
           C          0.198132244663     0.109197972941    -0.533154172140    12.000000000000
           H          1.465032244663    -1.417234027059    -1.401716172140     1.007825032070
           H          1.465750244663    -1.419439027059     0.330528827860     1.007825032070
           C         -0.949251755337    -0.521823027059     0.257467827860    12.000000000000
           H         -0.113110755337     0.286401972941    -1.557779172140     1.007825032070
           H          0.439248244663     1.083517972941    -0.119981172140     1.007825032070
           C         -2.214032755337     0.338413972941     0.264837827860    12.000000000000
           H         -1.183547755337    -1.500025027059    -0.159994172140     1.007825032070
           H         -0.629814755337    -0.698317027059     1.283565827860     1.007825032070
           C         -3.366358755337    -0.286121027059     1.053579827860    12.000000000000
           H         -2.534668755337     0.514895972941    -0.760376172140     1.007825032070
           H         -1.981207755337     1.316233972941     0.682756827860     1.007825032070
           C         -4.626271755337     0.578919972941     1.056135827860    12.000000000000
           H         -3.600792755337    -1.263100027059     0.635996827860     1.007825032070
           H         -3.047542755337    -0.461617027059     2.078965827860     1.007825032070
           H         -4.989997755337     0.744613972941     0.045987827860     1.007825032070
           H         -5.425002755337     0.109674972941     1.622297827860     1.007825032070
           H         -4.433146755337     1.551353972941     1.500230827860     1.007825032070
           H          4.072495244663    -1.422091027059    -1.408217172140     1.007825032070
           H          4.883345244663    -0.112742027059    -0.536058172140     1.007825032070
           H          4.073891244663    -1.419683027059     0.340786827860     1.007825032070

  Charge       = 0
  Multiplicity = 1
  Basis Set: 6-31G*
  Basis Set:

    Orbital Energies (a.u.)
    -----------------------

    Doubly Occupied:

       1A    -20.551005     2A    -11.326875     3A    -11.230947
       4A    -11.228765     5A    -11.216081     6A    -11.214688
       7A    -11.213800     8A    -11.212523     9A    -11.207783
      10A     -1.396635    11A     -1.092771    12A     -1.055810
      13A     -1.014429    14A     -0.968821    15A     -0.889997
      16A     -0.814009    17A     -0.790359    18A     -0.729910
      19A     -0.664961    20A     -0.647909    21A     -0.631945
      22A     -0.623844    23A     -0.595059    24A     -0.583565
      25A     -0.569892    26A     -0.559097    27A     -0.537224
      28A     -0.525614    29A     -0.513063    30A     -0.493268
      31A     -0.484197    32A     -0.471371    33A     -0.463627
      34A     -0.460435    35A     -0.447853    36A     -0.400805

  @DF-RHF Final Energy:  -387.13348826048855

   => Energetics <=

    Nuclear Repulsion Energy =            439.4874542059566238
    One-Electron Energy =               -1395.5838980049468319
    Two-Electron Energy =                 568.9629555385009780
    DFT Exchange-Correlation Energy =       0.0000000000000000
    Empirical Dispersion Energy =           0.0000000000000000
    PCM Polarization Energy =               0.0000000000000000
    EFP Energy =                            0.0000000000000000
    Total Energy =                       -387.1334882604892300

  Mulliken Charges: (a.u.)
   Center  Symbol    Alpha    Beta     Spin     Total
       1     O     4.26024  4.26024  0.00000 -0.52047
       2     C     2.73802  2.73802  0.00000  0.52396
       3     C     3.21314  3.21314  0.00000 -0.42628
       4     C     3.28679  3.28679  0.00000 -0.57358
       5     C     3.15373  3.15373  0.00000 -0.30745
       6     H     0.40779  0.40779  0.00000  0.18442
       7     H     0.40865  0.40865  0.00000  0.18269
       8     C     3.15552  3.15552  0.00000 -0.31104
       9     H     0.41851  0.41851  0.00000  0.16298
      10     H     0.39821  0.39821  0.00000  0.20358
      11     C     3.15119  3.15119  0.00000 -0.30238
      12     H     0.42544  0.42544  0.00000  0.14913
      13     H     0.42381  0.42381  0.00000  0.15237
      14     C     3.15145  3.15145  0.00000 -0.30291
      15     H     0.42351  0.42351  0.00000  0.15298
      16     H     0.42147  0.42147  0.00000  0.15706
      17     C     3.23929  3.23929  0.00000 -0.47859
      18     H     0.42381  0.42381  0.00000  0.15238
      19     H     0.42337  0.42337  0.00000  0.15325
      20     H     0.42174  0.42174  0.00000  0.15652
      21     H     0.41964  0.41964  0.00000  0.16071
      22     H     0.42115  0.42115  0.00000  0.15769
      23     H     0.40856  0.40856  0.00000  0.18288
      24     H     0.39641  0.39641  0.00000  0.20719
      25     H     0.40856  0.40856  0.00000  0.18287

   Total alpha = 36.00000, Total beta = 36.00000, Total charge =  0.00000
