                              Psi4 1.0.54 Driver

  ==> Input File <==

--------------------------------------------------------------------------
set {
	reference rhf
	basis cc-pvtz
}

set_num_threads( 4 )
memory 2 gb

molecule MOL {
0 1

H	 -1.835082	 1.385983	 0.000069
C	 -1.300516	 0.441153	 -0.000028
O	 -0.006604	 0.654344	 -0.000106
O	 -1.828920	 -0.612308	 0.000113
C	 0.576849	 1.187572	 -1.185464
C	 2.059186	 1.341165	 -0.940943
H	 0.108866	 2.135704	 -1.409060
H	 0.375436	 0.514900	 -2.006992
H	 2.245750	 2.014000	 -0.113624
H	 2.534399	 1.745988	 -1.826462
H	 2.513660	 0.385047	 -0.714533

	symmetry c1
}
set optking {
	frozen_dihedral = ("
		5 3 2 4
	")
}

ee,wfn = optimize('scf', return_wfn=True)
oeprop( wfn, 'DIPOLE', 'QUADRUPOLE', 'MULLIKEN_CHARGES')
f=open( 'psi4out.xyz', 'w' )
f.write( "11  " )
f.write( str(ee) + "\n" )
f.write( MOL.save_string_xyz() )
f.close()
--------------------------------------------------------------------------

    Molecular point group: c1
  Charge       = 0
  Multiplicity = 1
  Basis Set: CC-PVTZ
  Basis Set:
  @DF-RHF Final Energy:  -266.91305219980467
    Total Energy =                       -266.9130521998047243
    Molecular point group: c1
  Basis Set: CC-PVTZ
  Basis Set:
  Basis Set: CC-PVTZ
  Basis Set:
  @DF-RHF Final Energy:  -266.91428046996566
    Total Energy =                       -266.9142804699654334
  Basis Set: CC-PVTZ
  Basis Set:
  Basis Set: CC-PVTZ
  Basis Set:
  @DF-RHF Final Energy:  -266.91422707142669
    Total Energy =                       -266.9142270714268079
  Basis Set: CC-PVTZ
  Basis Set:
  Basis Set: CC-PVTZ
  Basis Set:
  @DF-RHF Final Energy:  -266.91438028923392
    Total Energy =                       -266.9143802892340887
  Basis Set: CC-PVTZ
  Basis Set:
  Basis Set: CC-PVTZ
  Basis Set:
  @DF-RHF Final Energy:  -266.91442486379788
    Total Energy =                       -266.9144248637979899
  Basis Set: CC-PVTZ
  Basis Set:
  Basis Set: CC-PVTZ
  Basis Set:
  @DF-RHF Final Energy:  -266.91442607491081
    Total Energy =                       -266.9144260749108071
  Basis Set: CC-PVTZ
  Basis Set:
  Charge       = 0
  Multiplicity = 1
  Basis Set: CC-PVTZ
  Basis Set:

    Orbital Energies (a.u.)
    -----------------------

    Doubly Occupied:

       1A    -20.589318     2A    -20.558789     3A    -11.373733
       4A    -11.302000     5A    -11.228780     6A     -1.471484
       7A     -1.384287     8A     -1.051204     9A     -0.887235
      10A     -0.836281    11A     -0.743767    12A     -0.693915
      13A     -0.654226    14A     -0.637632    15A     -0.566572
      16A     -0.544886    17A     -0.538518    18A     -0.508814
      19A     -0.468072    20A     -0.457250

  @DF-RHF Final Energy:  -266.91442777587628

   => Energetics <=

    Nuclear Repulsion Energy =            177.0798609298802262
    One-Electron Energy =                -714.9950551679742148
    Two-Electron Energy =                 271.0007664622176549
    DFT Exchange-Correlation Energy =       0.0000000000000000
    Empirical Dispersion Energy =           0.0000000000000000
    PCM Polarization Energy =               0.0000000000000000
    EFP Energy =                            0.0000000000000000
    Total Energy =                       -266.9144277758763906
    Molecular point group: c1
  Basis Set: CC-PVTZ
  Basis Set:

  -Total Gradient:
     Atom            X                  Y                   Z
    ------   -----------------  -----------------  -----------------
       1       -0.000031954784    -0.000044038339     0.000015946544
       2        0.000107741536    -0.001756831547     0.005691327932
       3       -0.000105149186     0.004447158107    -0.000224146422
       4       -0.000046640499     0.000302028417    -0.004230477824
       5        0.000076110760    -0.002928541181    -0.001247799069
       6        0.000006249827    -0.000010590000    -0.000005409857
       7        0.000003869038     0.000006905817    -0.000014275075
       8       -0.000005067587    -0.000017506303     0.000026933202
       9       -0.000009576691    -0.000003060707    -0.000004407095
      10        0.000008610579     0.000000949803    -0.000006044939
      11       -0.000004192998     0.000003525936    -0.000001647398

  **** Optimization is complete! (in 7 steps) ****
    Final optimized geometry and variables:
    Molecular point group: c1

    Geometry (in Angstrom), charge = 0, multiplicity = 1:

    H           -1.671048205242     0.930039443661     0.494679516811
    C           -1.210949435762    -0.057500566368     0.444440900089
    O            0.122326361932    -0.016847080872     0.430369024185
    O           -1.837541272407    -1.045568778424     0.404094410460
    C            0.718419141489     0.495335683645    -0.751132815248
    C            2.204092215192     0.626916514951    -0.516063494314
    H            0.279392882836     1.459618215810    -0.992351990770
    H            0.511653642928    -0.185761145352    -1.567845059681
    H            2.402352739253     1.312036845078     0.298002776894
    H            2.686468655437     1.002420003181    -1.410665017217
    H            2.633611040911    -0.334857974787    -0.268952779866

  Mulliken Charges: (a.u.)
   Center  Symbol    Alpha    Beta     Spin     Total
       1     H     0.47018  0.47018  0.00000  0.05963
       2     C     2.83944  2.83944  0.00000  0.32111
       3     O     4.15118  4.15118  0.00000 -0.30236
       4     O     4.16298  4.16298  0.00000 -0.32595
       5     C     2.97001  2.97001  0.00000  0.05998
       6     C     3.13337  3.13337  0.00000 -0.26673
       7     H     0.46624  0.46624  0.00000  0.06753
       8     H     0.45607  0.45607  0.00000  0.08786
       9     H     0.44948  0.44948  0.00000  0.10104
      10     H     0.45571  0.45571  0.00000  0.08858
      11     H     0.44534  0.44534  0.00000  0.10932

   Total alpha = 20.00000, Total beta = 20.00000, Total charge =  0.00000

*** Psi4 exiting successfully. Buy a developer a beer!
