  ==> Input File <==

--------------------------------------------------------------------------
set {
	reference rhf
	basis cc-pvtz
}

set_num_threads( 4 )
memory 2 gb

molecule MOL {
0 1

H	 -2.362939	 -1.309000	 -0.383250
C	 -1.359344	 -1.272457	 0.020748
C	 -0.684082	 0.000127	 -0.464918
H	 -0.825835	 -2.151141	 -0.318537
H	 -1.416276	 -1.292399	 1.099455
C	 -1.359089	 1.272668	 0.021259
N	 0.742439	 -0.000109	 0.007333
H	 -0.596914	 0.000345	 -1.538146
H	 -2.362696	 1.309620	 -0.382686
H	 -0.825392	 2.151374	 -0.317674
H	 -1.415983	 1.292181	 1.099973
O	 1.259249	 1.052134	 0.178612
O	 1.261283	 -1.052531	 0.179085

	symmetry c1
}
set optking {
	frozen_dihedral = ("
		12 7 3 8
	")
}

ee = optimize('scf')
oeprop('DIPOLE', 'QUADRUPOLE', 'MULLIKEN_CHARGES')
f=open( 'psi4out.xyz', 'w' )
f.write( "13  " )
f.write( str(ee) + "\n" )
f.write( MOL.save_string_xyz() )
f.close()
--------------------------------------------------------------------------

    Molecular point group: c1
  Charge       = 0
  Multiplicity = 1
  Basis Set: CC-PVTZ
  Basis Set:
  @DF-RHF Final Energy:  -321.86107945506438
    Total Energy =                       -321.8610794550646119
    Molecular point group: c1
  Basis Set: CC-PVTZ
  Basis Set:
  Basis Set: CC-PVTZ
  Basis Set:
  @DF-RHF Final Energy:  -321.85831151831002
    Total Energy =                       -321.8583115183099608
  Basis Set: CC-PVTZ
  Basis Set:
  Basis Set: CC-PVTZ
  Basis Set:
  @DF-RHF Final Energy:  -321.85965614342263
    Total Energy =                       -321.8596561434225123
  Basis Set: CC-PVTZ
  Basis Set:
  Basis Set: CC-PVTZ
  Basis Set:
  @DF-RHF Final Energy:  -321.86206152812292
    Total Energy =                       -321.8620615281230926
  Basis Set: CC-PVTZ
  Basis Set:
  Basis Set: CC-PVTZ
  Basis Set:
  @DF-RHF Final Energy:  -321.86209098693320
    Total Energy =                       -321.8620909869333673
  Basis Set: CC-PVTZ
  Basis Set:
  Basis Set: CC-PVTZ
  Basis Set:
  @DF-RHF Final Energy:  -321.86209565853540
    Total Energy =                       -321.8620956585351678
  Basis Set: CC-PVTZ
  Basis Set:
  Charge       = 0
  Multiplicity = 1
  Basis Set: CC-PVTZ
  Basis Set:

    Orbital Energies (a.u.)
    -----------------------

    Doubly Occupied:

       1A    -20.588608     2A    -20.588236     3A    -15.834036
       4A    -11.307134     5A    -11.238411     6A    -11.238160
       7A     -1.634511     8A     -1.418115     9A     -1.139569
      10A     -0.967394    11A     -0.958407    12A     -0.814949
      13A     -0.765384    14A     -0.730052    15A     -0.722716
      16A     -0.639303    17A     -0.596477    18A     -0.586087
      19A     -0.570398    20A     -0.521697    21A     -0.521460
      22A     -0.483126    23A     -0.472361    24A     -0.452374

  @DF-RHF Final Energy:  -321.86209615633567

   => Energetics <=

    Nuclear Repulsion Energy =            257.2064165953054840
    One-Electron Energy =                -948.5590960441359130
    Two-Electron Energy =                 369.4905832924948754
    DFT Exchange-Correlation Energy =       0.0000000000000000
    Empirical Dispersion Energy =           0.0000000000000000
    PCM Polarization Energy =               0.0000000000000000
    EFP Energy =                            0.0000000000000000
    Total Energy =                       -321.8620961563356104
    Molecular point group: c1
  Basis Set: CC-PVTZ
  Basis Set:

  -Total Gradient:
     Atom            X                  Y                   Z
    ------   -----------------  -----------------  -----------------
       1       -0.000009674667    -0.000003288489     0.000008408508
       2       -0.000023346696    -0.000022195223    -0.000039619187
       3        0.000020603508    -0.000158051332     0.000010478471
       4       -0.000013558384     0.000003205789     0.000004887646
       5        0.000008506892     0.000017866466    -0.000004312135
       6        0.000032971144    -0.000008944554    -0.000011276446
       7        0.000013039546     0.000027141951     0.000110000387
       8       -0.000006960866     0.000104495032    -0.000004252209
       9        0.000004401053    -0.000001746262     0.000002529205
      10        0.000005073814     0.000017274524     0.000004736434
      11       -0.000002165828     0.000003987008     0.000002873535
      12       -0.000021890709     0.000056316090    -0.000091000265
      13       -0.000006998802    -0.000036061004     0.000006546056

  **** Optimization is complete! (in 7 steps) ****
    Final optimized geometry and variables:
    Molecular point group: c1

    Geometry (in Angstrom), charge = 0, multiplicity = 1:

    H           -2.400128274721    -1.252615047275    -0.368333496784
    C           -1.387031450856    -1.268828199687     0.012618226498
    C           -0.686028229742     0.000407805985    -0.439884457091
    H           -0.891317514516    -2.152244290453    -0.354858064992
    H           -1.431198803149    -1.321581747446     1.093236031926
    C           -1.386573782440     1.270988942393     0.008553796115
    N            0.753980822020    -0.000475762876     0.024642662843
    H           -0.578941848703    -0.001011596744    -1.517469921596
    H           -2.399033275122     1.254030721509    -0.374188320891
    H           -0.890182050433     2.153392129139    -0.360697957239
    H           -1.432245250596     1.327452873240     1.088805723110
    O            1.278513817456     1.048395279684     0.192232131063
    O            1.288491444261    -1.050373506501     0.150326208822

  Mulliken Charges: (a.u.)
   Center  Symbol    Alpha    Beta     Spin     Total
       1     H     0.45065  0.45065  0.00000  0.09870
       2     C     3.14330  3.14330  0.00000 -0.28659
       3     C     3.00664  3.00664  0.00000 -0.01328
       4     H     0.43160  0.43160  0.00000  0.13679
       5     H     0.44608  0.44608  0.00000  0.10783
       6     C     3.14315  3.14315  0.00000 -0.28630
       7     N     3.27536  3.27536  0.00000  0.44929
       8     H     0.43057  0.43057  0.00000  0.13886
       9     H     0.45067  0.45067  0.00000  0.09865
      10     H     0.43193  0.43193  0.00000  0.13615
      11     H     0.44590  0.44590  0.00000  0.10820
      12     O     4.17188  4.17188  0.00000 -0.34375
      13     O     4.17228  4.17228  0.00000 -0.34455

   Total alpha = 24.00000, Total beta = 24.00000, Total charge = -0.00000
