  ==> Input File <==

--------------------------------------------------------------------------
set {
	reference rhf
	basis 6-31G*
}

set_num_threads( 4 )
memory 2 gb

molecule MOL {
0 1

H	 -0.000158	 1.970498	 0.756846
O	 -0.000074	 1.880206	 -0.189275
C	 -0.000015	 0.544847	 -0.545111
C	 0.979758	 0.313062	 -1.690670
C	 -1.423662	 0.087776	 -0.845635
H	 0.351595	 -0.022756	 0.303594
F	 2.191884	 0.658448	 -1.312511
F	 1.014785	 -0.946798	 -2.069992
F	 0.658616	 1.051522	 -2.740976
F	 -2.174738	 0.249394	 0.222682
F	 -1.477493	 -1.180494	 -1.193445
F	 -1.952000	 0.806603	 -1.823246

	symmetry c1
}
set optking {
	frozen_dihedral = ("
		6 3 2 1
	")
}

ee = optimize('scf')
oeprop('DIPOLE', 'QUADRUPOLE', 'MULLIKEN_CHARGES')
f=open( 'psi4out.xyz', 'w' )
f.write( "12  " )
f.write( str(ee) + "\n" )
f.write( MOL.save_string_xyz() )
f.close()
--------------------------------------------------------------------------

    Molecular point group: c1
  Charge       = 0
  Multiplicity = 1
  Basis Set: 6-31G*
  Basis Set:
  @DF-RHF Final Energy:  -786.27375473562847
    Total Energy =                       -786.2737547356277901
    Molecular point group: c1
  Basis Set: 6-31G*
  Basis Set:
  Basis Set: 6-31G*
  Basis Set:
  @DF-RHF Final Energy:  -786.27545647195041
    Total Energy =                       -786.2754564719512018
  Basis Set: 6-31G*
  Basis Set:
  Basis Set: 6-31G*
  Basis Set:
  @DF-RHF Final Energy:  -786.27578629317304
    Total Energy =                       -786.2757862931734962
  Basis Set: 6-31G*
  Basis Set:
  Basis Set: 6-31G*
  Basis Set:
  @DF-RHF Final Energy:  -786.27581798441793
    Total Energy =                       -786.2758179844180404
  Basis Set: 6-31G*
  Basis Set:
  Basis Set: 6-31G*
  Basis Set:
  @DF-RHF Final Energy:  -786.27582273962764
    Total Energy =                       -786.2758227396277562
  Basis Set: 6-31G*
  Basis Set:
  Charge       = 0
  Multiplicity = 1
  Basis Set: 6-31G*
  Basis Set:

    Orbital Energies (a.u.)
    -----------------------

    Doubly Occupied:

       1A    -26.355730     2A    -26.355606     3A    -26.354829
       4A    -26.353042     5A    -26.352433     6A    -26.351092
       7A    -20.616895     8A    -11.520520     9A    -11.519975
      10A    -11.349516    11A     -1.757905    12A     -1.752032
      13A     -1.653979    14A     -1.652362    15A     -1.649434
      16A     -1.648677    17A     -1.434629    18A     -1.101735
      19A     -0.991158    20A     -0.931363    21A     -0.859456
      22A     -0.854185    23A     -0.849329    24A     -0.837113
      25A     -0.826446    26A     -0.778319    27A     -0.765564
      28A     -0.724534    29A     -0.718274    30A     -0.715775
      31A     -0.710920    32A     -0.677679    33A     -0.673154
      34A     -0.665473    35A     -0.663977    36A     -0.655351
      37A     -0.649859    38A     -0.621109    39A     -0.616749
      40A     -0.557162    41A     -0.504600

  @DF-RHF Final Energy:  -786.27582344837435

   => Energetics <=

    Nuclear Repulsion Energy =            669.7459721221958944
    One-Electron Energy =               -2426.7877107190215611
    Two-Electron Energy =                 970.7659151484513131
    DFT Exchange-Correlation Energy =       0.0000000000000000
    Empirical Dispersion Energy =           0.0000000000000000
    PCM Polarization Energy =               0.0000000000000000
    EFP Energy =                            0.0000000000000000
    Total Energy =                       -786.2758234483744673
    Molecular point group: c1
  Basis Set: 6-31G*
  Basis Set:

  -Total Gradient:
     Atom            X                  Y                   Z
    ------   -----------------  -----------------  -----------------
       1        0.001007282675     0.000025823565     0.000008345702
       2       -0.001509672655    -0.000059450394     0.000118479470
       3        0.001352677121     0.000173768329    -0.000385055112
       4       -0.000047886955     0.000135992657    -0.000079501655
       5       -0.000018749351     0.000074779507    -0.000124608378
       6       -0.000855876659    -0.000061842117     0.000286965022
       7        0.000033786289    -0.000016152464     0.000024484819
       8       -0.000018526768    -0.000120449277    -0.000026000891
       9       -0.000001735163    -0.000053690534     0.000082625570
      10       -0.000010908865    -0.000013233478     0.000056091789
      11        0.000036725555    -0.000068209758    -0.000004913833
      12        0.000032884775    -0.000017336045     0.000043087494

  **** Optimization is complete! (in 6 steps) ****
    Final optimized geometry and variables:
    Molecular point group: c1

    Geometry (in Angstrom), charge = 0, multiplicity = 1:

    H            0.234260092964     1.640992041930     1.977659626002
    O            0.229146418476     1.527178365769     1.038197283992
    C            0.230045745615     0.184211047494     0.701523137836
    C            1.202034900404     0.007456001552    -0.457222778850
    C           -1.197141209115    -0.249697534101     0.387517133303
    H            0.577158222941    -0.452990350471     1.506048441678
    F            2.418387594890     0.321353280067    -0.056268376246
    F            1.223423646123    -1.247522374012    -0.866960622231
    F            0.897263204449     0.769386331072    -1.481712582570
    F           -1.953086353894    -0.007263944123     1.445666530373
    F           -1.262838818794    -1.543415039832     0.136807876054
    F           -1.707508855307     0.395350444761    -0.635479300757

  Mulliken Charges: (a.u.)
   Center  Symbol    Alpha    Beta     Spin     Total
       1     H     0.26419  0.26419  0.00000  0.47163
       2     O     4.36165  4.36165  0.00000 -0.72330
       3     C     3.05745  3.05745  0.00000 -0.11491
       4     C     2.43360  2.43360  0.00000  1.13280
       5     C     2.43701  2.43701  0.00000  1.12598
       6     H     0.38689  0.38689  0.00000  0.22623
       7     F     4.67917  4.67917  0.00000 -0.35833
       8     F     4.67821  4.67821  0.00000 -0.35643
       9     F     4.67052  4.67052  0.00000 -0.34104
      10     F     4.68391  4.68391  0.00000 -0.36782
      11     F     4.67691  4.67691  0.00000 -0.35381
      12     F     4.67049  4.67049  0.00000 -0.34099

   Total alpha = 41.00000, Total beta = 41.00000, Total charge = -0.00000
