  ==> Input File <==

--------------------------------------------------------------------------
set {
	reference rhf
	basis 6-31G*
}

set_num_threads( 1 )
memory 2 gb

molecule MOL {
0 1

H	 -1.836216	 1.387520	 -0.000064
C	 -1.301823	 0.443321	 -0.000031
O	 -0.003969	 0.658512	 0.000451
O	 -1.829879	 -0.616434	 -0.000857
C	 0.463789	 1.849229	 -0.632464
C	 1.971305	 1.870997	 -0.501158
H	 0.006175	 2.702633	 -0.151204
H	 0.150481	 1.840605	 -1.667384
H	 2.266798	 1.871242	 0.541779
H	 2.368780	 2.764500	 -0.971156
H	 2.411961	 1.005090	 -0.981694

	symmetry c1
}
set optking {
	frozen_dihedral = ("
		7 5 3 2
	")
}

ee = energy('scf')
oeprop('DIPOLE', 'QUADRUPOLE', 'MULLIKEN_CHARGES')
f=open( 'psi4out.xyz', 'w' )
f.write( "11  " )
f.write( str(ee) + "\n" )
f.write( MOL.save_string_xyz() )
f.close()
--------------------------------------------------------------------------

    Molecular point group: c1

    Geometry (in Angstrom), charge = 0, multiplicity = 1:

       Center              X                  Y                   Z               Mass
    ------------   -----------------  -----------------  -----------------  -----------------
           H         -1.696785210915     0.546076915110     0.227732586384     1.007825032070
           C         -1.162392210915    -0.398122084890     0.227765586384    12.000000000000
           O          0.135461789085    -0.182931084890     0.228247586384    15.994914619560
           O         -1.690448210915    -1.457877084890     0.226939586384    15.994914619560
           C          0.603219789085     1.007785915110    -0.404667413616    12.000000000000
           C          2.110735789085     1.029553915110    -0.273361413616    12.000000000000
           H          0.145605789085     1.861189915110     0.076592586384     1.007825032070
           H          0.289911789085     0.999161915110    -1.439587413616     1.007825032070
           H          2.406228789085     1.029798915110     0.769575586384     1.007825032070
           H          2.508210789085     1.923056915110    -0.743359413616     1.007825032070
           H          2.551391789085     0.163646915110    -0.753897413616     1.007825032070

  Charge       = 0
  Multiplicity = 1
  Basis Set: 6-31G*
  Basis Set:

    Orbital Energies (a.u.)
    -----------------------

    Doubly Occupied:

       1A    -20.609289     2A    -20.558582     3A    -11.379516
       4A    -11.309114     5A    -11.235526     6A     -1.472286
       7A     -1.379074     8A     -1.057636     9A     -0.890648
      10A     -0.848915    11A     -0.737800    12A     -0.694803
      13A     -0.666286    14A     -0.609442    15A     -0.570054
      16A     -0.561762    17A     -0.534509    18A     -0.519615
      19A     -0.459502    20A     -0.449814

  @DF-RHF Final Energy:  -266.81603222709725

   => Energetics <=

    Nuclear Repulsion Energy =            176.2464472059883462
    One-Electron Energy =                -713.0366823527149336
    Two-Electron Energy =                 269.9742029196291355
    DFT Exchange-Correlation Energy =       0.0000000000000000
    Empirical Dispersion Energy =           0.0000000000000000
    PCM Polarization Energy =               0.0000000000000000
    EFP Energy =                            0.0000000000000000
    Total Energy =                       -266.8160322270974234

  Mulliken Charges: (a.u.)
   Center  Symbol    Alpha    Beta     Spin     Total
       1     H     0.43675  0.43675  0.00000  0.12649
       2     C     2.71674  2.71674  0.00000  0.56653
       3     O     4.28668  4.28668  0.00000 -0.57336
       4     O     4.24848  4.24848  0.00000 -0.49697
       5     C     3.01083  3.01083  0.00000 -0.02167
       6     C     3.24745  3.24745  0.00000 -0.49490
       7     H     0.41584  0.41584  0.00000  0.16832
       8     H     0.41155  0.41155  0.00000  0.17690
       9     H     0.40641  0.40641  0.00000  0.18719
      10     H     0.41520  0.41520  0.00000  0.16960
      11     H     0.40407  0.40407  0.00000  0.19187

   Total alpha = 20.00000, Total beta = 20.00000, Total charge = -0.00000
