  ==> Input File <==

--------------------------------------------------------------------------
set {
	reference rhf
	basis 6-31G*
}

set_num_threads( 4 )
memory 2 gb

molecule MOL {
0 1

H	 2.400795	 5.807310	 -1.298952
C	 1.403618	 5.578457	 -1.661977
C	 0.994369	 4.153561	 -1.291352
H	 0.720193	 6.304265	 -1.231309
H	 1.402861	 5.721106	 -2.739219
C	 -0.405685	 3.795435	 -1.794747
H	 1.031241	 4.039223	 -0.212849
H	 1.716369	 3.452504	 -1.707196
C	 -0.835966	 2.368471	 -1.454310
H	 -1.129198	 4.489490	 -1.381877
H	 -0.435311	 3.912631	 -2.875686
C	 -1.133572	 2.138432	 0.020056
H	 -1.746946	 2.120108	 -1.996714
H	 -0.091115	 1.648394	 -1.785765
C	 -1.181045	 0.701995	 0.511084
O	 -1.341438	 3.047907	 0.765745
C	 -2.285934	 -0.139295	 -0.145128
H	 -1.325733	 0.738663	 1.584134
H	 -0.214603	 0.239109	 0.320269
C	 -3.651768	 0.085446	 0.506485
H	 -2.346596	 0.110469	 -1.202272
H	 -2.034737	 -1.195320	 -0.088721
C	 -4.759797	 -0.746382	 -0.137905
H	 -3.908762	 1.140117	 0.445781
H	 -3.588286	 -0.154158	 1.565709
H	 -4.868882	 -0.505166	 -1.191300
H	 -4.548009	 -1.809175	 -0.062213
H	 -5.715422	 -0.564821	 0.343442

	symmetry c1
}
set optking {
	frozen_dihedral = ("
		12 15 17 21
	")
}

ee = optimize('scf')
oeprop('DIPOLE', 'QUADRUPOLE', 'MULLIKEN_CHARGES')
f=open( 'psi4out.xyz', 'w' )
f.write( "28  " )
f.write( str(ee) + "\n" )
f.write( MOL.save_string_xyz() )
f.close()
--------------------------------------------------------------------------

    Molecular point group: c1
  Charge       = 0
  Multiplicity = 1
  Basis Set: 6-31G*
  Basis Set:
  @DF-RHF Final Energy:  -426.16680647944634
    Total Energy =                       -426.1668064794456541
    Molecular point group: c1
  Basis Set: 6-31G*
  Basis Set:
  Basis Set: 6-31G*
  Basis Set:
  @DF-RHF Final Energy:  -426.16570047065306
    Total Energy =                       -426.1657004706531779
  Basis Set: 6-31G*
  Basis Set:
  Basis Set: 6-31G*
  Basis Set:
  @DF-RHF Final Energy:  -426.16622836736610
    Total Energy =                       -426.1662283673664433
  Basis Set: 6-31G*
  Basis Set:
  Basis Set: 6-31G*
  Basis Set:
  @DF-RHF Final Energy:  -426.16711389208479
    Total Energy =                       -426.1671138920853537
  Basis Set: 6-31G*
  Basis Set:
  @DF-RHF Final Energy:  -426.16710428635281
    Total Energy =                       -426.1671042863529237
  @DF-RHF Final Energy:  -426.16715088470528
    Total Energy =                       -426.1671508847050518
  Basis Set: 6-31G*
  Basis Set:
  @DF-RHF Final Energy:  -426.16715405100342
    Total Energy =                       -426.1671540510030809
  Basis Set: 6-31G*
  Basis Set:
  Basis Set: 6-31G*
  Basis Set:
  @DF-RHF Final Energy:  -426.16715530256738
    Total Energy =                       -426.1671553025671528
  Basis Set: 6-31G*
  Basis Set:
  Basis Set: 6-31G*
  Basis Set:
  @DF-RHF Final Energy:  -426.16715680791390
    Total Energy =                       -426.1671568079138979
  Basis Set: 6-31G*
  Basis Set:
  Charge       = 0
  Multiplicity = 1
  Basis Set: 6-31G*
  Basis Set:

    Orbital Energies (a.u.)
    -----------------------

    Doubly Occupied:

       1A    -20.548113     2A    -11.322361     3A    -11.231863
       4A    -11.230185     5A    -11.228947     6A    -11.222116
       7A    -11.217246     8A    -11.214280     9A    -11.213663
      10A    -11.206574    11A     -1.393163    12A     -1.093910
      13A     -1.077369    14A     -1.020824    15A     -0.990574
      16A     -0.906401    17A     -0.873965    18A     -0.810480
      19A     -0.799290    20A     -0.722290    21A     -0.668390
      22A     -0.647517    23A     -0.630388    24A     -0.611516
      25A     -0.609434    26A     -0.587750    27A     -0.584489
      28A     -0.574134    29A     -0.540331    30A     -0.536184
      31A     -0.519517    32A     -0.512786    33A     -0.501977
      34A     -0.482698    35A     -0.477598    36A     -0.472932
      37A     -0.467374    38A     -0.461607    39A     -0.455201
      40A     -0.393172

  @DF-RHF Final Energy:  -426.16715718019714

   => Energetics <=

    Nuclear Repulsion Energy =            538.1477482240367181
    One-Electron Energy =               -1644.5125979441754680
    Two-Electron Energy =                 680.1976925399419542
    DFT Exchange-Correlation Energy =       0.0000000000000000
    Empirical Dispersion Energy =           0.0000000000000000
    PCM Polarization Energy =               0.0000000000000000
    EFP Energy =                            0.0000000000000000
    Total Energy =                       -426.1671571801969094
    Molecular point group: c1
  Basis Set: 6-31G*
  Basis Set:

  -Total Gradient:
     Atom            X                  Y                   Z
    ------   -----------------  -----------------  -----------------
       1       -0.000002420898     0.000003809497     0.000006766320
       2       -0.000002990663     0.000005380819     0.000016807354
       3        0.000014416579     0.000001660141    -0.000032912539
       4       -0.000004360178     0.000003804576    -0.000007591281
       5        0.000006006884    -0.000004836374     0.000001654677
       6        0.000004651843     0.000000101766     0.000005289519
       7        0.000000373380    -0.000008325133     0.000000666316
       8        0.000002297339     0.000000633509    -0.000005701893
       9        0.000008715474     0.000006300302    -0.000022125761
      10       -0.000004224553     0.000000734564    -0.000006481719
      11        0.000008157026    -0.000003340699     0.000001824248
      12        0.001553662949    -0.000661674794    -0.001834709159
      13        0.000011200208     0.000017344940     0.000012923667
      14       -0.000000668674    -0.000001135866    -0.000003558839
      15       -0.002774509222     0.001583307936     0.002733158365
      16        0.000008154627    -0.000009016228    -0.000007470078
      17        0.003760365541    -0.003465570101    -0.001666021652
      18       -0.000047473867     0.000063014102    -0.000014161178
      19       -0.000028831639    -0.000058512377     0.000071014026
      20        0.000024868409     0.000018862490     0.000001796664
      21       -0.002523545328     0.002533676713     0.000756024926
      22       -0.000014637619    -0.000024258283    -0.000007439192
      23        0.000000653541     0.000000408998    -0.000003923907
      24       -0.000007211720     0.000001799918     0.000007328109
      25        0.000007505473    -0.000003574933    -0.000003950396
      26       -0.000000035424     0.000000292118    -0.000000029345
      27        0.000000563854    -0.000000113211     0.000002612000
      28       -0.000000683342    -0.000000774395    -0.000001789259

  **** Optimization is complete! (in 10 steps) ****
    Final optimized geometry and variables:
    Molecular point group: c1

    Geometry (in Angstrom), charge = 0, multiplicity = 1:

    H            3.838483215405     3.575132091398    -0.787549665625
    C            2.835019425945     3.403059921365    -1.164263895101
    C            2.346408959375     1.998400868425    -0.813090114511
    H            2.185793326441     4.159929289916    -0.734203518114
    H            2.854721997364     3.555610867400    -2.239933216331
    C            0.933845283180     1.721229087755    -1.332374077047
    H            2.367249736220     1.871752966171     0.264899069696
    H            3.033969597592     1.263768750090    -1.229205802977
    C            0.425378114710     0.314888903070    -1.011469652582
    H            0.244277570222     2.447364192575    -0.917137978736
    H            0.919873667427     1.851404162176    -2.412048110532
    C            0.124641064399     0.087252910736     0.464546905579
    H           -0.503341423102     0.133980378004    -1.549811992979
    H            1.124127542542    -0.440244581789    -1.362440975481
    C            0.141491545581    -1.342768884917     0.976704390277
    O           -0.123943172464     1.000500456946     1.193428439136
    C           -0.931399583394    -2.252316723477     0.347580147266
    H            0.026890171136    -1.307412770979     2.053133730185
    H            1.127393366640    -1.750248872447     0.762471380785
    C           -2.306589024240    -2.078866012337     1.000359414790
    H           -1.027454856932    -2.040271453338    -0.713719674724
    H           -0.618155057893    -3.288179173277     0.434957817536
    C           -3.383291525697    -2.946470520299     0.350392992125
    H           -2.603221440984    -1.033791253315     0.952196626759
    H           -2.232634823272    -2.323605951884     2.057026528702
    H           -3.509536075353    -2.697170500204    -0.699552363241
    H           -3.127356477279    -4.000660755772     0.410513928433
    H           -4.342779388063    -2.811017889916     0.839102986916

  Mulliken Charges: (a.u.)
   Center  Symbol    Alpha    Beta     Spin     Total
       1     H     0.41920  0.41920  0.00000  0.16160
       2     C     3.24006  3.24006  0.00000 -0.48012
       3     C     3.15664  3.15664  0.00000 -0.31327
       4     H     0.41814  0.41814  0.00000  0.16372
       5     H     0.42332  0.42332  0.00000  0.15337
       6     C     3.14943  3.14943  0.00000 -0.29887
       7     H     0.41197  0.41197  0.00000  0.17606
       8     H     0.42726  0.42726  0.00000  0.14547
       9     C     3.21076  3.21076  0.00000 -0.42153
      10     H     0.40567  0.40567  0.00000  0.18865
      11     H     0.42170  0.42170  0.00000  0.15660
      12     C     2.73272  2.73272  0.00000  0.53456
      13     H     0.40340  0.40340  0.00000  0.19319
      14     H     0.41351  0.41351  0.00000  0.17297
      15     C     3.20381  3.20381  0.00000 -0.40762
      16     O     4.26687  4.26687  0.00000 -0.53373
      17     C     3.16502  3.16502  0.00000 -0.33004
      18     H     0.39934  0.39934  0.00000  0.20131
      19     H     0.41105  0.41105  0.00000  0.17791
      20     C     3.15331  3.15331  0.00000 -0.30662
      21     H     0.41817  0.41817  0.00000  0.16366
      22     H     0.41458  0.41458  0.00000  0.17084
      23     C     3.24043  3.24043  0.00000 -0.48085
      24     H     0.41520  0.41520  0.00000  0.16960
      25     H     0.41881  0.41881  0.00000  0.16238
      26     H     0.42201  0.42201  0.00000  0.15598
      27     H     0.42132  0.42132  0.00000  0.15736
      28     H     0.41629  0.41629  0.00000  0.16741

   Total alpha = 40.00000, Total beta = 40.00000, Total charge =  0.00000
