  ==> Input File <==

--------------------------------------------------------------------------
set {
	reference rhf
	basis 6-31G*
}

set_num_threads( 4 )
memory 2 gb

molecule MOL {
0 1

H	 -2.499100	 -0.730091	 -0.745082
O	 -2.347518	 -0.290803	 0.079804
C	 -1.184022	 0.487508	 -0.006784
C	 0.062599	 -0.378592	 0.031606
H	 -1.176523	 1.099369	 -0.904519
H	 -1.187323	 1.153111	 0.844927
O	 0.125638	 -0.986655	 1.283031
H	 0.949627	 0.233692	 -0.142381
H	 0.017121	 -1.119791	 -0.764095
C	 1.209110	 -1.844530	 1.454146
H	 2.155083	 -1.317268	 1.345706
H	 1.148070	 -2.252615	 2.453468
H	 1.185469	 -2.662161	 0.736711

	symmetry c1
}
set optking {
	frozen_dihedral = ("
		8 4 3 5
	")
}

ee = optimize('scf')
oeprop('DIPOLE', 'QUADRUPOLE', 'MULLIKEN_CHARGES')
f=open( 'psi4out.xyz', 'w' )
f.write( "13  " )
f.write( str(ee) + "\n" )
f.write( MOL.save_string_xyz() )
f.close()
--------------------------------------------------------------------------

    Molecular point group: c1
  Charge       = 0
  Multiplicity = 1
  Basis Set: 6-31G*
  Basis Set:
  @DF-RHF Final Energy:  -267.94754103970035
    Total Energy =                       -267.9475410397001269
    Molecular point group: c1
  Basis Set: 6-31G*
  Basis Set:
  Basis Set: 6-31G*
  Basis Set:
  @DF-RHF Final Energy:  -267.94796353558888
    Total Energy =                       -267.9479635355888263
  Basis Set: 6-31G*
  Basis Set:
  Basis Set: 6-31G*
  Basis Set:
  @DF-RHF Final Energy:  -267.94807708712233
    Total Energy =                       -267.9480770871223854
  Basis Set: 6-31G*
  Basis Set:
  Basis Set: 6-31G*
  Basis Set:
  @DF-RHF Final Energy:  -267.94809608480966
    Total Energy =                       -267.9480960848095492
  Basis Set: 6-31G*
  Basis Set:
  Charge       = 0
  Multiplicity = 1
  Basis Set: 6-31G*
  Basis Set:

    Orbital Energies (a.u.)
    -----------------------

    Doubly Occupied:

       1A    -20.559236     2A    -20.553450     3A    -11.275148
       4A    -11.270713     5A    -11.268454     6A     -1.388986
       7A     -1.358494     8A     -1.020310     9A     -0.917237
      10A     -0.840685    11A     -0.696256    12A     -0.679459
      13A     -0.663056    14A     -0.630503    15A     -0.604884
      16A     -0.565161    17A     -0.537181    18A     -0.501415
      19A     -0.471016    20A     -0.436113    21A     -0.420758

  @DF-RHF Final Energy:  -267.94809709651815

   => Energetics <=

    Nuclear Repulsion Energy =            193.1324387107445659
    One-Electron Energy =                -748.8440430530632739
    Two-Electron Energy =                 287.7635072458007244
    DFT Exchange-Correlation Energy =       0.0000000000000000
    Empirical Dispersion Energy =           0.0000000000000000
    PCM Polarization Energy =               0.0000000000000000
    EFP Energy =                            0.0000000000000000
    Total Energy =                       -267.9480970965179267
    Molecular point group: c1
  Basis Set: 6-31G*
  Basis Set:

  -Total Gradient:
     Atom            X                  Y                   Z
    ------   -----------------  -----------------  -----------------
       1       -0.000029012902    -0.000027551616    -0.000013871210
       2        0.000058997472     0.000024542342    -0.000081404323
       3       -0.000070059342    -0.000047292224     0.000127190173
       4        0.000019586861    -0.000079750215     0.000009712189
       5       -0.000000998762    -0.000008553973     0.000022421076
       6        0.000029481051     0.000050327455    -0.000007187202
       7        0.000011910469     0.000000273593     0.000014472967
       8        0.000021198067     0.000004142781    -0.000041600062
       9        0.000005006681     0.000024282240     0.000017752163
      10       -0.000031511651     0.000048108767    -0.000051217246
      11        0.000006029260     0.000001307618     0.000005550158
      12       -0.000020557349     0.000016177822     0.000002019309
      13       -0.000000069854    -0.000006014590    -0.000003837994

  **** Optimization is complete! (in 5 steps) ****
    Final optimized geometry and variables:
    Molecular point group: c1

    Geometry (in Angstrom), charge = 0, multiplicity = 1:

    H           -1.976380815503    -0.225007886293    -1.223014469784
    O           -1.926820372873     0.384149224444    -0.499491838409
    C           -0.729891954777     1.103492326427    -0.568216785461
    C            0.507815202385     0.230523874153    -0.504151771061
    H           -0.685681382269     1.703169781740    -1.477004797748
    H           -0.732671788009     1.778188942088     0.276587092837
    O            0.573010739173    -0.395896641576     0.734945013037
    H            1.390260415523     0.850731488844    -0.668979277896
    H            0.482674535976    -0.511393068572    -1.306019873974
    C            1.662594613567    -1.247491107924     0.890103082109
    H            2.605599265749    -0.713413417101     0.785209108410
    H            1.607442848814    -1.668973927948     1.884050275951
    H            1.642698853162    -2.057101333071     0.162562975478

  Mulliken Charges: (a.u.)
   Center  Symbol    Alpha    Beta     Spin     Total
       1     H     0.28355  0.28355  0.00000  0.43289
       2     O     4.36310  4.36310  0.00000 -0.72619
       3     C     2.99823  2.99823  0.00000  0.00354
       4     C     3.00106  3.00106  0.00000 -0.00212
       5     H     0.43137  0.43137  0.00000  0.13726
       6     H     0.40742  0.40742  0.00000  0.18516
       7     O     4.29663  4.29663  0.00000 -0.59325
       8     H     0.43096  0.43096  0.00000  0.13807
       9     H     0.43774  0.43774  0.00000  0.12452
      10     C     3.08003  3.08003  0.00000 -0.16006
      11     H     0.43032  0.43032  0.00000  0.13937
      12     H     0.40942  0.40942  0.00000  0.18115
      13     H     0.43017  0.43017  0.00000  0.13967

   Total alpha = 21.00000, Total beta = 21.00000, Total charge = -0.00000
