  ==> Input File <==

--------------------------------------------------------------------------
set {
	reference rhf
	basis 6-31G*
}

set_num_threads( 1 )
memory 2 gb

molecule MOL {
0 1

H	 1.136379	 0.211822	 1.465562
C	 1.135357	 0.094285	 0.374742
C	 0.065331	 0.871482	 -0.349150
O	 1.941633	 -0.601957	 -0.151457
C	 0.646311	 1.984926	 -1.232431
H	 -0.625500	 1.268312	 0.385827
H	 -0.479008	 0.164903	 -0.974132
C	 1.314008	 3.104392	 -0.432805
H	 -0.155270	 2.399398	 -1.835499
H	 1.360901	 1.555774	 -1.931595
H	 0.607767	 3.570177	 0.247485
H	 1.698287	 3.874480	 -1.093570
H	 2.144912	 2.734916	 0.160892

	symmetry c1
}
set optking {
	frozen_dihedral = ("
		6 3 5 9
	")
}

ee = energy('scf')
oeprop('DIPOLE', 'QUADRUPOLE', 'MULLIKEN_CHARGES')
f=open( 'psi4out.xyz', 'w' )
f.write( "13  " )
f.write( str(ee) + "\n" )
f.write( MOL.save_string_xyz() )
f.close()
--------------------------------------------------------------------------

    Molecular point group: c1

    Geometry (in Angstrom), charge = 0, multiplicity = 1:

       Center              X                  Y                   Z               Mass
    ------------   -----------------  -----------------  -----------------  -----------------
           H          0.099411257905    -0.883636657106     1.822239225854     1.007825032070
           C          0.098389257905    -1.001173657106     0.731419225854    12.000000000000
           C         -0.971636742095    -0.223976657106     0.007527225854    12.000000000000
           O          0.904665257905    -1.697415657106     0.205220225854    15.994914619560
           C         -0.390656742095     0.889467342894    -0.875753774146    12.000000000000
           H         -1.662467742095     0.172853342894     0.742504225854     1.007825032070
           H         -1.515975742095    -0.930555657106    -0.617454774146     1.007825032070
           C          0.277040257905     2.008933342894    -0.076127774146    12.000000000000
           H         -1.192237742095     1.303939342894    -1.478821774146     1.007825032070
           H          0.323933257905     0.460315342894    -1.574917774146     1.007825032070
           H         -0.429200742095     2.474718342894     0.604162225854     1.007825032070
           H          0.661319257905     2.779021342894    -0.736892774146     1.007825032070
           H          1.107944257905     1.639457342894     0.517569225854     1.007825032070

  Charge       = 0
  Multiplicity = 1
  Basis Set: 6-31G*
  Basis Set:

    Orbital Energies (a.u.)
    -----------------------

    Doubly Occupied:

       1A    -20.563491     2A    -11.327134     3A    -11.235600
       4A    -11.234560     5A    -11.221128     6A     -1.403620
       7A     -1.083161     8A     -0.973407     9A     -0.854556
      10A     -0.770931    11A     -0.684500    12A     -0.641523
      13A     -0.619528    14A     -0.595760    15A     -0.559445
      16A     -0.534132    17A     -0.504963    18A     -0.490181
      19A     -0.478760    20A     -0.409339

  @DF-RHF Final Energy:  -230.98260122535058

   => Energetics <=

    Nuclear Repulsion Energy =            174.7834279272988454
    One-Electron Energy =                -659.1603693703639237
    Two-Electron Energy =                 253.3943402177144435
    DFT Exchange-Correlation Energy =       0.0000000000000000
    Empirical Dispersion Energy =           0.0000000000000000
    PCM Polarization Energy =               0.0000000000000000
    EFP Energy =                            0.0000000000000000
    Total Energy =                       -230.9826012253506633

  Mulliken Charges: (a.u.)
   Center  Symbol    Alpha    Beta     Spin     Total
       1     H     0.42913  0.42913  0.00000  0.14175
       2     C     2.84233  2.84233  0.00000  0.31533
       3     C     3.20193  3.20193  0.00000 -0.40386
       4     O     4.23683  4.23683  0.00000 -0.47366
       5     C     3.15834  3.15834  0.00000 -0.31668
       6     H     0.41607  0.41607  0.00000  0.16786
       7     H     0.39922  0.39922  0.00000  0.20156
       8     C     3.24524  3.24524  0.00000 -0.49048
       9     H     0.41451  0.41451  0.00000  0.17098
      10     H     0.40506  0.40506  0.00000  0.18988
      11     H     0.42066  0.42066  0.00000  0.15869
      12     H     0.41353  0.41353  0.00000  0.17295
      13     H     0.41716  0.41716  0.00000  0.16568

   Total alpha = 20.00000, Total beta = 20.00000, Total charge = -0.00000
