                              Psi4 1.0.54 Driver

  ==> Input File <==

--------------------------------------------------------------------------
set {
	reference rhf
	basis cc-pvtz
}

set_num_threads( 4 )
memory 2 gb

molecule MOL {
0 1

H	 -0.939693	 0.000281	 1.681345
O	 -0.046262	 -0.000157	 1.387678
C	 -0.000837	 0.000006	 -0.025491
C	 -1.230642	 -0.718928	 -0.576728
C	 0.058877	 1.438741	 -0.535022
C	 1.271451	 -0.753366	 -0.388676
H	 -1.205714	 -0.766516	 -1.659275
H	 -2.140516	 -0.200871	 -0.288950
H	 -1.280547	 -1.728432	 -0.188305
H	 0.131071	 1.470129	 -1.616036
H	 -0.833273	 1.986494	 -0.246739
H	 0.917433	 1.949385	 -0.117182
H	 1.395489	 -0.806671	 -1.463879
H	 1.235445	 -1.761186	 0.005297
H	 2.135048	 -0.256000	 0.034457

	symmetry c1
}
set optking {
	frozen_dihedral = ("
		4 3 2 1
	")
}

ee,wfn = optimize('scf', return_wfn=True)
oeprop( wfn, 'DIPOLE', 'QUADRUPOLE', 'MULLIKEN_CHARGES')
f=open( 'psi4out.xyz', 'w' )
f.write( "15  " )
f.write( str(ee) + "\n" )
f.write( MOL.save_string_xyz() )
f.close()
--------------------------------------------------------------------------

    Molecular point group: c1
  Charge       = 0
  Multiplicity = 1
  Basis Set: CC-PVTZ
  Basis Set:
  @DF-RHF Final Energy:  -232.24562545174865
    Total Energy =                       -232.2456254517487650
    Molecular point group: c1
  Basis Set: CC-PVTZ
  Basis Set:
  Basis Set: CC-PVTZ
  Basis Set:
  @DF-RHF Final Energy:  -232.24570586919450
    Total Energy =                       -232.2457058691946941
  Basis Set: CC-PVTZ
  Basis Set:
  Basis Set: CC-PVTZ
  Basis Set:
  @DF-RHF Final Energy:  -232.24574734337403
    Total Energy =                       -232.2457473433738642
  Basis Set: CC-PVTZ
  Basis Set:
  Charge       = 0
  Multiplicity = 1
  Basis Set: CC-PVTZ
  Basis Set:

    Orbital Energies (a.u.)
    -----------------------

    Doubly Occupied:

       1A    -20.541202     2A    -11.280977     3A    -11.214341
       4A    -11.204923     5A    -11.203618     6A     -1.363895
       7A     -1.065493     8A     -0.945086     9A     -0.937738
      10A     -0.778566    11A     -0.672306    12A     -0.624595
      13A     -0.622682    14A     -0.576269    15A     -0.557312
      16A     -0.533961    17A     -0.517068    18A     -0.511430
      19A     -0.503761    20A     -0.458921    21A     -0.427318

  @DF-RHF Final Energy:  -232.24574805492233

   => Energetics <=

    Nuclear Repulsion Energy =            200.6274280340105065
    One-Electron Energy =                -712.6634212381931093
    Two-Electron Energy =                 279.7902451492603291
    DFT Exchange-Correlation Energy =       0.0000000000000000
    Empirical Dispersion Energy =           0.0000000000000000
    PCM Polarization Energy =               0.0000000000000000
    EFP Energy =                            0.0000000000000000
    Total Energy =                       -232.2457480549223305
    Molecular point group: c1
  Basis Set: CC-PVTZ
  Basis Set:

  -Total Gradient:
     Atom            X                  Y                   Z
    ------   -----------------  -----------------  -----------------
       1        0.000051512983    -0.001852683071    -0.000030936065
       2       -0.000146965411     0.002628523677    -0.000051170913
       3        0.000656153769    -0.001757245816     0.000042742271
       4       -0.000562623217     0.001011025822    -0.000017790079
       5        0.000005707876    -0.000035479085    -0.000010404015
       6       -0.000020396656    -0.000042556333     0.000049288156
       7        0.000012768128     0.000007177650     0.000010292474
       8       -0.000039578013     0.000022731849     0.000028375706
       9        0.000030299719    -0.000073490270    -0.000011160460
      10        0.000062444143     0.000028610559    -0.000109490648
      11       -0.000011897206    -0.000046758415     0.000020884259
      12        0.000014595536     0.000081649019     0.000033606971
      13       -0.000030390928     0.000048651833     0.000081352027
      14        0.000010504261     0.000013288673    -0.000029402803
      15       -0.000032134985    -0.000033446093    -0.000006186881

  **** Optimization is complete! (in 4 steps) ****
    Final optimized geometry and variables:
    Molecular point group: c1

    Geometry (in Angstrom), charge = 0, multiplicity = 1:

    H           -0.932732610359     0.035218012812     1.689829186856
    O           -0.042867003980     0.022670462445     1.389803489737
    C            0.002235489638     0.000155261056    -0.025234378095
    C           -1.229923761299    -0.715305589008    -0.572656249967
    C            0.056619137589     1.438682943225    -0.537483852023
    C            1.275753490129    -0.749632755130    -0.392972786137
    H           -1.204519603287    -0.762653115829    -1.654483920506
    H           -2.137607367449    -0.191343656869    -0.287374549867
    H           -1.284592671405    -1.727492195645    -0.188909688018
    H            0.137052004761     1.470775111550    -1.618527644329
    H           -0.837997356463     1.979583831928    -0.248662246418
    H            0.909920421049     1.952650968353    -0.113118380348
    H            1.417725891728    -0.770769344458    -1.467173218246
    H            1.232715752915    -1.768233334767    -0.028306335470
    H            2.133907306049    -0.266763073735     0.057305926762

  Mulliken Charges: (a.u.)
   Center  Symbol    Alpha    Beta     Spin     Total
       1     H     0.39382  0.39382  0.00000  0.21236
       2     O     4.21330  4.21330  0.00000 -0.42659
       3     C     2.87902  2.87902  0.00000  0.24196
       4     C     3.15740  3.15740  0.00000 -0.31481
       5     C     3.14422  3.14422  0.00000 -0.28845
       6     C     3.14107  3.14107  0.00000 -0.28214
       7     H     0.45222  0.45222  0.00000  0.09557
       8     H     0.45473  0.45473  0.00000  0.09055
       9     H     0.44568  0.44568  0.00000  0.10865
      10     H     0.45813  0.45813  0.00000  0.08374
      11     H     0.45502  0.45502  0.00000  0.08996
      12     H     0.44806  0.44806  0.00000  0.10389
      13     H     0.45915  0.45915  0.00000  0.08169
      14     H     0.45106  0.45106  0.00000  0.09788
      15     H     0.44713  0.44713  0.00000  0.10574

   Total alpha = 21.00000, Total beta = 21.00000, Total charge = -0.00000

*** Psi4 exiting successfully. Buy a developer a beer!
