  ==> Input File <==

--------------------------------------------------------------------------
set {
	reference rhf
	basis 6-31G*
}

set_num_threads( 4 )
memory 2 gb

molecule MOL {
0 1

O	 3.225979	 0.970355	 -0.599647
C	 2.701189	 0.057885	 -0.047330
C	 1.245376	 -0.013843	 0.345420
O	 3.347903	 -1.046386	 0.304773
C	 0.455112	 1.231400	 -0.050772
H	 0.838542	 -0.913825	 -0.103701
H	 1.208210	 -0.175333	 1.419774
C	 -0.998893	 1.219485	 0.433193
H	 0.482531	 1.345121	 -1.130325
H	 0.957290	 2.103070	 0.354729
C	 -1.498469	 2.547830	 1.008548
H	 -1.092919	 0.452309	 1.198258
H	 -1.650346	 0.911974	 -0.383543
C	 -2.915768	 2.454323	 1.577334
H	 -0.817629	 2.876826	 1.792153
H	 -1.477948	 3.319407	 0.242245
C	 -3.427422	 3.777202	 2.150339
H	 -2.941816	 1.692853	 2.354971
H	 -3.595274	 2.115062	 0.797030
C	 -4.841949	 3.674327	 2.719750
H	 -2.749016	 4.118163	 2.929539
H	 -3.406239	 4.538525	 1.373346
H	 -5.176366	 4.627288	 3.118043
H	 -4.888830	 2.945187	 3.523711
H	 -5.550921	 3.368191	 1.955608
C	 4.728119	 -1.109107	 -0.004993
H	 4.882018	 -1.033965	 -1.071845
H	 5.068212	 -2.067527	 0.355250
H	 5.265056	 -0.311663	 0.488280

	symmetry c1
}
set optking {
	frozen_dihedral = ("
		11 8 5 9
	")
}

ee = optimize('scf')
oeprop('DIPOLE', 'QUADRUPOLE', 'MULLIKEN_CHARGES')
f=open( 'psi4out.xyz', 'w' )
f.write( "29  " )
f.write( str(ee) + "\n" )
f.write( MOL.save_string_xyz() )
f.close()
--------------------------------------------------------------------------

    Molecular point group: c1
  Charge       = 0
  Multiplicity = 1
  Basis Set: 6-31G*
  Basis Set:
  @DF-RHF Final Energy:  -501.04064561474706
    Total Energy =                       -501.0406456147474046
    Molecular point group: c1
  Basis Set: 6-31G*
  Basis Set:
  Basis Set: 6-31G*
  Basis Set:
  @DF-RHF Final Energy:  -501.04138436686833
    Total Energy =                       -501.0413843668678737
  Basis Set: 6-31G*
  Basis Set:
  Basis Set: 6-31G*
  Basis Set:
  @DF-RHF Final Energy:  -501.04138806177605
    Total Energy =                       -501.0413880617769564
  Basis Set: 6-31G*
  Basis Set:
  Basis Set: 6-31G*
  Basis Set:
  @DF-RHF Final Energy:  -501.04145591898430
    Total Energy =                       -501.0414559189839565
  Basis Set: 6-31G*
  Basis Set:
  Basis Set: 6-31G*
  Basis Set:
  @DF-RHF Final Energy:  -501.04147313654460
    Total Energy =                       -501.0414731365451644
  Basis Set: 6-31G*
  Basis Set:
  Charge       = 0
  Multiplicity = 1
  Basis Set: 6-31G*
  Basis Set:

    Orbital Energies (a.u.)
    -----------------------

    Doubly Occupied:

       1A    -20.603370     2A    -20.545248     3A    -11.371776
       4A    -11.280669     5A    -11.235315     6A    -11.218817
       7A    -11.217258     8A    -11.214752     9A    -11.214620
      10A    -11.213158    11A    -11.208235    12A     -1.469036
      13A     -1.362483    14A     -1.096116    15A     -1.066823
      16A     -1.019770    17A     -0.977251    18A     -0.926325
      19A     -0.856053    20A     -0.801647    21A     -0.790266
      22A     -0.766762    23A     -0.698299    24A     -0.682683
      25A     -0.671750    26A     -0.653275    27A     -0.629614
      28A     -0.598339    29A     -0.594736    30A     -0.583115
      31A     -0.565537    32A     -0.548373    33A     -0.529727
      34A     -0.528013    35A     -0.514594    36A     -0.510599
      37A     -0.494895    38A     -0.479178    39A     -0.468094
      40A     -0.462305    41A     -0.460147    42A     -0.455647
      43A     -0.444642    44A     -0.430625

  @DF-RHF Final Energy:  -501.04147373342425

   => Energetics <=

    Nuclear Repulsion Energy =            602.6338106464943394
    One-Electron Energy =               -1876.4306943777855849
    Two-Electron Energy =                 772.7554099978674458
    DFT Exchange-Correlation Energy =       0.0000000000000000
    Empirical Dispersion Energy =           0.0000000000000000
    PCM Polarization Energy =               0.0000000000000000
    EFP Energy =                            0.0000000000000000
    Total Energy =                       -501.0414737334237998
    Molecular point group: c1
  Basis Set: 6-31G*
  Basis Set:

  -Total Gradient:
     Atom            X                  Y                   Z
    ------   -----------------  -----------------  -----------------
       1        0.000009845395    -0.000008468683     0.000013470956
       2       -0.000017188312    -0.000002288904    -0.000000986717
       3       -0.000000719484    -0.000032384086    -0.000057229417
       4        0.000000806839    -0.000009028050    -0.000034746293
       5        0.000216945539     0.004293510033     0.001359359427
       6        0.000009758297    -0.000002545053     0.000036156766
       7        0.000011700278     0.000033416052     0.000011648895
       8       -0.001174335642     0.000053571401    -0.003479669450
       9        0.000110762936    -0.003685762189    -0.000319134317
      10       -0.000032680758     0.000000198966     0.000024009783
      11        0.000842143789    -0.000663168950     0.002471567920
      12        0.000017951940     0.000007528692    -0.000004724722
      13        0.000003931959     0.000000982524    -0.000006568536
      14        0.000005110069     0.000013470396    -0.000002169818
      15        0.000005922643     0.000007467020    -0.000001719482
      16       -0.000016593127    -0.000013377059    -0.000003412877
      17        0.000002845504    -0.000004109162     0.000006646799
      18        0.000003765729    -0.000012898190    -0.000016861222
      19       -0.000006759396     0.000017507396    -0.000004837299
      20        0.000000398816    -0.000000080763     0.000000256272
      21        0.000001084917    -0.000002152954    -0.000002726501
      22       -0.000002620597     0.000004883249    -0.000000654939
      23       -0.000000482150     0.000000480668    -0.000001309053
      24        0.000000961931     0.000000788502     0.000000621546
      25        0.000000164593    -0.000001165275     0.000000758659
      26        0.000003257262     0.000004840738     0.000016146081
      27       -0.000007920497     0.000000313899     0.000000882610
      28        0.000003253205    -0.000000358273    -0.000001612076
      29        0.000008688310    -0.000001171944    -0.000003162989

  **** Optimization is complete! (in 6 steps) ****
    Final optimized geometry and variables:
    Molecular point group: c1

    Geometry (in Angstrom), charge = 0, multiplicity = 1:

    O            2.980608248204    -0.295460708754    -1.413534238158
    C            2.491542712540    -1.174987210394    -0.780605155733
    C            1.074694378772    -1.200452225812    -0.261196617337
    O            3.148986068763    -2.276177833321    -0.439270169676
    C            0.266446644200     0.040163599262    -0.637197362961
    H            0.605105857818    -2.104739743979    -0.638873229660
    H            1.126650938185    -1.323175947659     0.817235731353
    C           -1.189989176616    -0.038715050851    -0.138723448593
    H            0.287061271709     0.135836676148    -1.716979494257
    H            0.760680941502     0.918217820034    -0.236581082259
    C           -1.715393851694     1.290534903420     0.408560083960
    H           -1.268384649958    -0.783486008823     0.651334635176
    H           -1.835532593658    -0.387745170167    -0.940547053455
    C           -3.172452034784     1.222527800264     0.867386804173
    H           -1.087435548362     1.601323146902     1.241556738116
    H           -1.612908475019     2.061885149445    -0.353090291939
    C           -3.691339060981     2.545298351608     1.434314188728
    H           -3.277194519928     0.443765039457     1.621446051631
    H           -3.799965560793     0.920866376708     0.030252996285
    C           -5.148348241792     2.469955913181     1.889417700625
    H           -3.066957326240     2.847180125391     2.272560362136
    H           -3.588389187813     3.324230316390     0.681861793520
    H           -5.486815030661     3.422252980202     2.285912878949
    H           -5.278010364979     1.722950294205     2.667558639613
    H           -5.803436814099     2.203609317553     1.064680601477
    C            4.496098346501    -2.377882343948    -0.863361785646
    H            4.558234321258    -2.349102275169    -1.941709816478
    H            4.851084876808    -3.327230332248    -0.493619966151
    H            5.086103718202    -1.571507832731    -0.452023914903

  Mulliken Charges: (a.u.)
   Center  Symbol    Alpha    Beta     Spin     Total
       1     O     4.28612  4.28612  0.00000 -0.57223
       2     C     2.60556  2.60556  0.00000  0.78889
       3     C     3.21028  3.21028  0.00000 -0.42056
       4     O     4.30730  4.30730  0.00000 -0.61459
       5     C     3.15428  3.15428  0.00000 -0.30856
       6     H     0.40046  0.40046  0.00000  0.19908
       7     H     0.40087  0.40087  0.00000  0.19826
       8     C     3.15677  3.15677  0.00000 -0.31353
       9     H     0.40959  0.40959  0.00000  0.18082
      10     H     0.40960  0.40960  0.00000  0.18079
      11     C     3.15362  3.15362  0.00000 -0.30724
      12     H     0.42325  0.42325  0.00000  0.15350
      13     H     0.41940  0.41940  0.00000  0.16121
      14     C     3.15147  3.15147  0.00000 -0.30294
      15     H     0.42318  0.42318  0.00000  0.15364
      16     H     0.42128  0.42128  0.00000  0.15743
      17     C     3.15142  3.15142  0.00000 -0.30283
      18     H     0.42452  0.42452  0.00000  0.15095
      19     H     0.42385  0.42385  0.00000  0.15230
      20     C     3.23927  3.23927  0.00000 -0.47854
      21     H     0.42309  0.42309  0.00000  0.15382
      22     H     0.42255  0.42255  0.00000  0.15491
      23     H     0.41926  0.41926  0.00000  0.16148
      24     H     0.42205  0.42205  0.00000  0.15590
      25     H     0.42182  0.42182  0.00000  0.15635
      26     C     3.09242  3.09242  0.00000 -0.18484
      27     H     0.40911  0.40911  0.00000  0.18179
      28     H     0.40849  0.40849  0.00000  0.18301
      29     H     0.40913  0.40913  0.00000  0.18173

   Total alpha = 44.00000, Total beta = 44.00000, Total charge =  0.00000
