  ==> Input File <==

--------------------------------------------------------------------------
set {
	reference rhf
	basis 6-31G*
}

set_num_threads( 4 )
memory 2 gb

molecule MOL {
0 1

H	 -3.875960	 -2.618785	 0.867739
C	 -3.255206	 -1.751550	 0.752722
C	 -2.014762	 -1.884462	 0.343291
H	 -3.672085	 -0.788184	 0.978665
O	 -1.180634	 -0.819263	 0.215062
H	 -1.580589	 -2.839400	 0.105002
C	 0.051604	 -1.018856	 -0.387932
C	 1.043764	 0.054862	 -0.001873
H	 -0.017620	 -1.041351	 -1.469781
H	 0.437898	 -1.966374	 -0.042284
F	 2.212596	 -0.199467	 -0.571921
F	 0.652529	 1.252447	 -0.405055
F	 1.230877	 0.110694	 1.300533

	symmetry c1
}
set optking {
	frozen_dihedral = ("
		3 5 7 9
	")
}

ee = optimize('scf')
oeprop('DIPOLE', 'QUADRUPOLE', 'MULLIKEN_CHARGES')
f=open( 'psi4out.xyz', 'w' )
f.write( "13  " )
f.write( str(ee) + "\n" )
f.write( MOL.save_string_xyz() )
f.close()
--------------------------------------------------------------------------

    Molecular point group: c1
  Charge       = 0
  Multiplicity = 1
  Basis Set: 6-31G*
  Basis Set:
  @DF-RHF Final Energy:  -527.53305445438684
    Total Energy =                       -527.5330544543868427
    Molecular point group: c1
  Basis Set: 6-31G*
  Basis Set:
  Basis Set: 6-31G*
  Basis Set:
  @DF-RHF Final Energy:  -527.53439125860427
    Total Energy =                       -527.5343912586038186
  Basis Set: 6-31G*
  Basis Set:
  Basis Set: 6-31G*
  Basis Set:
  @DF-RHF Final Energy:  -527.53468049733351
    Total Energy =                       -527.5346804973336248
  Basis Set: 6-31G*
  Basis Set:
  Basis Set: 6-31G*
  Basis Set:
  @DF-RHF Final Energy:  -527.53474531816346
    Total Energy =                       -527.5347453181634592
  Basis Set: 6-31G*
  Basis Set:
  @DF-RHF Final Energy:  -527.53484944910497
    Total Energy =                       -527.5348494491049678
  Basis Set: 6-31G*
  Basis Set:
  @DF-RHF Final Energy:  -527.53487750922977
    Total Energy =                       -527.5348775092302276
  Basis Set: 6-31G*
  Basis Set:
  Basis Set: 6-31G*
  Basis Set:
  @DF-RHF Final Energy:  -527.53488355363766
    Total Energy =                       -527.5348835536374281
  Basis Set: 6-31G*
  Basis Set:
  Basis Set: 6-31G*
  Basis Set:
  @DF-RHF Final Energy:  -527.53488804502012
    Total Energy =                       -527.5348880450202387
  Basis Set: 6-31G*
  Basis Set:
  Charge       = 0
  Multiplicity = 1
  Basis Set: 6-31G*
  Basis Set:

    Orbital Energies (a.u.)
    -----------------------

    Doubly Occupied:

       1A    -26.341924     2A    -26.338236     3A    -26.337986
       4A    -20.606595     5A    -11.502893     6A    -11.317722
       7A    -11.301649     8A    -11.222041     9A     -1.739026
      10A     -1.636727    11A     -1.635124    12A     -1.438265
      13A     -1.086906    14A     -1.015705    15A     -0.922139
      16A     -0.837092    17A     -0.828809    18A     -0.805992
      19A     -0.796483    20A     -0.723863    21A     -0.711544
      22A     -0.698033    23A     -0.678092    24A     -0.656129
      25A     -0.651582    26A     -0.639510    27A     -0.635444
      28A     -0.587798    29A     -0.560882    30A     -0.527005
      31A     -0.503465    32A     -0.359149

  @DF-RHF Final Energy:  -527.53488813788022

   => Energetics <=

    Nuclear Repulsion Energy =            406.9598217774997693
    One-Electron Energy =               -1537.7017974216164475
    Two-Electron Energy =                 603.2070875062363484
    DFT Exchange-Correlation Energy =       0.0000000000000000
    Empirical Dispersion Energy =           0.0000000000000000
    PCM Polarization Energy =               0.0000000000000000
    EFP Energy =                            0.0000000000000000
    Total Energy =                       -527.5348881378804435
    Molecular point group: c1
  Basis Set: 6-31G*
  Basis Set:

  -Total Gradient:
     Atom            X                  Y                   Z
    ------   -----------------  -----------------  -----------------
       1        0.000002983021     0.000000648652    -0.000000487414
       2        0.000003518785     0.000005351910    -0.000010293007
       3        0.000252239443    -0.000151087298     0.000419036414
       4       -0.000003601477    -0.000000263581     0.000002032365
       5       -0.000325865062     0.000381231500    -0.000557206638
       6       -0.000003097577    -0.000000583430    -0.000003879452
       7       -0.000044627138    -0.000809926373     0.000120699942
       8       -0.000019142037     0.000007712911    -0.000020859092
       9        0.000124600880     0.000578370078     0.000020882194
      10        0.000004871030     0.000008791707     0.000002945755
      11        0.000002203371    -0.000012103648    -0.000000618057
      12        0.000002419360    -0.000013221694     0.000011618197
      13        0.000003497395     0.000005079269     0.000016128797

  **** Optimization is complete! (in 9 steps) ****
    Final optimized geometry and variables:
    Molecular point group: c1

    Geometry (in Angstrom), charge = 0, multiplicity = 1:

    H           -3.896232992286    -2.130758942311     0.609735541336
    C           -3.264213127937    -1.274503868948     0.473335271711
    C           -1.969254950199    -1.431154017304     0.321447416358
    H           -3.712756925262    -0.298894566280     0.484075206733
    O           -1.119262715100    -0.378904104575     0.214016938359
    H           -1.497938595363    -2.399968793446     0.308469485418
    C            0.025237823858    -0.577659373025    -0.546100641606
    C            1.024188396269     0.488983143958    -0.171885024609
    H           -0.179908377995    -0.490839344728    -1.607052928722
    H            0.481181319252    -1.541859347309    -0.349353614730
    F            2.122030876931     0.329773031333    -0.897976482322
    F            0.562227298890     1.701613607894    -0.400111812399
    F            1.367954689766     0.416638413882     1.098793411478

  Mulliken Charges: (a.u.)
   Center  Symbol    Alpha    Beta     Spin     Total
       1     H     0.40669  0.40669  0.00000  0.18663
       2     C     3.22991  3.22991  0.00000 -0.45982
       3     C     2.89976  2.89976  0.00000  0.20048
       4     H     0.40019  0.40019  0.00000  0.19961
       5     O     4.30460  4.30460  0.00000 -0.60919
       6     H     0.40889  0.40889  0.00000  0.18222
       7     C     3.04955  3.04955  0.00000 -0.09910
       8     C     2.45134  2.45134  0.00000  1.09733
       9     H     0.40338  0.40338  0.00000  0.19325
      10     H     0.40781  0.40781  0.00000  0.18439
      11     F     4.68523  4.68523  0.00000 -0.37046
      12     F     4.67608  4.67608  0.00000 -0.35217
      13     F     4.67658  4.67658  0.00000 -0.35316

   Total alpha = 32.00000, Total beta = 32.00000, Total charge =  0.00000
