  ==> Input File <==

--------------------------------------------------------------------------
set {
	reference rhf
	basis 6-31G*
}

set_num_threads( 4 )
memory 2 gb

molecule MOL {
0 1

O	 -0.209421	 0.422597	 0.931100
C	 0.486307	 0.169203	 0.000779
C	 1.608116	 -0.841643	 0.000302
O	 0.366075	 0.755600	 -1.182137
C	 2.990107	 -0.200498	 -0.000684
H	 1.468623	 -1.481519	 -0.865924
H	 1.469683	 -1.481289	 0.866878
H	 3.129736	 0.423364	 -0.875135
H	 3.757882	 -0.966877	 -0.001197
H	 3.130964	 0.423383	 0.873533
C	 -0.655171	 1.736839	 -1.329195
C	 -0.587442	 2.252773	 -2.751002
H	 -0.491277	 2.526862	 -0.609065
H	 -1.613182	 1.283782	 -1.113452
H	 0.379895	 2.698490	 -2.952881
H	 -1.352304	 3.006568	 -2.907293
H	 -0.748200	 1.448682	 -3.460123

	symmetry c1
}
set optking {
	frozen_dihedral = ("
		4 2 3 6
	")
}

ee = optimize('scf')
oeprop('DIPOLE', 'QUADRUPOLE', 'MULLIKEN_CHARGES')
f=open( 'psi4out.xyz', 'w' )
f.write( "17  " )
f.write( str(ee) + "\n" )
f.write( MOL.save_string_xyz() )
f.close()
--------------------------------------------------------------------------

    Molecular point group: c1
  Charge       = 0
  Multiplicity = 1
  Basis Set: 6-31G*
  Basis Set:
  @DF-RHF Final Energy:  -344.90999660501546
    Total Energy =                       -344.9099966050153512
    Molecular point group: c1
  Basis Set: 6-31G*
  Basis Set:
  Basis Set: 6-31G*
  Basis Set:
  @DF-RHF Final Energy:  -344.91032409285458
    Total Energy =                       -344.9103240928543528
  Basis Set: 6-31G*
  Basis Set:
  Basis Set: 6-31G*
  Basis Set:
  @DF-RHF Final Energy:  -344.90946659839000
    Total Energy =                       -344.9094665983899404
  Basis Set: 6-31G*
  Basis Set:
  Basis Set: 6-31G*
  Basis Set:
  @DF-RHF Final Energy:  -344.91043979204227
    Total Energy =                       -344.9104397920416432
  Basis Set: 6-31G*
  Basis Set:
  Basis Set: 6-31G*
  Basis Set:
  @DF-RHF Final Energy:  -344.91044391869144
    Total Energy =                       -344.9104439186917261
  Basis Set: 6-31G*
  Basis Set:
  Charge       = 0
  Multiplicity = 1
  Basis Set: 6-31G*
  Basis Set:

    Orbital Energies (a.u.)
    -----------------------

    Doubly Occupied:

       1A    -20.601445     2A    -20.542685     3A    -11.370150
       4A    -11.284763     5A    -11.236310     6A    -11.226252
       7A    -11.222530     8A     -1.466957     9A     -1.360563
      10A     -1.073062    11A     -1.030756    12A     -0.907578
      13A     -0.855789    14A     -0.777430    15A     -0.692919
      16A     -0.680459    17A     -0.669467    18A     -0.618161
      19A     -0.595943    20A     -0.573443    21A     -0.553470
      22A     -0.541102    23A     -0.526365    24A     -0.507181
      25A     -0.505404    26A     -0.496702    27A     -0.451477
      28A     -0.431259

  @DF-RHF Final Energy:  -344.91044432495761

   => Energetics <=

    Nuclear Repulsion Energy =            316.9128621356641702
    One-Electron Energy =               -1098.0473687232251905
    Two-Electron Energy =                 436.2240622626037521
    DFT Exchange-Correlation Energy =       0.0000000000000000
    Empirical Dispersion Energy =           0.0000000000000000
    PCM Polarization Energy =               0.0000000000000000
    EFP Energy =                            0.0000000000000000
    Total Energy =                       -344.9104443249572114
    Molecular point group: c1
  Basis Set: 6-31G*
  Basis Set:

  -Total Gradient:
     Atom            X                  Y                   Z
    ------   -----------------  -----------------  -----------------
       1        0.000044358323     0.000006257650    -0.000046154318
       2        0.000189072118     0.000212324020     0.000151892843
       3       -0.000194937158    -0.000225960235     0.000112688943
       4       -0.000091342452    -0.000095442465    -0.000043846069
       5       -0.000012191472     0.000010541375    -0.000007756174
       6        0.000144799813     0.000107237560    -0.000112479481
       7       -0.000016796588     0.000024424333    -0.000026528941
       8        0.000005148446     0.000011227969    -0.000018481766
       9       -0.000025893794    -0.000002754305     0.000002260563
      10        0.000000107970    -0.000003360482     0.000019633759
      11       -0.000122913801    -0.000146498500    -0.000064863895
      12        0.000029090592     0.000047984485     0.000011647808
      13        0.000030653902     0.000010812247     0.000028004061
      14        0.000016902155     0.000037594446    -0.000003863696
      15        0.000002413649     0.000005388042    -0.000018254220
      16        0.000003759132     0.000005500043    -0.000002542995
      17       -0.000002230837    -0.000005276184     0.000018643574

  **** Optimization is complete! (in 6 steps) ****
    Final optimized geometry and variables:
    Molecular point group: c1

    Geometry (in Angstrom), charge = 0, multiplicity = 1:

    O           -0.785557056763    -0.222800465604     1.555302338098
    C           -0.088142795441    -0.476871873132     0.626089400220
    C            1.035774939032    -1.483617738588     0.640596915186
    O           -0.202313915615     0.116385371194    -0.554697035212
    C            2.408894275485    -0.801749251204     0.605343866444
    H            0.927865253352    -2.133275235429    -0.221082963382
    H            0.926186908380    -2.076887672366     1.538295642835
    H            2.531494002157    -0.219006918695    -0.299710191877
    H            3.195807537024    -1.546892006612     0.638187076038
    H            2.537265492335    -0.142850431082     1.457734471012
    C           -1.209396576613     1.112886270369    -0.695637897855
    C           -1.130026261595     1.641991238980    -2.111991708988
    H           -1.037314551874     1.893280855498     0.033034343320
    H           -2.173912324838     0.670510691207    -0.487360404803
    H           -0.156226896854     2.076969711387    -2.306565830991
    H           -1.884239825260     2.407453698895    -2.263239040577
    H           -1.299174473444     0.847232454941    -2.829603309793

  Mulliken Charges: (a.u.)
   Center  Symbol    Alpha    Beta     Spin     Total
       1     O     4.28538  4.28538  0.00000 -0.57077
       2     C     2.61415  2.61415  0.00000  0.77171
       3     C     3.19469  3.19469  0.00000 -0.38938
       4     O     4.30981  4.30981  0.00000 -0.61962
       5     C     3.25076  3.25076  0.00000 -0.50152
       6     H     0.40419  0.40419  0.00000  0.19162
       7     H     0.39873  0.39873  0.00000  0.20254
       8     H     0.40799  0.40799  0.00000  0.18402
       9     H     0.41203  0.41203  0.00000  0.17593
      10     H     0.41103  0.41103  0.00000  0.17793
      11     C     3.00220  3.00220  0.00000 -0.00440
      12     C     3.24859  3.24859  0.00000 -0.49717
      13     H     0.41024  0.41024  0.00000  0.17953
      14     H     0.40996  0.40996  0.00000  0.18009
      15     H     0.41225  0.41225  0.00000  0.17549
      16     H     0.41618  0.41618  0.00000  0.16763
      17     H     0.41182  0.41182  0.00000  0.17636

   Total alpha = 28.00000, Total beta = 28.00000, Total charge = -0.00000
