                              Psi4 1.0.54 Driver

  ==> Input File <==

--------------------------------------------------------------------------
set {
	reference rhf
	basis cc-pvtz
}

set_num_threads( 4 )
memory 2 gb

molecule MOL {
0 1

H	 -0.662053	 4.269071	 -0.631342
O	 0.154845	 3.793344	 -0.640269
C	 -0.095590	 2.521038	 -0.344540
C	 1.160627	 1.692863	 -0.335912
O	 -1.188764	 2.131148	 -0.118870
C	 0.926581	 0.227233	 0.000178
H	 1.843107	 2.155571	 0.369673
H	 1.623600	 1.805246	 -1.310973
C	 2.220156	 -0.582071	 -0.000088
H	 0.447655	 0.154686	 0.970127
H	 0.227871	 -0.196084	 -0.712583
C	 3.466689	 0.296012	 -0.000457
H	 2.239073	 -1.234095	 -0.869382
H	 2.239505	 -1.233985	 0.869270
H	 3.493549	 0.935857	 -0.875887
H	 4.368821	 -0.304526	 -0.001199
H	 3.494559	 0.935166	 0.875458

	symmetry c1
}
set optking {
	frozen_dihedral = ("
		10 6 9 13
	")
}

ee,wfn = optimize('scf', return_wfn=True)
oeprop( wfn, 'DIPOLE', 'QUADRUPOLE', 'MULLIKEN_CHARGES')
f=open( 'psi4out.xyz', 'w' )
f.write( "17  " )
f.write( str(ee) + "\n" )
f.write( MOL.save_string_xyz() )
f.close()
--------------------------------------------------------------------------

    Molecular point group: c1
  Charge       = 0
  Multiplicity = 1
  Basis Set: CC-PVTZ
  Basis Set:
  @DF-RHF Final Energy:  -345.03549143960748
    Total Energy =                       -345.0354914396073127
    Molecular point group: c1
  Basis Set: CC-PVTZ
  Basis Set:
  Basis Set: CC-PVTZ
  Basis Set:
  @DF-RHF Final Energy:  -345.03285497836089
    Total Energy =                       -345.0328549783610015
  Basis Set: CC-PVTZ
  Basis Set:
  Basis Set: CC-PVTZ
  Basis Set:
  @DF-RHF Final Energy:  -345.03972457187064
    Total Energy =                       -345.0397245718705790
  Basis Set: CC-PVTZ
  Basis Set:
  Basis Set: CC-PVTZ
  Basis Set:
  @DF-RHF Final Energy:  -345.04019622948181
    Total Energy =                       -345.0401962294818077
  Basis Set: CC-PVTZ
  Basis Set:
  @DF-RHF Final Energy:  -345.03994407695660
    Total Energy =                       -345.0399440769563171
  Basis Set: CC-PVTZ
  Basis Set:
  @DF-RHF Final Energy:  -345.03997464633085
    Total Energy =                       -345.0399746463311317
  Basis Set: CC-PVTZ
  Basis Set:
  Basis Set: CC-PVTZ
  Basis Set:
  @DF-RHF Final Energy:  -345.04026850644283
    Total Energy =                       -345.0402685064429988
  Basis Set: CC-PVTZ
  Basis Set:
  Basis Set: CC-PVTZ
  Basis Set:
  @DF-RHF Final Energy:  -345.04027025022270
    Total Energy =                       -345.0402702502227612
  Basis Set: CC-PVTZ
  Basis Set:
  Charge       = 0
  Multiplicity = 1
  Basis Set: CC-PVTZ
  Basis Set:

    Orbital Energies (a.u.)
    -----------------------

    Doubly Occupied:

       1A    -20.603773     2A    -20.540520     3A    -11.373422
       4A    -11.239077     5A    -11.221171     6A    -11.220613
       7A    -11.214012     8A     -1.477478     9A     -1.368990
      10A     -1.089511    11A     -1.016286    12A     -0.922099
      13A     -0.835200    14A     -0.773511    15A     -0.703661
      16A     -0.693467    17A     -0.669598    18A     -0.627072
      19A     -0.605618    20A     -0.575176    21A     -0.563506
      22A     -0.553006    23A     -0.524950    24A     -0.484423
      25A     -0.478409    26A     -0.476965    27A     -0.457495
      28A     -0.447274

  @DF-RHF Final Energy:  -345.04027046596906

   => Energetics <=

    Nuclear Repulsion Energy =            308.3786151145489498
    One-Electron Energy =               -1081.3252010666469687
    Two-Electron Energy =                 427.9063154861291878
    DFT Exchange-Correlation Energy =       0.0000000000000000
    Empirical Dispersion Energy =           0.0000000000000000
    PCM Polarization Energy =               0.0000000000000000
    EFP Energy =                            0.0000000000000000
    Total Energy =                       -345.0402704659688879
    Molecular point group: c1
  Basis Set: CC-PVTZ
  Basis Set:

  -Total Gradient:
     Atom            X                  Y                   Z
    ------   -----------------  -----------------  -----------------
       1        0.000026187095    -0.000025817456     0.000001862697
       2       -0.000032122372    -0.000025694957     0.000021393801
       3       -0.000093106374    -0.000020863619    -0.000006299940
       4       -0.000025591593     0.000026840321    -0.000004660416
       5        0.000116428692     0.000052329769    -0.000027325421
       6        0.003418592430     0.004240602442     0.002409848601
       7       -0.000013107844    -0.000002709252    -0.000005182440
       8       -0.000004339668     0.000004477598     0.000011202095
       9        0.002440655951     0.003352347738    -0.004131370099
      10       -0.003238940147    -0.004087304782    -0.001372690768
      11        0.000005022173     0.000013232591     0.000002485692
      12        0.000021292559    -0.000023114814    -0.000000377294
      13       -0.002592521756    -0.003527657575     0.003101695116
      14       -0.000002975202     0.000016111722    -0.000010941371
      15       -0.000010441538    -0.000004152117     0.000008865002
      16       -0.000031543389     0.000028552338    -0.000006144384
      17        0.000016510981    -0.000017179948     0.000007639130

  **** Optimization is complete! (in 9 steps) ****
    Final optimized geometry and variables:
    Molecular point group: c1

    Geometry (in Angstrom), charge = 0, multiplicity = 1:

    H           -1.580936221832     2.837180084808    -0.506490906150
    O           -0.774437916526     2.345959302180    -0.550172123220
    C           -1.016471151673     1.103546501568    -0.140775863031
    C            0.226010314989     0.254664924494    -0.181135098422
    O           -2.092047308324     0.754351014511     0.204012592334
    C           -0.014787883356    -1.175882215296     0.280517991153
    H            0.970206974891     0.761297485796     0.421457047713
    H            0.596053234137     0.289768388979    -1.200145621949
    C            1.206391155476    -2.123627184418     0.223210496580
    H           -0.436054339272    -1.175505977485     1.277753403548
    H           -0.801079553287    -1.594840576203    -0.335671341094
    C            2.591552435817    -1.482857797991     0.215146030369
    H            1.101423664637    -2.791408402170    -0.625073987209
    H            1.149043765582    -2.778862968214     1.086309681098
    H            2.754850334011    -0.866060190598    -0.660548218396
    H            3.355844136373    -2.250910917899     0.217882449380
    H            2.750343545633    -0.863995333415     1.091753387306

  Mulliken Charges: (a.u.)
   Center  Symbol    Alpha    Beta     Spin     Total
       1     H     0.38249  0.38249  0.00000  0.23502
       2     O     4.15959  4.15959  0.00000 -0.31918
       3     C     2.80825  2.80825  0.00000  0.38351
       4     C     3.11145  3.11145  0.00000 -0.22290
       5     O     4.19065  4.19065  0.00000 -0.38130
       6     C     3.09192  3.09192  0.00000 -0.18384
       7     H     0.43549  0.43549  0.00000  0.12903
       8     H     0.43652  0.43652  0.00000  0.12695
       9     C     3.08988  3.08988  0.00000 -0.17977
      10     H     0.44324  0.44324  0.00000  0.11352
      11     H     0.44386  0.44386  0.00000  0.11229
      12     C     3.15800  3.15800  0.00000 -0.31601
      13     H     0.44994  0.44994  0.00000  0.10012
      14     H     0.44964  0.44964  0.00000  0.10071
      15     H     0.45343  0.45343  0.00000  0.09314
      16     H     0.44290  0.44290  0.00000  0.11421
      17     H     0.45275  0.45275  0.00000  0.09450

   Total alpha = 28.00000, Total beta = 28.00000, Total charge =  0.00000

*** Psi4 exiting successfully. Buy a developer a beer!
