                              Psi4 1.0.54 Driver

  ==> Input File <==

--------------------------------------------------------------------------
set {
	reference rhf
	basis cc-pvtz
}

set_num_threads( 4 )
memory 2 gb

molecule MOL {
0 1

H	 -3.162190	 0.493205	 -0.000107
C	 -2.363908	 -0.234727	 0.000005
O	 -1.158738	 0.454634	 -0.000087
H	 -2.464314	 -0.863616	 -0.882153
H	 -2.464327	 -0.863359	 0.882345
C	 -1.252224	 1.779421	 -0.420224
C	 0.122333	 2.415746	 -0.374655
H	 -1.941540	 2.327670	 0.222353
H	 -1.653046	 1.822999	 -1.433183
C	 0.104478	 3.873099	 -0.822040
H	 0.504515	 2.340306	 0.637358
H	 0.790689	 1.839680	 -1.005053
H	 -0.540389	 4.473232	 -0.188736
H	 1.097930	 4.302372	 -0.779630
H	 -0.252012	 3.969234	 -1.842207

	symmetry c1
}
set optking {
	frozen_dihedral = ("
		6 3 2 4
	")
}

ee,wfn = optimize('scf', return_wfn=True)
oeprop( wfn, 'DIPOLE', 'QUADRUPOLE', 'MULLIKEN_CHARGES')
f=open( 'psi4out.xyz', 'w' )
f.write( "15  " )
f.write( str(ee) + "\n" )
f.write( MOL.save_string_xyz() )
f.close()
--------------------------------------------------------------------------

    Molecular point group: c1
  Charge       = 0
  Multiplicity = 1
  Basis Set: CC-PVTZ
  Basis Set:
  @DF-RHF Final Energy:  -232.22437709078852
    Total Energy =                       -232.2243770907886073
    Molecular point group: c1
  Basis Set: CC-PVTZ
  Basis Set:
  Basis Set: CC-PVTZ
  Basis Set:
  @DF-RHF Final Energy:  -232.22527659273095
    Total Energy =                       -232.2252765927309497
  Basis Set: CC-PVTZ
  Basis Set:
  Basis Set: CC-PVTZ
  Basis Set:
  @DF-RHF Final Energy:  -232.22555394601108
    Total Energy =                       -232.2255539460112459
  Basis Set: CC-PVTZ
  Basis Set:
  Charge       = 0
  Multiplicity = 1
  Basis Set: CC-PVTZ
  Basis Set:

    Orbital Energies (a.u.)
    -----------------------

    Doubly Occupied:

       1A    -20.544941     2A    -11.264775     3A    -11.261319
       4A    -11.212360     5A    -11.210526     6A     -1.378184
       7A     -1.058163     8A     -0.956203     9A     -0.877279
      10A     -0.809264    11A     -0.674119    12A     -0.654332
      13A     -0.631987    14A     -0.608227    15A     -0.564101
      16A     -0.544363    17A     -0.503114    18A     -0.489843
      19A     -0.479021    20A     -0.462290    21A     -0.412301

  @DF-RHF Final Energy:  -232.22555602829652

   => Energetics <=

    Nuclear Repulsion Energy =            189.7443061153942381
    One-Electron Energy =                -690.7463010429761425
    Two-Electron Energy =                 268.7764388992852673
    DFT Exchange-Correlation Energy =       0.0000000000000000
    Empirical Dispersion Energy =           0.0000000000000000
    PCM Polarization Energy =               0.0000000000000000
    EFP Energy =                            0.0000000000000000
    Total Energy =                       -232.2255560282966371
    Molecular point group: c1
  Basis Set: CC-PVTZ
  Basis Set:

  -Total Gradient:
     Atom            X                  Y                   Z
    ------   -----------------  -----------------  -----------------
       1       -0.000054196255    -0.000014820516    -0.000006919189
       2       -0.001511225573     0.002893815790    -0.000679695080
       3        0.000695349022    -0.001530838644    -0.002510780255
       4        0.001221453582    -0.001913518272     0.001266206915
       5       -0.000023547625    -0.000051230486    -0.000006503918
       6       -0.000334591229     0.000646184150     0.001896976540
       7        0.000001726801    -0.000008580221     0.000007310634
       8        0.000000357939    -0.000036186485     0.000012105955
       9       -0.000000137539    -0.000010653024     0.000019398867
      10        0.000007603121     0.000013950927    -0.000003138560
      11        0.000004331333     0.000001169404     0.000000172435
      12       -0.000006989968     0.000000744216     0.000003620965
      13        0.000000806389     0.000002419884     0.000000462682
      14       -0.000000788968     0.000007500024    -0.000001074360
      15       -0.000000151031     0.000000043252     0.000001856373

  **** Optimization is complete! (in 4 steps) ****
    Final optimized geometry and variables:
    Molecular point group: c1

    Geometry (in Angstrom), charge = 0, multiplicity = 1:

    H           -2.284498459200    -1.251270803773     0.361330936616
    C           -1.413998783252    -1.898315124695     0.318867366054
    O           -0.223767080237    -1.175586555855     0.317979583539
    H           -1.484358003304    -2.529175721280    -0.562627919612
    H           -1.425387777254    -2.541507828094     1.189733264190
    C           -0.319925544382     0.148985602264    -0.105406951250
    C            1.053421937055     0.787160246783    -0.051246930342
    H           -1.012578863568     0.695342978322     0.533971503486
    H           -0.712839479858     0.195491609477    -1.121298352695
    C            1.034769116308     2.246944097169    -0.491108105339
    H            1.431423131439     0.706866844414     0.962067083033
    H            1.725673596428     0.215652988339    -0.681694349720
    H            0.386535658224     2.842719876770     0.142974351926
    H            2.027336133802     2.677855132902    -0.442820033458
    H            0.681846798827     2.347842969518    -1.512111320865

  Mulliken Charges: (a.u.)
   Center  Symbol    Alpha    Beta     Spin     Total
       1     H     0.47348  0.47348  0.00000  0.05304
       2     C     3.03039  3.03039  0.00000 -0.06078
       3     O     4.17523  4.17523  0.00000 -0.35047
       4     H     0.46288  0.46288  0.00000  0.07425
       5     H     0.45311  0.45311  0.00000  0.09378
       6     C     2.95564  2.95564  0.00000  0.08873
       7     C     3.08163  3.08163  0.00000 -0.16325
       8     H     0.47502  0.47502  0.00000  0.04996
       9     H     0.47643  0.47643  0.00000  0.04714
      10     C     3.15586  3.15586  0.00000 -0.31172
      11     H     0.45124  0.45124  0.00000  0.09751
      12     H     0.45105  0.45105  0.00000  0.09790
      13     H     0.45593  0.45593  0.00000  0.08814
      14     H     0.44628  0.44628  0.00000  0.10744
      15     H     0.45584  0.45584  0.00000  0.08833

   Total alpha = 21.00000, Total beta = 21.00000, Total charge =  0.00000

*** Psi4 exiting successfully. Buy a developer a beer!
