  ==> Input File <==

--------------------------------------------------------------------------
set {
	reference rhf
	basis cc-pvtz
}

set_num_threads( 4 )
memory 2 gb

molecule MOL {
0 1

H	 0.000000	 -1.579000	 -1.175000
N	 0.000000	 -1.454000	 -0.180000
C	 1.211000	 -0.757000	 0.224000
C	 -1.211000	 -0.757000	 0.224000
H	 2.066000	 -1.305000	 -0.157000
H	 1.270000	 -0.802000	 1.310000
C	 1.260000	 0.706000	 -0.228000
H	 -1.270000	 -0.802000	 1.310000
H	 -2.066000	 -1.306000	 -0.157000
C	 -1.260000	 0.706000	 -0.228000
H	 1.335000	 0.743000	 -1.314000
H	 2.151000	 1.190000	 0.166000
C	 -0.000000	 1.453000	 0.221000
H	 -2.151000	 1.189000	 0.166000
H	 -1.335000	 0.743000	 -1.314000
H	 -0.000000	 1.534000	 1.307000
H	 -0.000000	 2.468000	 -0.167000

	symmetry c1
}
ee = optimize('scf')
oeprop('DIPOLE', 'QUADRUPOLE', 'MULLIKEN_CHARGES')
f=open( 'psi4out.xyz', 'w' )
f.write( "17  " )
f.write( str(ee) + "\n" )
f.write( MOL.save_string_xyz() )
f.close()
--------------------------------------------------------------------------

    Molecular point group: c1
  Charge       = 0
  Multiplicity = 1
  Basis Set: CC-PVTZ
  Basis Set:
  @DF-RHF Final Energy:  -250.27575977738451
    Total Energy =                       -250.2757597773846783
    Molecular point group: c1
  Basis Set: CC-PVTZ
  Basis Set:
  Basis Set: CC-PVTZ
  Basis Set:
  @DF-RHF Final Energy:  -250.27583607557818
    Total Energy =                       -250.2758360755779563
  Basis Set: CC-PVTZ
  Basis Set:
  Basis Set: CC-PVTZ
  Basis Set:
  @DF-RHF Final Energy:  -250.27583870672015
    Total Energy =                       -250.2758387067202648
  Basis Set: CC-PVTZ
  Basis Set:
  Charge       = 0
  Multiplicity = 1
  Basis Set: CC-PVTZ
  Basis Set:

    Orbital Energies (a.u.)
    -----------------------

    Doubly Occupied:

       1A    -15.527480     2A    -11.235956     3A    -11.235940
       4A    -11.212918     5A    -11.210109     6A    -11.210033
       7A     -1.211162     8A     -1.055880     9A     -1.011941
      10A     -0.863308    11A     -0.844699    12A     -0.772731
      13A     -0.665885    14A     -0.618270    15A     -0.610846
      16A     -0.607048    17A     -0.547764    18A     -0.528370
      19A     -0.522250    20A     -0.490517    21A     -0.488010
      22A     -0.457189    23A     -0.445210    24A     -0.350884

  @DF-RHF Final Energy:  -250.27583888545888

   => Energetics <=

    Nuclear Repulsion Energy =            260.0902225066248548
    One-Electron Energy =                -853.2833254774152465
    Two-Electron Energy =                 342.9172640853313396
    DFT Exchange-Correlation Energy =       0.0000000000000000
    Empirical Dispersion Energy =           0.0000000000000000
    PCM Polarization Energy =               0.0000000000000000
    EFP Energy =                            0.0000000000000000
    Total Energy =                       -250.2758388854590521
    Molecular point group: c1
  Basis Set: CC-PVTZ
  Basis Set:

  -Total Gradient:
     Atom            X                  Y                   Z
    ------   -----------------  -----------------  -----------------
       1        0.000001227897    -0.000007645741     0.000002114853
       2        0.000000300461    -0.000040593772    -0.000052092736
       3        0.000031727318     0.000043017287     0.000026479343
       4       -0.000031439101     0.000040744692     0.000026937491
       5       -0.000008682792    -0.000004634185     0.000000053681
       6        0.000004411531    -0.000005395194    -0.000003278004
       7        0.000000509567    -0.000003550727     0.000018099885
       8       -0.000005615087    -0.000003938366    -0.000002844139
       9        0.000010830887    -0.000002010593     0.000000197468
      10        0.000000629668    -0.000004573042     0.000019083044
      11        0.000008498756     0.000003015286    -0.000004877691
      12        0.000005711877    -0.000008653202    -0.000008039782
      13       -0.000000355747    -0.000004567067    -0.000021263237
      14       -0.000007614446    -0.000005605267    -0.000007581620
      15       -0.000008643992     0.000002831743    -0.000004146528
      16       -0.000000710691     0.000009890765     0.000005796513
      17       -0.000000786107    -0.000008332614     0.000005361458

  **** Optimization is complete! (in 4 steps) ****
    Final optimized geometry and variables:
    Molecular point group: c1

    Geometry (in Angstrom), charge = 0, multiplicity = 1:

    H            0.000127301900    -1.562570055007    -1.169039898243
    N            0.000109660338    -1.426750585492    -0.179683061949
    C            1.210239811820    -0.731323861205     0.222418972510
    C           -1.210127802921    -0.731506092372     0.222417672585
    H            2.064542857158    -1.275808896441    -0.161504437614
    H            1.274308753472    -0.775665420758     1.306436418293
    C            1.257786967871     0.728949064452    -0.226234603057
    H           -1.274206858872    -0.775859439553     1.306434460466
    H           -2.064343765434    -1.276106865631    -0.161522783181
    C           -1.257899336204     0.728763338916    -0.226224475630
    H            1.335215085649     0.766811722040    -1.310891726299
    H            2.146763567806     1.210746857501     0.168839002598
    C           -0.000111367459     1.474098287750     0.219651983516
    H           -2.146943994910     1.210439746980     0.168856248733
    H           -1.335343660729     0.766618525027    -1.310879908203
    H           -0.000118512814     1.557665179307     1.304206521091
    H           -0.000194119404     2.486599045361    -0.168954024450

  Mulliken Charges: (a.u.)
   Center  Symbol    Alpha    Beta     Spin     Total
       1     H     0.45187  0.45187  0.00000  0.09627
       2     N     3.63477  3.63477  0.00000 -0.26954
       3     C     3.04806  3.04806  0.00000 -0.09612
       4     C     3.04806  3.04806  0.00000 -0.09612
       5     H     0.44650  0.44650  0.00000  0.10699
       6     H     0.45742  0.45742  0.00000  0.08515
       7     C     3.10137  3.10137  0.00000 -0.20273
       8     H     0.45742  0.45742  0.00000  0.08515
       9     H     0.44650  0.44650  0.00000  0.10700
      10     C     3.10137  3.10137  0.00000 -0.20273
      11     H     0.45746  0.45746  0.00000  0.08508
      12     H     0.44764  0.44764  0.00000  0.10472
      13     C     3.09800  3.09800  0.00000 -0.19599
      14     H     0.44764  0.44764  0.00000  0.10472
      15     H     0.45746  0.45746  0.00000  0.08508
      16     H     0.45399  0.45399  0.00000  0.09202
      17     H     0.44448  0.44448  0.00000  0.11105

   Total alpha = 24.00000, Total beta = 24.00000, Total charge = -0.00000
