  ==> Input File <==

--------------------------------------------------------------------------
set {
	reference rhf
	basis 6-31G*
}

set_num_threads( 4 )
memory 2 gb

molecule MOL {
0 1

H	 -3.269016	 -0.876744	 0.468090
C	 -2.809304	 0.000122	 0.025886
N	 -1.391456	 0.000019	 0.300661
H	 -3.037557	 -0.000063	 -1.044252
H	 -3.269223	 0.876956	 0.468000
C	 -0.807112	 -1.320975	 0.176948
C	 -1.081094	 0.580662	 1.592303
H	 -1.237659	 -2.020372	 0.900122
H	 -1.017100	 -1.703829	 -0.816475
C	 0.698232	 -1.257421	 0.383027
H	 -1.490929	 1.584698	 1.631108
H	 -1.529777	 0.007148	 2.409171
C	 0.424250	 0.644217	 1.798380
H	 1.108067	 -2.261456	 0.344220
H	 1.146914	 -0.683906	 -0.433841
N	 1.008594	 -0.676778	 1.674668
H	 0.634237	 1.027070	 2.791804
H	 0.854797	 1.343613	 1.075207
C	 2.426441	 -0.676881	 1.949444
H	 2.808491	 -1.690801	 1.907272
H	 2.607370	 -0.293251	 2.947402
H	 2.999084	 -0.068641	 1.242747

	symmetry c1
}
set optking {
	frozen_dihedral = ("
		6 3 2 4
	")
}

ee = optimize('scf')
oeprop('DIPOLE', 'QUADRUPOLE', 'MULLIKEN_CHARGES')
f=open( 'psi4out.xyz', 'w' )
f.write( "22  " )
f.write( str(ee) + "\n" )
f.write( MOL.save_string_xyz() )
f.close()
--------------------------------------------------------------------------

    Molecular point group: c1
  Charge       = 0
  Multiplicity = 1
  Basis Set: 6-31G*
  Basis Set:
  @DF-RHF Final Energy:  -344.22782289391887
    Total Energy =                       -344.2278228939187557
    Molecular point group: c1
  Basis Set: 6-31G*
  Basis Set:
  Basis Set: 6-31G*
  Basis Set:
  @DF-RHF Final Energy:  -344.22870506442899
    Total Energy =                       -344.2287050644285955
  Basis Set: 6-31G*
  Basis Set:
  Basis Set: 6-31G*
  Basis Set:
  @DF-RHF Final Energy:  -344.22881101478106
    Total Energy =                       -344.2288110147808311
  Basis Set: 6-31G*
  Basis Set:
  Charge       = 0
  Multiplicity = 1
  Basis Set: 6-31G*
  Basis Set:

    Orbital Energies (a.u.)
    -----------------------

    Doubly Occupied:

       1A    -15.542150     2A    -15.541712     3A    -11.238711
       4A    -11.238567     5A    -11.238048     6A    -11.237940
       7A    -11.235817     8A    -11.235681     9A     -1.254744
      10A     -1.203615    11A     -1.024183    12A     -0.991505
      13A     -0.911505    14A     -0.866219    15A     -0.835487
      16A     -0.755556    17A     -0.665248    18A     -0.635864
      19A     -0.629109    20A     -0.625627    21A     -0.621568
      22A     -0.581256    23A     -0.548844    24A     -0.547163
      25A     -0.541389    26A     -0.519360    27A     -0.496017
      28A     -0.489208    29A     -0.463536    30A     -0.455217
      31A     -0.350772    32A     -0.345483

  @DF-RHF Final Energy:  -344.22881285535527

   => Energetics <=

    Nuclear Repulsion Energy =            421.3149714014425626
    One-Electron Energy =               -1301.3533645963966592
    Two-Electron Energy =                 535.8095803395988241
    DFT Exchange-Correlation Energy =       0.0000000000000000
    Empirical Dispersion Energy =           0.0000000000000000
    PCM Polarization Energy =               0.0000000000000000
    EFP Energy =                            0.0000000000000000
    Total Energy =                       -344.2288128553552724
    Molecular point group: c1
  Basis Set: 6-31G*
  Basis Set:

  -Total Gradient:
     Atom            X                  Y                   Z
    ------   -----------------  -----------------  -----------------
       1       -0.000030878457    -0.000025204095     0.000023525739
       2       -0.000123629572    -0.006027325845     0.001236605170
       3        0.000765811018     0.001855624284    -0.004478249424
       4       -0.000042238298     0.004635235607    -0.000028731972
       5       -0.000000319783     0.000003704847    -0.000002068028
       6       -0.000669995785    -0.000458294887     0.003282699319
       7       -0.000003655137     0.000094232325    -0.000139082908
       8       -0.000022481548     0.000018337042     0.000009667401
       9        0.000014912030    -0.000060623714    -0.000006320979
      10        0.000059327361    -0.000000445145    -0.000009337770
      11       -0.000002214758     0.000015825736     0.000047750580
      12        0.000021420500    -0.000002968429    -0.000012874896
      13        0.000028198434     0.000003662342     0.000037247974
      14        0.000017179238     0.000005197840     0.000020904763
      15        0.000004152998    -0.000005078573    -0.000009968249
      16        0.000009139710    -0.000037094143     0.000032411491
      17        0.000028798760    -0.000010139709     0.000011169593
      18       -0.000024586325     0.000000532710     0.000005983504
      19       -0.000010823677    -0.000004974565    -0.000014350017
      20       -0.000003757459    -0.000003508140    -0.000002690578
      21       -0.000012247037     0.000001573605    -0.000002612334
      22       -0.000002112211     0.000001730904    -0.000001678380

  **** Optimization is complete! (in 4 steps) ****
    Final optimized geometry and variables:
    Molecular point group: c1

    Geometry (in Angstrom), charge = 0, multiplicity = 1:

    H           -3.140345824674    -0.516409409133    -0.505971384031
    C           -2.622914517695     0.328710871193    -0.964446289554
    N           -1.201072516668     0.346295276406    -0.688825641105
    H           -2.795658137174     0.318038873427    -2.035757297514
    H           -3.076808967745     1.238525653132    -0.588015817762
    C           -0.616407015515    -0.976656090666    -0.805887563579
    C           -0.891426707749     0.911454670180     0.612941816435
    H           -1.047476790291    -1.667108198628    -0.075141938762
    H           -0.832691869305    -1.368418297853    -1.795068491291
    C            0.889716900343    -0.917175239099    -0.606971203926
    H           -1.301399696066     1.914337969973     0.665261025423
    H           -1.334972084185     0.327219747913     1.424762398522
    C            0.614365644128     0.978351634518     0.815864243022
    H            1.297181386097    -1.922171436539    -0.648097120584
    H            1.336663051738    -0.344042196192    -1.424988567396
    N            1.204920585769    -0.339133397541     0.684565658479
    H            0.825339346975     1.357498514865     1.810595987386
    H            1.039466336943     1.683316298370     0.094860829432
    C            2.623980447737    -0.333338475745     0.951725331846
    H            3.010993111507    -1.345156148622     0.903513133834
    H            2.808275734101     0.047250758855     1.950251721504
    H            3.189940778986     0.280633595428     0.244569802858

  Mulliken Charges: (a.u.)
   Center  Symbol    Alpha    Beta     Spin     Total
       1     H     0.43081  0.43081  0.00000  0.13838
       2     C     3.14100  3.14100  0.00000 -0.28199
       3     N     3.78629  3.78629  0.00000 -0.57258
       4     H     0.41524  0.41524  0.00000  0.16953
       5     H     0.41893  0.41893  0.00000  0.16214
       6     C     3.05870  3.05870  0.00000 -0.11740
       7     C     3.05819  3.05819  0.00000 -0.11637
       8     H     0.42779  0.42779  0.00000  0.14443
       9     H     0.41749  0.41749  0.00000  0.16502
      10     C     3.05590  3.05590  0.00000 -0.11179
      11     H     0.41759  0.41759  0.00000  0.16482
      12     H     0.42851  0.42851  0.00000  0.14298
      13     C     3.05641  3.05641  0.00000 -0.11281
      14     H     0.41802  0.41802  0.00000  0.16396
      15     H     0.42838  0.42838  0.00000  0.14324
      16     N     3.78700  3.78700  0.00000 -0.57401
      17     H     0.41804  0.41804  0.00000  0.16393
      18     H     0.42839  0.42839  0.00000  0.14322
      19     C     3.14029  3.14029  0.00000 -0.28057
      20     H     0.41682  0.41682  0.00000  0.16637
      21     H     0.41682  0.41682  0.00000  0.16636
      22     H     0.43341  0.43341  0.00000  0.13318

   Total alpha = 32.00000, Total beta = 32.00000, Total charge = -0.00000
