  ==> Input File <==

--------------------------------------------------------------------------
set {
	reference rhf
	basis cc-pvtz
}

set_num_threads( 4 )
memory 2 gb

molecule MOL {
0 1

H	 -0.244514	 2.233298	 1.295632
C	 0.627348	 1.565850	 1.300363
C	 0.692262	 0.592428	 0.156232
O	 1.427201	 1.644061	 2.167400
C	 -0.554654	 -0.292621	 0.086567
H	 1.591234	 -0.000612	 0.261059
H	 0.774627	 1.172692	 -0.760495
C	 -1.846385	 0.513195	 -0.016346
H	 -0.473986	 -0.956115	 -0.769708
H	 -0.597929	 -0.929215	 0.966651
C	 -3.089953	 -0.365049	 -0.098564
H	 -1.798267	 1.154820	 -0.891143
H	 -1.925398	 1.173265	 0.842889
H	 -3.055079	 -1.012299	 -0.968245
H	 -3.988403	 0.236438	 -0.170014
H	 -3.183055	 -0.995885	 0.779079

	symmetry c1
}
set optking {
	frozen_dihedral = ("
		6 3 5 9
	")
}

ee = optimize('scf')
oeprop('DIPOLE', 'QUADRUPOLE', 'MULLIKEN_CHARGES')
f=open( 'psi4out.xyz', 'w' )
f.write( "16  " )
f.write( str(ee) + "\n" )
f.write( MOL.save_string_xyz() )
f.close()
--------------------------------------------------------------------------

    Molecular point group: c1
  Charge       = 0
  Multiplicity = 1
  Basis Set: CC-PVTZ
  Basis Set:
  @DF-RHF Final Energy:  -270.11487120790127
    Total Energy =                       -270.1148712079012739
    Molecular point group: c1
  Basis Set: CC-PVTZ
  Basis Set:
  Basis Set: CC-PVTZ
  Basis Set:
  @DF-RHF Final Energy:  -270.11532345568577
    Total Energy =                       -270.1153234556858251
  Basis Set: CC-PVTZ
  Basis Set:
  Basis Set: CC-PVTZ
  Basis Set:
  @DF-RHF Final Energy:  -270.11639159076009
    Total Energy =                       -270.1163915907596902
  Basis Set: CC-PVTZ
  Basis Set:
  Basis Set: CC-PVTZ
  Basis Set:
  @DF-RHF Final Energy:  -270.11661282879766
    Total Energy =                       -270.1166128287979973
  Basis Set: CC-PVTZ
  Basis Set:
  @DF-RHF Final Energy:  -270.11650287421855
    Total Energy =                       -270.1165028742186109
  @DF-RHF Final Energy:  -270.11670081411808
    Total Energy =                       -270.1167008141180759
  Basis Set: CC-PVTZ
  Basis Set:
  @DF-RHF Final Energy:  -270.11673694015064
    Total Energy =                       -270.1167369401506448
  Basis Set: CC-PVTZ
  Basis Set:
  Basis Set: CC-PVTZ
  Basis Set:
  @DF-RHF Final Energy:  -270.11677015914597
    Total Energy =                       -270.1167701591458012
  Basis Set: CC-PVTZ
  Basis Set:
  Basis Set: CC-PVTZ
  Basis Set:
  @DF-RHF Final Energy:  -270.11677179294702
    Total Energy =                       -270.1167717929466221
  Basis Set: CC-PVTZ
  Basis Set:
  Charge       = 0
  Multiplicity = 1
  Basis Set: CC-PVTZ
  Basis Set:

    Orbital Energies (a.u.)
    -----------------------

    Doubly Occupied:

       1A    -20.551696     2A    -11.320243     3A    -11.234187
       4A    -11.233500     5A    -11.228351     6A    -11.217008
       7A     -1.406085     8A     -1.096389     9A     -1.017704
      10A     -0.905679    11A     -0.830743    12A     -0.775811
      13A     -0.683965    14A     -0.652286    15A     -0.621548
      16A     -0.603093    17A     -0.584839    18A     -0.556738
      19A     -0.532299    20A     -0.517901    21A     -0.490206
      22A     -0.480477    23A     -0.471475    24A     -0.410378

  @DF-RHF Final Energy:  -270.11677193038486

   => Energetics <=

    Nuclear Repulsion Energy =            233.4128716522136813
    One-Electron Energy =                -828.2140842957895757
    Two-Electron Energy =                 324.6844407131909520
    DFT Exchange-Correlation Energy =       0.0000000000000000
    Empirical Dispersion Energy =           0.0000000000000000
    PCM Polarization Energy =               0.0000000000000000
    EFP Energy =                            0.0000000000000000
    Total Energy =                       -270.1167719303849708
    Molecular point group: c1
  Basis Set: CC-PVTZ
  Basis Set:

  -Total Gradient:
     Atom            X                  Y                   Z
    ------   -----------------  -----------------  -----------------
       1       -0.000006364435     0.000002626587    -0.000003213950
       2        0.000021809988    -0.000020276521     0.000010541287
       3        0.000008766496     0.000103025145    -0.001745368970
       4       -0.000013782642     0.000008377158    -0.000012497902
       5        0.000658470304    -0.001031059553     0.001200793297
       6       -0.000093351497     0.000080130504     0.001279721231
       7       -0.000000634275     0.000000231748     0.000005298132
       8        0.000007092277    -0.000001056701     0.000004817675
       9       -0.000579272262     0.000856512646    -0.000738021866
      10        0.000001220002     0.000002530381     0.000000495153
      11        0.000001610443    -0.000002996381    -0.000002693438
      12       -0.000001942262    -0.000000010849     0.000000424494
      13       -0.000004796861    -0.000000140554    -0.000000832280
      14        0.000000531890    -0.000000056667     0.000000571121
      15       -0.000000780045     0.000000874305    -0.000000576959
      16        0.000001422883     0.000001288755     0.000000542976

  **** Optimization is complete! (in 10 steps) ****
    Final optimized geometry and variables:
    Molecular point group: c1

    Geometry (in Angstrom), charge = 0, multiplicity = 1:

    H            0.550109530784     1.898898181076     0.552505284593
    C            1.186174253582     1.013392893988     0.661229097708
    C            1.168286803597     0.036416881648    -0.485589079142
    O            1.830213496057     0.869262632053     1.643268691628
    C           -0.095248813822    -0.837750246597    -0.507232836028
    H            2.044390452859    -0.590356306423    -0.385581706259
    H            1.241228344438     0.595569821643    -1.414247384021
    C           -1.412375700126    -0.070037079853    -0.619142539742
    H           -0.015088537424    -1.509803689957    -1.355334981460
    H           -0.109569982899    -1.457714748514     0.383349820476
    C           -2.615869315402    -0.997264043201    -0.752049510711
    H           -1.371608139856     0.593244925815    -1.479183780006
    H           -1.551596195364     0.563987144167     0.250783833096
    H           -2.535164859086    -1.617958981906    -1.637950424780
    H           -3.537982869810    -0.433044194101    -0.825571308582
    H           -2.697963925205    -1.655435787719     0.106131727560

  Mulliken Charges: (a.u.)
   Center  Symbol    Alpha    Beta     Spin     Total
       1     H     0.46089  0.46089  0.00000  0.07822
       2     C     2.90572  2.90572  0.00000  0.18855
       3     C     3.09103  3.09103  0.00000 -0.18205
       4     O     4.16654  4.16654  0.00000 -0.33308
       5     C     3.10008  3.10008  0.00000 -0.20016
       6     H     0.43774  0.43774  0.00000  0.12453
       7     H     0.44957  0.44957  0.00000  0.10086
       8     C     3.09195  3.09195  0.00000 -0.18390
       9     H     0.44752  0.44752  0.00000  0.10496
      10     H     0.44435  0.44435  0.00000  0.11129
      11     C     3.14841  3.14841  0.00000 -0.29682
      12     H     0.45251  0.45251  0.00000  0.09498
      13     H     0.45067  0.45067  0.00000  0.09867
      14     H     0.45377  0.45377  0.00000  0.09247
      15     H     0.44673  0.44673  0.00000  0.10654
      16     H     0.45253  0.45253  0.00000  0.09495

   Total alpha = 24.00000, Total beta = 24.00000, Total charge =  0.00000
