  ==> Input File <==

--------------------------------------------------------------------------
set {
	reference rhf
	basis cc-pvtz
}

set_num_threads( 4 )
memory 2 gb

molecule MOL {
0 1

H	 -2.498963	 -0.741158	 -0.729149
O	 -2.346257	 -0.289210	 0.080372
C	 -1.183935	 0.486039	 -0.009831
C	 0.062853	 -0.375310	 0.027457
H	 -1.178881	 1.094526	 -0.908634
H	 -1.184406	 1.155156	 0.838676
O	 1.172093	 0.457955	 -0.054438
H	 0.052476	 -1.081302	 -0.804627
H	 0.076323	 -0.955658	 0.947560
C	 1.748576	 0.532755	 -1.316696
H	 1.046641	 0.920172	 -2.051862
H	 2.593534	 1.202827	 -1.255587
H	 2.096523	 -0.441122	 -1.652875

	symmetry c1
}
set optking {
	frozen_dihedral = ("
		10 7 4 8
	")
}

ee = optimize('scf')
oeprop('DIPOLE', 'QUADRUPOLE', 'MULLIKEN_CHARGES')
f=open( 'psi4out.xyz', 'w' )
f.write( "13  " )
f.write( str(ee) + "\n" )
f.write( MOL.save_string_xyz() )
f.close()
--------------------------------------------------------------------------

    Molecular point group: c1
  Charge       = 0
  Multiplicity = 1
  Basis Set: CC-PVTZ
  Basis Set:
  @DF-RHF Final Energy:  -268.05795559612613
    Total Energy =                       -268.0579555961259643
    Molecular point group: c1
  Basis Set: CC-PVTZ
  Basis Set:
  Basis Set: CC-PVTZ
  Basis Set:
  @DF-RHF Final Energy:  -268.05860003076924
    Total Energy =                       -268.0586000307690711
  Basis Set: CC-PVTZ
  Basis Set:
  Basis Set: CC-PVTZ
  Basis Set:
  @DF-RHF Final Energy:  -268.05876388309787
    Total Energy =                       -268.0587638830976402
  Basis Set: CC-PVTZ
  Basis Set:
  Basis Set: CC-PVTZ
  Basis Set:
  @DF-RHF Final Energy:  -268.05876603768024
    Total Energy =                       -268.0587660376802432
  Basis Set: CC-PVTZ
  Basis Set:
  Charge       = 0
  Multiplicity = 1
  Basis Set: CC-PVTZ
  Basis Set:

    Orbital Energies (a.u.)
    -----------------------

    Doubly Occupied:

       1A    -20.554158     2A    -20.554067     3A    -11.269574
       4A    -11.269532     5A    -11.268074     6A     -1.388624
       7A     -1.369795     8A     -1.016894     9A     -0.923048
      10A     -0.840598    11A     -0.712636    12A     -0.670961
      13A     -0.663762    14A     -0.642296    15A     -0.593814
      16A     -0.578119    17A     -0.544766    18A     -0.492202
      19A     -0.476743    20A     -0.468127    21A     -0.408226

  @DF-RHF Final Energy:  -268.05876625841557

   => Energetics <=

    Nuclear Repulsion Energy =            191.5027566797866143
    One-Electron Energy =                -745.7110134381068747
    Two-Electron Energy =                 286.1494904999046867
    DFT Exchange-Correlation Energy =       0.0000000000000000
    Empirical Dispersion Energy =           0.0000000000000000
    PCM Polarization Energy =               0.0000000000000000
    EFP Energy =                            0.0000000000000000
    Total Energy =                       -268.0587662584155169
    Molecular point group: c1
  Basis Set: CC-PVTZ
  Basis Set:

  -Total Gradient:
     Atom            X                  Y                   Z
    ------   -----------------  -----------------  -----------------
       1       -0.000002689310     0.000016108232     0.000003600397
       2        0.000013896471    -0.000013203191     0.000004450982
       3        0.000003303837    -0.000005305828    -0.000006446049
       4        0.000636273242    -0.000860566194     0.000556894855
       5       -0.000001397813     0.000002998810     0.000005258398
       6       -0.000013503430     0.000010854128    -0.000003632539
       7       -0.000584863000     0.000820490182    -0.000278419169
       8       -0.000369426514     0.000491528653    -0.000412612062
       9       -0.000000362347     0.000018669722    -0.000001493687
      10        0.000318425592    -0.000478441022     0.000143808411
      11        0.000004025075    -0.000000421498    -0.000008404212
      12       -0.000003819378    -0.000002290349    -0.000000324310
      13        0.000000137568    -0.000000421644    -0.000002681013

  **** Optimization is complete! (in 5 steps) ****
    Final optimized geometry and variables:
    Molecular point group: c1

    Geometry (in Angstrom), charge = 0, multiplicity = 1:

    H           -2.391229052840    -0.921932916041    -0.397970944056
    O           -2.231947653141    -0.445820790263     0.396386769732
    C           -1.079292673940     0.339135189166     0.270252024362
    C            0.181148369057    -0.510800754975     0.268569021324
    H           -1.117272230621     0.954721968563    -0.624613689201
    H           -1.057846059650     1.004925039313     1.121085194536
    O            1.319893257667     0.293432763229     0.199329827284
    H            0.150591609294    -1.214021397162    -0.562038910133
    H            0.224084794151    -1.087043895517     1.183962946167
    C            1.933851038754     0.377739626972    -1.046223206340
    H            1.258849703719     0.758293500156    -1.809082215162
    H            2.766568196058     1.059820416495    -0.954967833495
    H            2.309235510898    -0.589942683940    -1.369278643524

  Mulliken Charges: (a.u.)
   Center  Symbol    Alpha    Beta     Spin     Total
       1     H     0.39460  0.39460  0.00000  0.21080
       2     O     4.20209  4.20209  0.00000 -0.40418
       3     C     2.96958  2.96958  0.00000  0.06084
       4     C     2.98119  2.98119  0.00000  0.03762
       5     H     0.47117  0.47117  0.00000  0.05766
       6     H     0.45296  0.45296  0.00000  0.09409
       7     O     4.18130  4.18130  0.00000 -0.36259
       8     H     0.47958  0.47958  0.00000  0.04084
       9     H     0.44839  0.44839  0.00000  0.10323
      10     C     3.03089  3.03089  0.00000 -0.06178
      11     H     0.47383  0.47383  0.00000  0.05234
      12     H     0.44678  0.44678  0.00000  0.10643
      13     H     0.46764  0.46764  0.00000  0.06471

   Total alpha = 21.00000, Total beta = 21.00000, Total charge = -0.00000
