  ==> Input File <==

--------------------------------------------------------------------------
set {
	reference rhf
	basis 6-31G*
}

set_num_threads( 4 )
memory 2 gb

molecule MOL {
0 1

O	 3.225979	 0.970355	 -0.599647
C	 2.701189	 0.057885	 -0.047330
C	 1.245376	 -0.013843	 0.345420
O	 3.347903	 -1.046386	 0.304773
C	 0.455112	 1.231400	 -0.050772
H	 0.838542	 -0.913825	 -0.103701
H	 1.208210	 -0.175333	 1.419774
C	 -0.998893	 1.219485	 0.433193
H	 0.482531	 1.345121	 -1.130325
H	 0.957290	 2.103070	 0.354729
C	 -1.883438	 0.145884	 -0.207175
H	 -1.431207	 2.195402	 0.224832
H	 -1.019646	 1.105716	 1.516076
C	 -2.957635	 0.730637	 -1.126503
H	 -1.257941	 -0.540256	 -0.776196
H	 -2.367321	 -0.449651	 0.563647
C	 -3.850898	 -0.332756	 -1.767915
H	 -2.480463	 1.317727	 -1.909361
H	 -3.576805	 1.425013	 -0.560668
C	 -4.918485	 0.259215	 -2.687442
H	 -3.233668	 -1.028059	 -2.332913
H	 -4.332121	 -0.917812	 -0.986944
H	 -5.535268	 -0.518776	 -3.126665
H	 -4.467721	 0.821991	 -3.500024
H	 -5.574190	 0.933533	 -2.143731
C	 4.728119	 -1.109107	 -0.004993
H	 4.882018	 -1.033965	 -1.071845
H	 5.068212	 -2.067527	 0.355250
H	 5.265056	 -0.311663	 0.488280

	symmetry c1
}
set optking {
	frozen_dihedral = ("
		15 11 8 5
	")
}

ee = optimize('scf')
oeprop('DIPOLE', 'QUADRUPOLE', 'MULLIKEN_CHARGES')
f=open( 'psi4out.xyz', 'w' )
f.write( "29  " )
f.write( str(ee) + "\n" )
f.write( MOL.save_string_xyz() )
f.close()
--------------------------------------------------------------------------

    Molecular point group: c1
  Charge       = 0
  Multiplicity = 1
  Basis Set: 6-31G*
  Basis Set:
  @DF-RHF Final Energy:  -501.03861945557628
    Total Energy =                       -501.0386194555769634
    Molecular point group: c1
  Basis Set: 6-31G*
  Basis Set:
  Basis Set: 6-31G*
  Basis Set:
  @DF-RHF Final Energy:  -501.03883721759883
    Total Energy =                       -501.0388372175981431
  Basis Set: 6-31G*
  Basis Set:
  Basis Set: 6-31G*
  Basis Set:
  @DF-RHF Final Energy:  -501.03909498173402
    Total Energy =                       -501.0390949817343653
  Basis Set: 6-31G*
  Basis Set:
  Basis Set: 6-31G*
  Basis Set:
  @DF-RHF Final Energy:  -501.03912243168259
    Total Energy =                       -501.0391224316817897
  Basis Set: 6-31G*
  Basis Set:
  Basis Set: 6-31G*
  Basis Set:
  @DF-RHF Final Energy:  -501.03915159537269
    Total Energy =                       -501.0391515953723456
  Basis Set: 6-31G*
  Basis Set:
  Basis Set: 6-31G*
  Basis Set:
  @DF-RHF Final Energy:  -501.03914876695319
    Total Energy =                       -501.0391487669530761
  Basis Set: 6-31G*
  Basis Set:
  Basis Set: 6-31G*
  Basis Set:
  @DF-RHF Final Energy:  -501.03915829213588
    Total Energy =                       -501.0391582921364488
  Basis Set: 6-31G*
  Basis Set:
  Charge       = 0
  Multiplicity = 1
  Basis Set: 6-31G*
  Basis Set:

    Orbital Energies (a.u.)
    -----------------------

    Doubly Occupied:

       1A    -20.603419     2A    -20.545224     3A    -11.372036
       4A    -11.280702     5A    -11.234743     6A    -11.219438
       7A    -11.217306     8A    -11.215805     9A    -11.215185
      10A    -11.214099    11A    -11.208500    12A     -1.469102
      13A     -1.362539    14A     -1.096954    15A     -1.066309
      16A     -1.017965    17A     -0.976610    18A     -0.927710
      19A     -0.862082    20A     -0.801925    21A     -0.788581
      22A     -0.763422    23A     -0.700240    24A     -0.682789
      25A     -0.671678    26A     -0.649796    27A     -0.627496
      28A     -0.606381    29A     -0.592966    30A     -0.575907
      31A     -0.565569    32A     -0.556955    33A     -0.532906
      34A     -0.526235    35A     -0.519056    36A     -0.510790
      37A     -0.493521    38A     -0.476946    39A     -0.473368
      40A     -0.459578    41A     -0.456371    42A     -0.454676
      43A     -0.441489    44A     -0.434640

  @DF-RHF Final Energy:  -501.03915826573825

   => Energetics <=

    Nuclear Repulsion Energy =            613.3162854476258872
    One-Electron Energy =               -1897.7728682618401308
    Two-Electron Energy =                 783.4174245484758785
    DFT Exchange-Correlation Energy =       0.0000000000000000
    Empirical Dispersion Energy =           0.0000000000000000
    PCM Polarization Energy =               0.0000000000000000
    EFP Energy =                            0.0000000000000000
    Total Energy =                       -501.0391582657383651
    Molecular point group: c1
  Basis Set: 6-31G*
  Basis Set:

  -Total Gradient:
     Atom            X                  Y                   Z
    ------   -----------------  -----------------  -----------------
       1       -0.000001209620    -0.000003948756    -0.000011098259
       2        0.000010580056     0.000032775333     0.000035661116
       3       -0.000020002785    -0.000026867927    -0.000043861422
       4       -0.000008223856    -0.000014806498    -0.000019558546
       5        0.000190547628    -0.000404041197     0.000541132563
       6        0.000001431638    -0.000002199018     0.000014318160
       7        0.000001041226     0.000014173281     0.000008967496
       8       -0.000280164878     0.000784669681    -0.000799854718
       9       -0.000006853589    -0.000004905291    -0.000017419775
      10        0.000001066129    -0.000011334111    -0.000004372762
      11        0.000199877259    -0.000903438858     0.001053988749
      12        0.000016904856     0.000013178512     0.000022220884
      13        0.000031477247     0.000026495623    -0.000014946786
      14        0.000008374710    -0.000023124541    -0.000041401070
      15       -0.000140290082     0.000529734831    -0.000725117971
      16        0.000006368810    -0.000016127995    -0.000021269208
      17       -0.000027348543     0.000003663990     0.000025380601
      18       -0.000004349612    -0.000000544987    -0.000014064119
      19        0.000015952825     0.000006343504     0.000007921855
      20        0.000010006601     0.000000743327    -0.000007133768
      21       -0.000000922112     0.000002661767     0.000006867445
      22       -0.000006816257    -0.000003926767     0.000004221887
      23        0.000005193850    -0.000000634167    -0.000004033658
      24       -0.000001420708     0.000006648175     0.000001024079
      25       -0.000001168115    -0.000006143911     0.000001494598
      26        0.000000071009     0.000000754205     0.000000154414
      27        0.000000327459    -0.000000085790     0.000000395796
      28       -0.000000317984    -0.000000000978     0.000000186525
      29       -0.000000133168     0.000000288566     0.000000195892

  **** Optimization is complete! (in 8 steps) ****
    Final optimized geometry and variables:
    Molecular point group: c1

    Geometry (in Angstrom), charge = 0, multiplicity = 1:

    O            3.031222066642     0.711584828445    -0.250706410694
    C            2.550053547792    -0.128235650845     0.439461310531
    C            1.125437794949    -0.147027047125     0.937715887702
    O            3.224219984201    -1.186435238616     0.872110190905
    C            0.307501684139     1.055116386400     0.471830688077
    H            0.685577490154    -1.086546187695     0.617790670671
    H            1.162658940332    -0.193691082055     2.022879668786
    C           -1.141937356117     1.023991194087     0.970836154158
    H            0.324295549207     1.105963802891    -0.612695875999
    H            0.792180744066     1.960239010098     0.822501475755
    C           -2.031095716662    -0.046736156825     0.297096303397
    H           -1.579195852946     2.004679897326     0.805874567905
    H           -1.138779329547     0.881766127444     2.048923298646
    C           -3.109493594704     0.551566947211    -0.610825842038
    H           -1.418407447509    -0.717743669143    -0.300363206581
    H           -2.509282312949    -0.667267704727     1.050208717327
    C           -3.970618624933    -0.503143636477    -1.306773782567
    H           -2.636094536406     1.182629428138    -1.361707476390
    H           -3.749264740228     1.207412450466    -0.022707178497
    C           -5.047068969673     0.102966334667    -2.206674003755
    H           -3.332298280122    -1.156253133024    -1.898274413914
    H           -4.441522010256    -1.135392129341    -0.556767200831
    H           -5.639527185831    -0.669586237422    -2.687054060982
    H           -4.605673207405     0.715083343862    -2.988106450824
    H           -5.724556555549     0.733284813429    -1.637533474216
    C            4.579768078525    -1.290560045122     0.476434971408
    H            4.658737694920    -1.341147947058    -0.600008105245
    H            4.947988886626    -2.201733171549     0.921585738598
    H            5.146457845160    -0.443162796230     0.834639634616

  Mulliken Charges: (a.u.)
   Center  Symbol    Alpha    Beta     Spin     Total
       1     O     4.28595  4.28595  0.00000 -0.57189
       2     C     2.60550  2.60550  0.00000  0.78900
       3     C     3.20854  3.20854  0.00000 -0.41708
       4     O     4.30732  4.30732  0.00000 -0.61465
       5     C     3.15487  3.15487  0.00000 -0.30974
       6     H     0.39904  0.39904  0.00000  0.20192
       7     H     0.40097  0.40097  0.00000  0.19806
       8     C     3.16143  3.16143  0.00000 -0.32287
       9     H     0.41183  0.41183  0.00000  0.17633
      10     H     0.41091  0.41091  0.00000  0.17819
      11     C     3.15586  3.15586  0.00000 -0.31173
      12     H     0.41512  0.41512  0.00000  0.16975
      13     H     0.42156  0.42156  0.00000  0.15687
      14     C     3.15259  3.15259  0.00000 -0.30517
      15     H     0.42280  0.42280  0.00000  0.15440
      16     H     0.42023  0.42023  0.00000  0.15955
      17     C     3.15217  3.15217  0.00000 -0.30433
      18     H     0.42280  0.42280  0.00000  0.15440
      19     H     0.42322  0.42322  0.00000  0.15355
      20     C     3.23927  3.23927  0.00000 -0.47855
      21     H     0.42316  0.42316  0.00000  0.15367
      22     H     0.42327  0.42327  0.00000  0.15346
      23     H     0.41935  0.41935  0.00000  0.16129
      24     H     0.42135  0.42135  0.00000  0.15730
      25     H     0.42175  0.42175  0.00000  0.15650
      26     C     3.09238  3.09238  0.00000 -0.18476
      27     H     0.40913  0.40913  0.00000  0.18173
      28     H     0.40849  0.40849  0.00000  0.18301
      29     H     0.40910  0.40910  0.00000  0.18180

   Total alpha = 44.00000, Total beta = 44.00000, Total charge =  0.00000
