  ==> Input File <==

--------------------------------------------------------------------------
set {
	reference rhf
	basis 6-31G*
}

set_num_threads( 4 )
memory 2 gb

molecule MOL {
0 1

H	 2.632365	 0.069098	 -0.983718
O	 1.782959	 -0.358424	 -1.033936
C	 1.050492	 0.053836	 0.000068
C	 -0.318135	 -0.576402	 0.000164
O	 1.465953	 0.826024	 0.801388
C	 -1.454360	 0.441875	 -0.000474
H	 -0.374042	 -1.230163	 -0.866135
H	 -0.374274	 -1.229227	 0.867154
C	 -2.826123	 -0.230780	 0.000056
H	 -1.357605	 1.085198	 -0.868380
H	 -1.357504	 1.086451	 0.866496
H	 -2.959731	 -0.858053	 -0.876869
H	 -3.619374	 0.509403	 -0.000080
H	 -2.959371	 -0.857318	 0.877556

	symmetry c1
}
set optking {
	frozen_dihedral = ("
		2 3 4 7
	")
}

ee = optimize('scf')
oeprop('DIPOLE', 'QUADRUPOLE', 'MULLIKEN_CHARGES')
f=open( 'psi4out.xyz', 'w' )
f.write( "14  " )
f.write( str(ee) + "\n" )
f.write( MOL.save_string_xyz() )
f.close()
--------------------------------------------------------------------------

    Molecular point group: c1
  Charge       = 0
  Multiplicity = 1
  Basis Set: 6-31G*
  Basis Set:
  @DF-RHF Final Energy:  -305.87864439923675
    Total Energy =                       -305.8786443992365776
    Molecular point group: c1
  Basis Set: 6-31G*
  Basis Set:
  Basis Set: 6-31G*
  Basis Set:
  @DF-RHF Final Energy:  -305.87911767063201
    Total Energy =                       -305.8791176706320698
  Basis Set: 6-31G*
  Basis Set:
  Basis Set: 6-31G*
  Basis Set:
  @DF-RHF Final Energy:  -305.87810280747294
    Total Energy =                       -305.8781028074727715
  Basis Set: 6-31G*
  Basis Set:
  Basis Set: 6-31G*
  Basis Set:
  @DF-RHF Final Energy:  -305.87924299700512
    Total Energy =                       -305.8792429970051217
  Basis Set: 6-31G*
  Basis Set:
  Basis Set: 6-31G*
  Basis Set:
  @DF-RHF Final Energy:  -305.87924762054826
    Total Energy =                       -305.8792476205481989
  Basis Set: 6-31G*
  Basis Set:
  Charge       = 0
  Multiplicity = 1
  Basis Set: 6-31G*
  Basis Set:

    Orbital Energies (a.u.)
    -----------------------

    Doubly Occupied:

       1A    -20.615293     2A    -20.549002     3A    -11.381210
       4A    -11.239900     5A    -11.232008     6A    -11.219382
       7A     -1.475497     8A     -1.365059     9A     -1.084448
      10A     -0.979201    11A     -0.855546    12A     -0.800894
      13A     -0.702125    14A     -0.687694    15A     -0.651821
      16A     -0.626876    17A     -0.593627    18A     -0.571053
      19A     -0.550086    20A     -0.511562    21A     -0.494939
      22A     -0.487168    23A     -0.471295    24A     -0.441321

  @DF-RHF Final Energy:  -305.87924807782463

   => Energetics <=

    Nuclear Repulsion Energy =            240.0119788267168985
    One-Electron Energy =                -892.6084406669078817
    Two-Electron Energy =                 346.7172137623665549
    DFT Exchange-Correlation Energy =       0.0000000000000000
    Empirical Dispersion Energy =           0.0000000000000000
    PCM Polarization Energy =               0.0000000000000000
    EFP Energy =                            0.0000000000000000
    Total Energy =                       -305.8792480778243998
    Molecular point group: c1
  Basis Set: 6-31G*
  Basis Set:

  -Total Gradient:
     Atom            X                  Y                   Z
    ------   -----------------  -----------------  -----------------
       1        0.000011255406     0.000002484830    -0.000002855744
       2       -0.000225831167     0.000433739370    -0.000298082377
       3        0.000291612584    -0.000677045669     0.000560786126
       4       -0.000353015073     0.000800743943    -0.000548235703
       5        0.000000389163    -0.000023830220    -0.000037246562
       6        0.000021468630     0.000042878280    -0.000046230977
       7        0.000248966170    -0.000539641126     0.000374029904
       8       -0.000007499115    -0.000024012361    -0.000030972143
       9        0.000008008052    -0.000027109972     0.000032040769
      10        0.000000881252    -0.000004850280     0.000014202408
      11       -0.000001673700     0.000014014570    -0.000020893159
      12        0.000003441188     0.000010777453    -0.000002031674
      13        0.000009365024     0.000007350133     0.000009251997
      14       -0.000007368416    -0.000015498953    -0.000003762862

  **** Optimization is complete! (in 6 steps) ****
    Final optimized geometry and variables:
    Molecular point group: c1

    Geometry (in Angstrom), charge = 0, multiplicity = 1:

    H            2.669723858321     0.098710113204    -0.878647318698
    O            1.834062419694    -0.349565036826    -0.969522798809
    C            1.057507351561     0.017324953981     0.046457323366
    C           -0.302672467659    -0.633526032549     0.017388568743
    O            1.422786403627     0.786994480183     0.875755433534
    C           -1.428363436428     0.407494936954     0.031425538038
    H           -0.377142892753    -1.284376321189    -0.844414194292
    H           -0.371451625553    -1.254072608277     0.906322204282
    C           -2.809720481470    -0.242448391203     0.073680623986
    H           -1.348518839921     1.035500761680    -0.852023923112
    H           -1.293782296964     1.055722044824     0.889522261639
    H           -2.973850806056    -0.878873624416    -0.790978713171
    H           -3.590561267877     0.510808418203     0.083215074400
    H           -2.928520881819    -0.853921752713     0.963477576849

  Mulliken Charges: (a.u.)
   Center  Symbol    Alpha    Beta     Spin     Total
       1     H     0.26829  0.26829  0.00000  0.46342
       2     O     4.34772  4.34772  0.00000 -0.69545
       3     C     2.62616  2.62616  0.00000  0.74767
       4     C     3.20562  3.20562  0.00000 -0.41125
       5     O     4.28029  4.28029  0.00000 -0.56058
       6     C     3.16160  3.16160  0.00000 -0.32319
       7     H     0.39930  0.39930  0.00000  0.20140
       8     H     0.39919  0.39919  0.00000  0.20161
       9     C     3.24180  3.24180  0.00000 -0.48359
      10     H     0.41501  0.41501  0.00000  0.16997
      11     H     0.40212  0.40212  0.00000  0.19577
      12     H     0.41961  0.41961  0.00000  0.16078
      13     H     0.41438  0.41438  0.00000  0.17123
      14     H     0.41890  0.41890  0.00000  0.16221

   Total alpha = 24.00000, Total beta = 24.00000, Total charge =  0.00000
