  ==> Input File <==

--------------------------------------------------------------------------
set {
	reference rhf
	basis 6-31G*
}

set_num_threads( 4 )
memory 2 gb

molecule MOL {
0 1

O	 3.225979	 0.970355	 -0.599647
C	 2.701189	 0.057885	 -0.047330
C	 1.245376	 -0.013843	 0.345420
O	 3.347903	 -1.046386	 0.304773
C	 0.455112	 1.231400	 -0.050772
H	 0.838542	 -0.913825	 -0.103701
H	 1.208210	 -0.175333	 1.419774
C	 -0.998893	 1.219485	 0.433193
H	 0.482531	 1.345121	 -1.130325
H	 0.957290	 2.103070	 0.354729
C	 -1.883438	 0.145884	 -0.207175
H	 -1.431207	 2.195402	 0.224832
H	 -1.019646	 1.105716	 1.516076
C	 -3.217647	 0.698203	 -0.712973
H	 -1.346430	 -0.312127	 -1.036433
H	 -2.081189	 -0.651063	 0.506086
C	 -4.112035	 -0.366774	 -1.350171
H	 -3.028396	 1.488006	 -1.437976
H	 -3.750368	 1.165831	 0.113606
C	 -5.440806	 0.193684	 -1.856092
H	 -3.580852	 -0.835774	 -2.175717
H	 -4.305894	 -1.154944	 -0.625611
H	 -6.052247	 -0.584718	 -2.302003
H	 -5.281579	 0.960844	 -2.608628
H	 -6.011843	 0.639730	 -1.046627
C	 4.728119	 -1.109107	 -0.004993
H	 4.882018	 -1.033965	 -1.071845
H	 5.068212	 -2.067527	 0.355250
H	 5.265056	 -0.311663	 0.488280

	symmetry c1
}
set optking {
	frozen_dihedral = ("
		15 11 8 5
	")
}

ee = optimize('scf')
oeprop('DIPOLE', 'QUADRUPOLE', 'MULLIKEN_CHARGES')
f=open( 'psi4out.xyz', 'w' )
f.write( "29  " )
f.write( str(ee) + "\n" )
f.write( MOL.save_string_xyz() )
f.close()
--------------------------------------------------------------------------

    Molecular point group: c1
  Charge       = 0
  Multiplicity = 1
  Basis Set: 6-31G*
  Basis Set:
  @DF-RHF Final Energy:  -501.03960906356463
    Total Energy =                       -501.0396090635650808
    Molecular point group: c1
  Basis Set: 6-31G*
  Basis Set:
  Basis Set: 6-31G*
  Basis Set:
  @DF-RHF Final Energy:  -501.03990039598375
    Total Energy =                       -501.0399003959834090
  Basis Set: 6-31G*
  Basis Set:
  Basis Set: 6-31G*
  Basis Set:
  @DF-RHF Final Energy:  -501.03990893109199
    Total Energy =                       -501.0399089310919862
  Basis Set: 6-31G*
  Basis Set:
  Basis Set: 6-31G*
  Basis Set:
  @DF-RHF Final Energy:  -501.03993985889053
    Total Energy =                       -501.0399398588905342
  Basis Set: 6-31G*
  Basis Set:
  @DF-RHF Final Energy:  -501.03995247664886
    Total Energy =                       -501.0399524766496597
  @DF-RHF Final Energy:  -501.03996700850644
    Total Energy =                       -501.0399670085065509
  Basis Set: 6-31G*
  Basis Set:
  @DF-RHF Final Energy:  -501.03997168070430
    Total Energy =                       -501.0399716807039567
  Basis Set: 6-31G*
  Basis Set:
  Basis Set: 6-31G*
  Basis Set:
  @DF-RHF Final Energy:  -501.03997372082438
    Total Energy =                       -501.0399737208247188
  Basis Set: 6-31G*
  Basis Set:
  Basis Set: 6-31G*
  Basis Set:
  @DF-RHF Final Energy:  -501.03997475906010
    Total Energy =                       -501.0399747590597599
  Basis Set: 6-31G*
  Basis Set:
  Charge       = 0
  Multiplicity = 1
  Basis Set: 6-31G*
  Basis Set:

    Orbital Energies (a.u.)
    -----------------------

    Doubly Occupied:

       1A    -20.603308     2A    -20.545099     3A    -11.371871
       4A    -11.280614     5A    -11.234539     6A    -11.219264
       7A    -11.217228     8A    -11.215972     9A    -11.215534
      10A    -11.214614    11A    -11.208833    12A     -1.468976
      13A     -1.362411    14A     -1.097076    15A     -1.066660
      16A     -1.018159    17A     -0.976841    18A     -0.928182
      19A     -0.861808    20A     -0.800795    21A     -0.790245
      22A     -0.763433    23A     -0.699828    24A     -0.682581
      25A     -0.671682    26A     -0.650197    27A     -0.628138
      28A     -0.605711    29A     -0.592436    30A     -0.578548
      31A     -0.566025    32A     -0.553595    33A     -0.532467
      34A     -0.527428    35A     -0.518455    36A     -0.511660
      37A     -0.493609    38A     -0.477287    39A     -0.472698
      40A     -0.460007    41A     -0.456279    42A     -0.456134
      43A     -0.441455    44A     -0.434493

  @DF-RHF Final Energy:  -501.03997500567539

   => Energetics <=

    Nuclear Repulsion Energy =            611.1505561533008404
    One-Electron Energy =               -1893.4367113788712231
    Two-Electron Energy =                 781.2461802198945406
    DFT Exchange-Correlation Energy =       0.0000000000000000
    Empirical Dispersion Energy =           0.0000000000000000
    PCM Polarization Energy =               0.0000000000000000
    EFP Energy =                            0.0000000000000000
    Total Energy =                       -501.0399750056758421
    Molecular point group: c1
  Basis Set: 6-31G*
  Basis Set:

  -Total Gradient:
     Atom            X                  Y                   Z
    ------   -----------------  -----------------  -----------------
       1        0.000002038761     0.000005796294     0.000001992405
       2        0.000002837924     0.000002449270     0.000006809706
       3       -0.000005813733    -0.000008544779    -0.000020332189
       4       -0.000003412054    -0.000004349658    -0.000004625527
       5       -0.000544703462     0.001471271208    -0.001620843180
       6       -0.000000032219     0.000002279439     0.000006422360
       7       -0.000000515971     0.000005024612     0.000005758600
       8        0.001041241142    -0.002574392160     0.002713274800
       9        0.000000384642    -0.000003078748     0.000001618901
      10        0.000002107403     0.000001316570     0.000000180718
      11       -0.001665454841     0.003268500028    -0.003008205364
      12       -0.000008577801     0.000000948269     0.000023557494
      13        0.000018790771    -0.000016302603    -0.000000743396
      14        0.000001242192     0.000003217281    -0.000004028832
      15        0.001164673135    -0.002159964833     0.001898337020
      16       -0.000005429271     0.000000364889     0.000001742408
      17        0.000002039727     0.000000986703    -0.000004076196
      18       -0.000003221889    -0.000000323052    -0.000000683368
      19        0.000001126717    -0.000000331651     0.000001382038
      20        0.000001110638     0.000001245466    -0.000000388656
      21       -0.000000141142    -0.000001604942    -0.000000415679
      22        0.000000722255     0.000002622487     0.000001121504
      23        0.000000820405    -0.000000328901     0.000000346347
      24       -0.000000224679     0.000000370825    -0.000000211252
      25        0.000000133443    -0.000000222560     0.000000195811
      26        0.000000569008     0.000003293586     0.000001765675
      27       -0.000000947384    -0.000000098621    -0.000000087632
      28       -0.000001776646    -0.000000127536     0.000000233014
      29        0.000000412915    -0.000000016883    -0.000000097530

  **** Optimization is complete! (in 10 steps) ****
    Final optimized geometry and variables:
    Molecular point group: c1

    Geometry (in Angstrom), charge = 0, multiplicity = 1:

    O            3.159899198527     0.766511883979    -0.313000268326
    C            2.642250655656    -0.112892735633     0.296823540238
    C            1.201219053683    -0.141843499174     0.744575489294
    O            3.284540756987    -1.212044813767     0.672043425205
    C            0.418481283914     1.105806960977     0.341754682852
    H            0.756543217080    -1.045730875990     0.339298542665
    H            1.199616581361    -0.270500701744     1.823808598014
    C           -1.041349602445     1.074604114869     0.805340066447
    H            0.456196786324     1.223481427502    -0.736662245047
    H            0.912448096025     1.977083752437     0.758874861974
    C           -1.912070119067     0.000304683508     0.117270856269
    H           -1.466924696778     2.054775662181     0.605900754153
    H           -1.079854898225     0.950848028545     1.884966764537
    C           -3.260068173765     0.530127883716    -0.374009632661
    H           -1.368989121686    -0.440422581285    -0.716384280934
    H           -2.089781370876    -0.823545725920     0.805249930113
    C           -4.135358126756    -0.543880284854    -1.021124255913
    H           -3.089359063648     1.334381180556    -1.087791439459
    H           -3.796151182721     0.975467690962     0.462717933899
    C           -5.477076569170    -0.003525558605    -1.514780549688
    H           -3.598247520739    -0.991657116489    -1.854726162391
    H           -4.310349112212    -1.344909360640    -0.305942614666
    H           -6.074891837543    -0.788317432775    -1.967887580151
    H           -5.336233888967     0.775866243821    -2.258328179776
    H           -6.053338500158     0.421012254972    -0.697505941733
    C            4.650950107892    -1.311546039732     0.314424038458
    H            4.765718923281    -1.284446691498    -0.759645080252
    H            4.989401622439    -2.259491015670     0.702806444637
    H            5.218419827013    -0.503192362513     0.752689289121

  Mulliken Charges: (a.u.)
   Center  Symbol    Alpha    Beta     Spin     Total
       1     O     4.28603  4.28603  0.00000 -0.57205
       2     C     2.60538  2.60538  0.00000  0.78925
       3     C     3.20889  3.20889  0.00000 -0.41778
       4     O     4.30734  4.30734  0.00000 -0.61467
       5     C     3.15482  3.15482  0.00000 -0.30965
       6     H     0.39860  0.39860  0.00000  0.20280
       7     H     0.40118  0.40118  0.00000  0.19763
       8     C     3.16017  3.16017  0.00000 -0.32033
       9     H     0.41191  0.41191  0.00000  0.17619
      10     H     0.41082  0.41082  0.00000  0.17836
      11     C     3.15643  3.15643  0.00000 -0.31286
      12     H     0.41600  0.41600  0.00000  0.16801
      13     H     0.42121  0.42121  0.00000  0.15759
      14     C     3.15220  3.15220  0.00000 -0.30441
      15     H     0.42214  0.42214  0.00000  0.15572
      16     H     0.42170  0.42170  0.00000  0.15660
      17     C     3.15228  3.15228  0.00000 -0.30456
      18     H     0.42279  0.42279  0.00000  0.15442
      19     H     0.42308  0.42308  0.00000  0.15385
      20     C     3.23934  3.23934  0.00000 -0.47868
      21     H     0.42293  0.42293  0.00000  0.15415
      22     H     0.42318  0.42318  0.00000  0.15363
      23     H     0.41926  0.41926  0.00000  0.16147
      24     H     0.42143  0.42143  0.00000  0.15713
      25     H     0.42175  0.42175  0.00000  0.15650
      26     C     3.09238  3.09238  0.00000 -0.18475
      27     H     0.40914  0.40914  0.00000  0.18172
      28     H     0.40852  0.40852  0.00000  0.18296
      29     H     0.40912  0.40912  0.00000  0.18176

   Total alpha = 44.00000, Total beta = 44.00000, Total charge =  0.00000
