                              Psi4 1.0.54 Driver

  ==> Input File <==

--------------------------------------------------------------------------
set {
	reference rhf
	basis cc-pvtz
}

set_num_threads( 4 )
memory 2 gb

molecule MOL {
0 1

H	 0.690566	 2.126121	 1.344077
C	 1.028649	 1.285922	 0.722301
C	 0.062554	 0.862911	 -0.350953
O	 2.084424	 0.791957	 0.918496
C	 -1.339253	 0.577611	 0.196911
H	 0.471812	 0.001708	 -0.863134
H	 0.008133	 1.682984	 -1.063408
C	 -1.813142	 -0.849710	 -0.061612
H	 -2.032833	 1.276441	 -0.256032
H	 -1.357249	 0.782269	 1.263793
H	 -1.839268	 -1.063526	 -1.124230
H	 -2.810118	 -1.001930	 0.334000
H	 -1.159274	 -1.579980	 0.402282

	symmetry c1
}
set optking {
	frozen_dihedral = ("
		6 3 5 9
	")
}

ee,wfn = optimize('scf', return_wfn=True)
oeprop( wfn, 'DIPOLE', 'QUADRUPOLE', 'MULLIKEN_CHARGES')
f=open( 'psi4out.xyz', 'w' )
f.write( "13  " )
f.write( str(ee) + "\n" )
f.write( MOL.save_string_xyz() )
f.close()
--------------------------------------------------------------------------

    Molecular point group: c1
  Charge       = 0
  Multiplicity = 1
  Basis Set: CC-PVTZ
  Basis Set:
  @DF-RHF Final Energy:  -231.06586678408857
    Total Energy =                       -231.0658667840886551
    Molecular point group: c1
  Basis Set: CC-PVTZ
  Basis Set:
  Basis Set: CC-PVTZ
  Basis Set:
  @DF-RHF Final Energy:  -231.06573979691385
    Total Energy =                       -231.0657397969138742
  Basis Set: CC-PVTZ
  Basis Set:
  Basis Set: CC-PVTZ
  Basis Set:
  @DF-RHF Final Energy:  -231.06276109391436
    Total Energy =                       -231.0627610939144461
  Basis Set: CC-PVTZ
  Basis Set:
  Basis Set: CC-PVTZ
  Basis Set:
  @DF-RHF Final Energy:  -231.06618342402686
    Total Energy =                       -231.0661834240269172
  Basis Set: CC-PVTZ
  Basis Set:
  Basis Set: CC-PVTZ
  Basis Set:
  @DF-RHF Final Energy:  -231.06621464895898
    Total Energy =                       -231.0662146489589759
  Basis Set: CC-PVTZ
  Basis Set:
  Basis Set: CC-PVTZ
  Basis Set:
  @DF-RHF Final Energy:  -231.06621674923838
    Total Energy =                       -231.0662167492382082
  Basis Set: CC-PVTZ
  Basis Set:
  Charge       = 0
  Multiplicity = 1
  Basis Set: CC-PVTZ
  Basis Set:

    Orbital Energies (a.u.)
    -----------------------

    Doubly Occupied:

       1A    -20.552249     2A    -11.322001     3A    -11.237238
       4A    -11.234485     5A    -11.220624     6A     -1.407428
       7A     -1.085001     8A     -0.976688     9A     -0.841344
      10A     -0.795598    11A     -0.672809    12A     -0.648629
      13A     -0.632379    14A     -0.586568    15A     -0.559646
      16A     -0.542870    17A     -0.502429    18A     -0.496553
      19A     -0.481414    20A     -0.413262

  @DF-RHF Final Energy:  -231.06621816850804

   => Energetics <=

    Nuclear Repulsion Energy =            171.6208934116358478
    One-Electron Energy =                -652.9557915229349874
    Two-Electron Energy =                 250.2686799427910955
    DFT Exchange-Correlation Energy =       0.0000000000000000
    Empirical Dispersion Energy =           0.0000000000000000
    PCM Polarization Energy =               0.0000000000000000
    EFP Energy =                            0.0000000000000000
    Total Energy =                       -231.0662181685080441
    Molecular point group: c1
  Basis Set: CC-PVTZ
  Basis Set:

  -Total Gradient:
     Atom            X                  Y                   Z
    ------   -----------------  -----------------  -----------------
       1        0.000002647202    -0.000011718960     0.000009120706
       2        0.000027667313     0.000014163508    -0.000022661524
       3       -0.000318564925     0.000394558716    -0.000593954270
       4        0.000006483609     0.000001561318     0.000022853007
       5       -0.000090818078    -0.000555511579    -0.000511753659
       6        0.000261049642    -0.000235562791     0.000582016559
       7       -0.000004101914    -0.000000412834    -0.000009250217
       8        0.000011600726     0.000006328352     0.000019153834
       9        0.000104119346     0.000433541780     0.000516073544
      10        0.000012321350    -0.000011030976    -0.000007541845
      11        0.000003146628     0.000001280141    -0.000021803579
      12       -0.000027791016    -0.000007171823     0.000005336958
      13        0.000012240125    -0.000030024852     0.000012410486

  **** Optimization is complete! (in 7 steps) ****
    Final optimized geometry and variables:
    Molecular point group: c1

    Geometry (in Angstrom), charge = 0, multiplicity = 1:

    H            0.724037866564     1.532899109198     1.127305766628
    C            1.040667885388     0.717702904157     0.463293766413
    C            0.069666394716     0.375508464553    -0.634345387730
    O            2.077704114042     0.178958286277     0.640385895032
    C           -1.356387016594     0.110344122912    -0.099661682165
    H            0.462810016487    -0.479901757512    -1.166396676625
    H            0.063850680487     1.216681878643    -1.321392416057
    C           -1.844262836963    -1.305583109608    -0.389451434811
    H           -2.048823598297     0.826690532369    -0.524273620828
    H           -1.383065545484     0.277716878462     0.973094335765
    H           -1.879308631474    -1.494479858123    -1.456595463126
    H           -2.839515172294    -1.462072758269     0.009542474626
    H           -1.185628230614    -2.042906526447     0.055795170732

  Mulliken Charges: (a.u.)
   Center  Symbol    Alpha    Beta     Spin     Total
       1     H     0.46557  0.46557  0.00000  0.06885
       2     C     2.90370  2.90370  0.00000  0.19260
       3     C     3.08693  3.08693  0.00000 -0.17386
       4     O     4.16494  4.16494  0.00000 -0.32987
       5     C     3.09433  3.09433  0.00000 -0.18867
       6     H     0.44304  0.44304  0.00000  0.11392
       7     H     0.44454  0.44454  0.00000  0.11091
       8     C     3.14522  3.14522  0.00000 -0.29044
       9     H     0.44698  0.44698  0.00000  0.10605
      10     H     0.45483  0.45483  0.00000  0.09034
      11     H     0.45259  0.45259  0.00000  0.09481
      12     H     0.44767  0.44767  0.00000  0.10466
      13     H     0.44965  0.44965  0.00000  0.10069

   Total alpha = 20.00000, Total beta = 20.00000, Total charge = -0.00000

*** Psi4 exiting successfully. Buy a developer a beer!
