  ==> Input File <==

--------------------------------------------------------------------------
set {
	reference rhf
	basis 6-31G*
}

set_num_threads( 4 )
memory 2 gb

molecule MOL {
0 1

H	 2.120964	 -1.060470	 0.500743
C	 1.949462	 -0.185634	 -0.138046
C	 0.692068	 0.589600	 0.160137
O	 2.728154	 0.091765	 -0.991754
C	 -0.558097	 -0.297372	 0.091132
H	 0.629138	 1.416471	 -0.537577
H	 0.786569	 1.002139	 1.163985
C	 -1.850991	 0.512573	 -0.019058
H	 -0.476753	 -0.965681	 -0.762987
H	 -0.604799	 -0.930658	 0.975228
C	 -3.096943	 -0.368295	 -0.099594
H	 -1.800724	 1.150330	 -0.898172
H	 -1.931651	 1.177355	 0.838044
H	 -3.060452	 -1.020287	 -0.967456
H	 -3.996858	 0.233488	 -0.175704
H	 -3.191959	 -0.995686	 0.782074

	symmetry c1
}
set optking {
	frozen_dihedral = ("
		6 3 5 9
	")
}

ee = optimize('scf')
oeprop('DIPOLE', 'QUADRUPOLE', 'MULLIKEN_CHARGES')
f=open( 'psi4out.xyz', 'w' )
f.write( "16  " )
f.write( str(ee) + "\n" )
f.write( MOL.save_string_xyz() )
f.close()
--------------------------------------------------------------------------

    Molecular point group: c1
  Charge       = 0
  Multiplicity = 1
  Basis Set: 6-31G*
  Basis Set:
  @DF-RHF Final Energy:  -270.01872557167769
    Total Energy =                       -270.0187255716775780
    Molecular point group: c1
  Basis Set: 6-31G*
  Basis Set:
  Basis Set: 6-31G*
  Basis Set:
  @DF-RHF Final Energy:  -270.01837456620717
    Total Energy =                       -270.0183745662072283
  Basis Set: 6-31G*
  Basis Set:
  Basis Set: 6-31G*
  Basis Set:
  @DF-RHF Final Energy:  -270.01821365636420
    Total Energy =                       -270.0182136563643667
  Basis Set: 6-31G*
  Basis Set:
  Basis Set: 6-31G*
  Basis Set:
  @DF-RHF Final Energy:  -270.01884937322018
    Total Energy =                       -270.0188493732204051
  Basis Set: 6-31G*
  Basis Set:
  @DF-RHF Final Energy:  -270.01884649617637
    Total Energy =                       -270.0188464961761383
  Basis Set: 6-31G*
  Basis Set:
  @DF-RHF Final Energy:  -270.01888840025043
    Total Energy =                       -270.0188884002503755
  Basis Set: 6-31G*
  Basis Set:
  Basis Set: 6-31G*
  Basis Set:
  @DF-RHF Final Energy:  -270.01889137479770
    Total Energy =                       -270.0188913747979313
  Basis Set: 6-31G*
  Basis Set:
  Basis Set: 6-31G*
  Basis Set:
  @DF-RHF Final Energy:  -270.01889371392804
    Total Energy =                       -270.0188937139278096
  Basis Set: 6-31G*
  Basis Set:
  Charge       = 0
  Multiplicity = 1
  Basis Set: 6-31G*
  Basis Set:

    Orbital Energies (a.u.)
    -----------------------

    Doubly Occupied:

       1A    -20.562207     2A    -11.326803     3A    -11.236616
       4A    -11.235184     5A    -11.229541     6A    -11.218488
       7A     -1.402094     8A     -1.096253     9A     -1.018917
      10A     -0.906178    11A     -0.812407    12A     -0.794317
      13A     -0.676706    14A     -0.646717    15A     -0.631105
      16A     -0.602688    17A     -0.585203    18A     -0.546535
      19A     -0.527751    20A     -0.510367    21A     -0.487615
      22A     -0.482979    23A     -0.475890    24A     -0.409522

  @DF-RHF Final Energy:  -270.01889446796815

   => Energetics <=

    Nuclear Repulsion Energy =            228.7579812464281019
    One-Electron Energy =                -818.7095877762008058
    Two-Electron Energy =                 319.9327120618042954
    DFT Exchange-Correlation Energy =       0.0000000000000000
    Empirical Dispersion Energy =           0.0000000000000000
    PCM Polarization Energy =               0.0000000000000000
    EFP Energy =                            0.0000000000000000
    Total Energy =                       -270.0188944679683800
    Molecular point group: c1
  Basis Set: 6-31G*
  Basis Set:

  -Total Gradient:
     Atom            X                  Y                   Z
    ------   -----------------  -----------------  -----------------
       1       -0.000011635895    -0.000003095594     0.000000461918
       2        0.000003438675     0.000012529708     0.000024956556
       3        0.002053204249    -0.002616286819    -0.002288578491
       4       -0.000001345631    -0.000000129876    -0.000015128853
       5       -0.002035258682     0.002987973973    -0.001582375548
       6       -0.001354452889     0.001690440811     0.002156217687
       7        0.000004812117    -0.000002750186    -0.000006984880
       8        0.000006048451    -0.000006167994    -0.000013480181
       9        0.001331839497    -0.002064155488     0.001726381788
      10        0.000003478277    -0.000001727004    -0.000009668188
      11        0.000000214736     0.000001917810     0.000010921428
      12       -0.000003480989     0.000004495370    -0.000006152209
      13        0.000001998986    -0.000004114373    -0.000000803731
      14        0.000004644019     0.000003170897     0.000002366766
      15        0.000000503177     0.000000854252    -0.000000169305
      16       -0.000004008095    -0.000002955486     0.000002035244

  **** Optimization is complete! (in 9 steps) ****
    Final optimized geometry and variables:
    Molecular point group: c1

    Geometry (in Angstrom), charge = 0, multiplicity = 1:

    H            2.087808326227    -1.162529462438     0.633172456477
    C            1.974689851561    -0.243849801058     0.045156714234
    C            0.705899647647     0.526515574736     0.296756513168
    O            2.820566369198     0.080168790547    -0.724093984287
    C           -0.546896574297    -0.358898351232     0.208081153901
    H            0.656627720357     1.361841483183    -0.392179514324
    H            0.771491634658     0.948499565708     1.299339538448
    C           -1.840303350571     0.451224290460     0.125579269354
    H           -0.469323859881    -1.024891827070    -0.649169007446
    H           -0.585248768731    -1.009491984158     1.079603617887
    C           -3.089179669864    -0.427971310639     0.086513459692
    H           -1.811779445603     1.080975193506    -0.760073423150
    H           -1.896501792832     1.124081835581     0.978509426498
    H           -3.074142879510    -1.092044794049    -0.772829732696
    H           -3.989291852819     0.174903439255     0.022785319195
    H           -3.165080492657    -1.042861338623     0.978697646818

  Mulliken Charges: (a.u.)
   Center  Symbol    Alpha    Beta     Spin     Total
       1     H     0.43180  0.43180  0.00000  0.13640
       2     C     2.82920  2.82920  0.00000  0.34161
       3     C     3.20954  3.20954  0.00000 -0.41908
       4     O     4.23797  4.23797  0.00000 -0.47593
       5     C     3.16421  3.16421  0.00000 -0.32843
       6     H     0.39923  0.39923  0.00000  0.20153
       7     H     0.40800  0.40800  0.00000  0.18400
       8     C     3.15187  3.15187  0.00000 -0.30374
       9     H     0.41468  0.41468  0.00000  0.17064
      10     H     0.41874  0.41874  0.00000  0.16253
      11     C     3.24064  3.24064  0.00000 -0.48129
      12     H     0.41762  0.41762  0.00000  0.16476
      13     H     0.42034  0.42034  0.00000  0.15931
      14     H     0.41935  0.41935  0.00000  0.16129
      15     H     0.41628  0.41628  0.00000  0.16743
      16     H     0.42052  0.42052  0.00000  0.15896

   Total alpha = 24.00000, Total beta = 24.00000, Total charge =  0.00000
