                              Psi4 1.0.54 Driver

  ==> Input File <==

--------------------------------------------------------------------------
set {
	reference rhf
	basis cc-pvtz
}

set_num_threads( 4 )
memory 2 gb

molecule MOL {
0 1

H	 -0.256515	 -1.944617	 0.634049
C	 -0.132204	 -0.932958	 1.003173
N	 0.526300	 -0.128137	 0.000000
H	 0.479920	 -0.981706	 1.894782
H	 -1.119022	 -0.560450	 1.286015
C	 -0.247113	 0.037112	 -1.209233
H	 0.759587	 0.763832	 0.378983
H	 -0.996493	 -0.743733	 -1.271440
H	 0.397975	 -0.057351	 -2.073512
H	 -0.763794	 0.997171	 -1.271673

	symmetry c1
}
set optking {
	frozen_dihedral = ("
		2 3 6 8
	")
}

ee,wfn = optimize('scf', return_wfn=True)
oeprop( wfn, 'DIPOLE', 'QUADRUPOLE', 'MULLIKEN_CHARGES')
f=open( 'psi4out.xyz', 'w' )
f.write( "10  " )
f.write( str(ee) + "\n" )
f.write( MOL.save_string_xyz() )
f.close()
--------------------------------------------------------------------------

    Molecular point group: c1
  Charge       = 0
  Multiplicity = 1
  Basis Set: CC-PVTZ
  Basis Set:
  @DF-RHF Final Energy:  -134.28858010303588
    Total Energy =                       -134.2885801030359119
    Molecular point group: c1
  Basis Set: CC-PVTZ
  Basis Set:
  Basis Set: CC-PVTZ
  Basis Set:
  @DF-RHF Final Energy:  -134.28894365940019
    Total Energy =                       -134.2889436594001040
  Basis Set: CC-PVTZ
  Basis Set:
  Basis Set: CC-PVTZ
  Basis Set:
  @DF-RHF Final Energy:  -134.28901902273833
    Total Energy =                       -134.2890190227383584
  Basis Set: CC-PVTZ
  Basis Set:
  Basis Set: CC-PVTZ
  Basis Set:
  @DF-RHF Final Energy:  -134.28902378695923
    Total Energy =                       -134.2890237869592056
  Basis Set: CC-PVTZ
  Basis Set:
  Charge       = 0
  Multiplicity = 1
  Basis Set: CC-PVTZ
  Basis Set:

    Orbital Energies (a.u.)
    -----------------------

    Doubly Occupied:

       1A    -15.528836     2A    -11.234442     3A    -11.233862
       4A     -1.196326     5A     -0.947964     6A     -0.855454
       7A     -0.661220     8A     -0.609316     9A     -0.589667
      10A     -0.543446    11A     -0.512161    12A     -0.507800
      13A     -0.357310

  @DF-RHF Final Energy:  -134.28902433016202

   => Energetics <=

    Nuclear Repulsion Energy =             84.5197344342511059
    One-Electron Energy =                -348.0619090381583192
    Two-Electron Energy =                 129.2531502737452342
    DFT Exchange-Correlation Energy =       0.0000000000000000
    Empirical Dispersion Energy =           0.0000000000000000
    PCM Polarization Energy =               0.0000000000000000
    EFP Energy =                            0.0000000000000000
    Total Energy =                       -134.2890243301619648
    Molecular point group: c1
  Basis Set: CC-PVTZ
  Basis Set:

  -Total Gradient:
     Atom            X                  Y                   Z
    ------   -----------------  -----------------  -----------------
       1       -0.000003675238    -0.000003504994     0.000007776395
       2        0.000975764720    -0.001967052937    -0.000901300880
       3       -0.001880050478     0.003229845245     0.001690802457
       4       -0.000007180737     0.000000485917    -0.000002231067
       5        0.000013484601     0.000002238042     0.000000150183
       6        0.002873158125    -0.003065839778    -0.002352783707
       7        0.000010517604     0.000021938641     0.000001261892
       8       -0.001967169683     0.001767347751     0.001501347286
       9       -0.000003974675     0.000004416952     0.000039449013
      10       -0.000010874239     0.000010125161     0.000015528427

  **** Optimization is complete! (in 5 steps) ****
    Final optimized geometry and variables:
    Molecular point group: c1

    Geometry (in Angstrom), charge = 0, multiplicity = 1:

    H           -0.264207997889    -1.611047157030     0.733429021580
    C           -0.140818778485    -0.593872935178     1.085557597017
    N            0.485921836589     0.204408683067     0.058015148903
    H            0.498377256157    -0.626411744668     1.959067198069
    H           -1.121353785061    -0.229126135268     1.399304371329
    C           -0.288656880741     0.368914824624    -1.158007616877
    H            0.771010710685     1.086041922019     0.419950471742
    H           -1.039530793990    -0.408538384247    -1.227536490938
    H            0.343900164769     0.312194790828    -2.035777797820
    H           -0.826070657049     1.315298551314    -1.191869599091

  Mulliken Charges: (a.u.)
   Center  Symbol    Alpha    Beta     Spin     Total
       1     H     0.45679  0.45679  0.00000  0.08643
       2     C     3.08101  3.08101  0.00000 -0.16201
       3     N     3.63531  3.63531  0.00000 -0.27062
       4     H     0.45316  0.45316  0.00000  0.09368
       5     H     0.47504  0.47504  0.00000  0.04992
       6     C     3.07927  3.07927  0.00000 -0.15854
       7     H     0.43881  0.43881  0.00000  0.12238
       8     H     0.46043  0.46043  0.00000  0.07913
       9     H     0.45429  0.45429  0.00000  0.09143
      10     H     0.46590  0.46590  0.00000  0.06820

   Total alpha = 13.00000, Total beta = 13.00000, Total charge = -0.00000

*** Psi4 exiting successfully. Buy a developer a beer!
