  ==> Input File <==

--------------------------------------------------------------------------
set {
	reference rhf
	basis cc-pvtz
}

set_num_threads( 4 )
memory 2 gb

molecule MOL {
0 1

H	 2.162049	 1.079617	 1.082957
O	 1.294588	 0.707145	 1.133063
C	 1.050374	 0.054877	 0.000135
C	 -0.318151	 -0.570512	 0.000144
O	 1.841734	 -0.001962	 -0.876499
C	 -1.454884	 0.441630	 -0.000560
H	 -0.371613	 -1.223646	 -0.864985
H	 -0.371920	 -1.222758	 0.865929
C	 -2.822577	 -0.232186	 0.000063
H	 -1.359760	 1.084704	 -0.867077
H	 -1.359641	 1.085996	 0.864983
H	 -2.954352	 -0.858985	 -0.875745
H	 -3.615886	 0.505352	 0.000019
H	 -2.953878	 -0.858359	 0.876394

	symmetry c1
}
set optking {
	frozen_dihedral = ("
		2 3 4 7
	")
}

ee = optimize('scf')
oeprop('DIPOLE', 'QUADRUPOLE', 'MULLIKEN_CHARGES')
f=open( 'psi4out.xyz', 'w' )
f.write( "14  " )
f.write( str(ee) + "\n" )
f.write( MOL.save_string_xyz() )
f.close()
--------------------------------------------------------------------------

    Molecular point group: c1
  Charge       = 0
  Multiplicity = 1
  Basis Set: CC-PVTZ
  Basis Set:
  @DF-RHF Final Energy:  -305.99934062289879
    Total Energy =                       -305.9993406228986714
    Molecular point group: c1
  Basis Set: CC-PVTZ
  Basis Set:
  Basis Set: CC-PVTZ
  Basis Set:
  @DF-RHF Final Energy:  -305.99966267984371
    Total Energy =                       -305.9996626798434249
  Basis Set: CC-PVTZ
  Basis Set:
  Basis Set: CC-PVTZ
  Basis Set:
  @DF-RHF Final Energy:  -305.99966433711216
    Total Energy =                       -305.9996643371123355
  Basis Set: CC-PVTZ
  Basis Set:
  Basis Set: CC-PVTZ
  Basis Set:
  @DF-RHF Final Energy:  -305.99973398783743
    Total Energy =                       -305.9997339878378853
  Basis Set: CC-PVTZ
  Basis Set:
  Basis Set: CC-PVTZ
  Basis Set:
  @DF-RHF Final Energy:  -305.99973736978552
    Total Energy =                       -305.9997373697858052
  Basis Set: CC-PVTZ
  Basis Set:
  Charge       = 0
  Multiplicity = 1
  Basis Set: CC-PVTZ
  Basis Set:

    Orbital Energies (a.u.)
    -----------------------

    Doubly Occupied:

       1A    -20.604820     2A    -20.539547     3A    -11.372731
       4A    -11.238383     5A    -11.233542     6A    -11.219336
       7A     -1.477445     8A     -1.368260     9A     -1.087827
      10A     -0.980875    11A     -0.851327    12A     -0.814069
      13A     -0.705771    14A     -0.688282    15A     -0.647788
      16A     -0.635130    17A     -0.596196    18A     -0.567258
      19A     -0.554195    20A     -0.520774    21A     -0.501269
      22A     -0.489315    23A     -0.477326    24A     -0.440948

  @DF-RHF Final Energy:  -305.99973757696421

   => Energetics <=

    Nuclear Repulsion Energy =            240.9403223493467578
    One-Electron Energy =                -894.6552944241152545
    Two-Electron Energy =                 347.7152344978044312
    DFT Exchange-Correlation Energy =       0.0000000000000000
    Empirical Dispersion Energy =           0.0000000000000000
    PCM Polarization Energy =               0.0000000000000000
    EFP Energy =                            0.0000000000000000
    Total Energy =                       -305.9997375769640939
    Molecular point group: c1
  Basis Set: CC-PVTZ
  Basis Set:

  -Total Gradient:
     Atom            X                  Y                   Z
    ------   -----------------  -----------------  -----------------
       1        0.000001147941     0.000006744638    -0.000000333711
       2       -0.000071215628     0.000134775654    -0.000051525926
       3        0.000060664616    -0.000136758271     0.000079143992
       4        0.000076776181    -0.000135946613     0.000110483842
       5       -0.000000797784    -0.000017074595    -0.000012120857
       6        0.000019267264    -0.000010533328    -0.000007720370
       7       -0.000075269306     0.000125966681    -0.000128182818
       8        0.000002673428     0.000006750301    -0.000012115958
       9        0.000000999326     0.000012178930     0.000008920699
      10       -0.000010460661    -0.000014395456     0.000012282449
      11       -0.000018702943     0.000016070382     0.000003475169
      12        0.000012629221     0.000008210071    -0.000001123292
      13       -0.000007768966     0.000001953575     0.000003159404
      14        0.000010057310     0.000002058032    -0.000004342627

  **** Optimization is complete! (in 6 steps) ****
    Final optimized geometry and variables:
    Molecular point group: c1

    Geometry (in Angstrom), charge = 0, multiplicity = 1:

    H            2.207690632352     1.008109860425     1.004248907849
    O            1.352115133438     0.612970155340     1.079314032907
    C            1.083249047418    -0.026560307787    -0.055751848462
    C           -0.274156341128    -0.673746685697    -0.043798719182
    O            1.847909315566    -0.053624465919    -0.957692467909
    C           -1.410798782022     0.354372188687    -0.047816420007
    H           -0.333237997656    -1.308699765627    -0.915822599513
    H           -0.346066330012    -1.294472190829     0.842229466090
    C           -2.781799718461    -0.311350902377    -0.067115028999
    H           -1.306248486345     0.995738007695    -0.916911753016
    H           -1.323415154504     0.990137154798     0.824714273017
    H           -2.903357447269    -0.933988108986    -0.946613601021
    H           -3.570967347448     0.430735463983    -0.074507597830
    H           -2.924284233587    -0.938594108160     0.806241037289

  Mulliken Charges: (a.u.)
   Center  Symbol    Alpha    Beta     Spin     Total
       1     H     0.38049  0.38049  0.00000  0.23902
       2     O     4.16410  4.16410  0.00000 -0.32819
       3     C     2.80648  2.80648  0.00000  0.38704
       4     C     3.08687  3.08687  0.00000 -0.17374
       5     O     4.19457  4.19457  0.00000 -0.38914
       6     C     3.09396  3.09396  0.00000 -0.18792
       7     H     0.43673  0.43673  0.00000  0.12654
       8     H     0.44480  0.44480  0.00000  0.11040
       9     C     3.14974  3.14974  0.00000 -0.29947
      10     H     0.44686  0.44686  0.00000  0.10628
      11     H     0.44315  0.44315  0.00000  0.11370
      12     H     0.45270  0.45270  0.00000  0.09459
      13     H     0.44567  0.44567  0.00000  0.10866
      14     H     0.45389  0.45389  0.00000  0.09223

   Total alpha = 24.00000, Total beta = 24.00000, Total charge = -0.00000
