  ==> Input File <==

--------------------------------------------------------------------------
set {
	reference rhf
	basis 6-31G*
}

set_num_threads( 4 )
memory 2 gb

molecule MOL {
0 1

H	 -1.999832	 0.069849	 -0.727879
C	 -1.138537	 -0.484033	 -0.414394
C	 -1.131025	 -1.867295	 -0.411660
C	 0.000000	 0.183220	 0.000000
H	 -2.005206	 -2.404452	 -0.729835
C	 0.000000	 -2.555744	 0.000000
N	 0.000000	 1.642018	 0.000000
C	 1.138537	 -0.484034	 0.414394
H	 0.000000	 -3.630640	 0.000000
C	 1.131025	 -1.867295	 0.411660
O	 1.057097	 2.196749	 0.000000
O	 -1.057097	 2.196749	 0.000000
H	 1.999832	 0.069849	 0.727879
H	 2.005206	 -2.404452	 0.729835

	symmetry c1
}
set optking {
	frozen_dihedral = ("
		2 4 7 11
	")
}

ee = optimize('scf')
oeprop('DIPOLE', 'QUADRUPOLE', 'MULLIKEN_CHARGES')
f=open( 'psi4out.xyz', 'w' )
f.write( "14  " )
f.write( str(ee) + "\n" )
f.write( MOL.save_string_xyz() )
f.close()
--------------------------------------------------------------------------

    Molecular point group: c1
  Charge       = 0
  Multiplicity = 1
  Basis Set: 6-31G*
  Basis Set:
  @DF-RHF Final Energy:  -434.17353307763000
    Total Energy =                       -434.1735330776295996
    Molecular point group: c1
  Basis Set: 6-31G*
  Basis Set:
  Basis Set: 6-31G*
  Basis Set:
  @DF-RHF Final Energy:  -434.16914869830845
    Total Energy =                       -434.1691486983081631
  Basis Set: 6-31G*
  Basis Set:
  Basis Set: 6-31G*
  Basis Set:
  @DF-RHF Final Energy:  -434.17353452141458
    Total Energy =                       -434.1735345214149220
  Basis Set: 6-31G*
  Basis Set:
  Basis Set: 6-31G*
  Basis Set:
  @DF-RHF Final Energy:  -434.17361148355172
    Total Energy =                       -434.1736114835514400
  Basis Set: 6-31G*
  Basis Set:
  Basis Set: 6-31G*
  Basis Set:
  @DF-RHF Final Energy:  -434.17361166151460
    Total Energy =                       -434.1736116615145420
  Basis Set: 6-31G*
  Basis Set:
  Charge       = 0
  Multiplicity = 1
  Basis Set: 6-31G*
  Basis Set:

    Orbital Energies (a.u.)
    -----------------------

    Doubly Occupied:

       1A    -20.601550     2A    -20.601431     3A    -15.855562
       4A    -11.304092     5A    -11.270962     6A    -11.270887
       7A    -11.267890     8A    -11.261373     9A    -11.261252
      10A     -1.634406    11A     -1.417806    12A     -1.201641
      13A     -1.094662    14A     -1.052798    15A     -0.957978
      16A     -0.865369    17A     -0.825248    18A     -0.783827
      19A     -0.733399    20A     -0.728767    21A     -0.709769
      22A     -0.654015    23A     -0.650040    24A     -0.624496
      25A     -0.553821    26A     -0.536850    27A     -0.529755
      28A     -0.488726    29A     -0.487911    30A     -0.451137
      31A     -0.373295    32A     -0.365749

  @DF-RHF Final Energy:  -434.17361189783128

   => Energetics <=

    Nuclear Repulsion Energy =            417.1661861344168756
    One-Electron Energy =               -1417.8466705373257355
    Two-Electron Energy =                 566.5068725050780358
    DFT Exchange-Correlation Energy =       0.0000000000000000
    Empirical Dispersion Energy =           0.0000000000000000
    PCM Polarization Energy =               0.0000000000000000
    EFP Energy =                            0.0000000000000000
    Total Energy =                       -434.1736118978308241
    Molecular point group: c1
  Basis Set: 6-31G*
  Basis Set:

  -Total Gradient:
     Atom            X                  Y                   Z
    ------   -----------------  -----------------  -----------------
       1        0.000001881063    -0.000001724052     0.000000214276
       2        0.000652267840    -0.000029466562    -0.001762879548
       3       -0.000006254810     0.000008355285     0.000002235398
       4       -0.000938719694     0.000024408353     0.001753068165
       5        0.000000301252    -0.000000569988    -0.000000292568
       6        0.000009647362     0.000000111697     0.000005831437
       7        0.000265495140     0.000024389749     0.002145991628
       8       -0.000007727380     0.000009393193     0.000002279912
       9       -0.000000721444     0.000000318858    -0.000000139208
      10       -0.000002804140    -0.000009514650    -0.000010518959
      11        0.000026765722    -0.000026008847    -0.002141433639
      12       -0.000001068528    -0.000000271471     0.000004924744
      13        0.000000524112    -0.000000675151    -0.000000085729
      14        0.000000413501     0.000001253578     0.000000804090

  **** Optimization is complete! (in 6 steps) ****
    Final optimized geometry and variables:
    Molecular point group: c1

    Geometry (in Angstrom), charge = 0, multiplicity = 1:

    H           -2.005426543649     0.072986766073    -0.709400318544
    C           -1.141783989880    -0.482016060790    -0.403151781553
    C           -1.130166544127    -1.865423286824    -0.412806620250
    C           -0.004726991146     0.183294850616     0.016066834022
    H           -2.001091041892    -2.402296946459    -0.740138289021
    C            0.000930120653    -2.553963193427    -0.001368536193
    N            0.000028757652     1.640748619663     0.001802190053
    C            1.139045922427    -0.482624465318     0.415989587274
    H            0.002631915248    -3.628855833193    -0.006735491426
    C            1.130997007025    -1.865926088801     0.414261037581
    O            1.059764760192     2.190475710593     0.006791341599
    O           -1.055847026920     2.197092513515    -0.029790218287
    H            2.003996650835     0.071969539425     0.719331216247
    H            2.005234387620    -2.403342162129     0.731726320229

  Mulliken Charges: (a.u.)
   Center  Symbol    Alpha    Beta     Spin     Total
       1     H     0.36570  0.36570  0.00000  0.26859
       2     C     3.08542  3.08542  0.00000 -0.17084
       3     C     3.10824  3.10824  0.00000 -0.21649
       4     C     2.91873  2.91873  0.00000  0.16253
       5     H     0.38848  0.38848  0.00000  0.22304
       6     C     3.08659  3.08659  0.00000 -0.17317
       7     N     3.24547  3.24547  0.00000  0.50906
       8     C     3.08491  3.08491  0.00000 -0.16981
       9     H     0.38899  0.38899  0.00000  0.22203
      10     C     3.10837  3.10837  0.00000 -0.21674
      11     O     4.23242  4.23242  0.00000 -0.46484
      12     O     4.23228  4.23228  0.00000 -0.46457
      13     H     0.36593  0.36593  0.00000  0.26815
      14     H     0.38847  0.38847  0.00000  0.22306

   Total alpha = 32.00000, Total beta = 32.00000, Total charge = -0.00000
