  ==> Input File <==

--------------------------------------------------------------------------
set {
	reference rhf
	basis 6-31G*
}

set_num_threads( 4 )
memory 2 gb

molecule MOL {
0 1

H	 -2.646374	 -0.642757	 1.268656
C	 -2.083525	 -0.384536	 0.393091
O	 -0.807605	 -0.127164	 0.768327
F	 -2.118945	 -1.383102	 -0.486752
F	 -2.621877	 0.670592	 -0.209486
C	 0.137144	 0.037049	 -0.228252
C	 1.349245	 -0.796804	 0.166285
Cl	 0.582694	 1.742599	 -0.400876
H	 -0.213273	 -0.307290	 -1.185546
F	 2.291141	 -0.699589	 -0.747784
F	 0.986259	 -2.061387	 0.246967
F	 1.844866	 -0.432484	 1.323698

	symmetry c1
}
set optking {
	frozen_dihedral = ("
		6 3 2 4
	")
}

ee = optimize('scf')
oeprop('DIPOLE', 'QUADRUPOLE', 'MULLIKEN_CHARGES')
f=open( 'psi4out.xyz', 'w' )
f.write( "12  " )
f.write( str(ee) + "\n" )
f.write( MOL.save_string_xyz() )
f.close()
--------------------------------------------------------------------------

    Molecular point group: c1
  Charge       = 0
  Multiplicity = 1
  Basis Set: 6-31G*
  Basis Set:
  @DF-RHF Final Energy: -1146.31383508081763
    Total Energy =                      -1146.3138350808180803
    Molecular point group: c1
  Basis Set: 6-31G*
  Basis Set:
  Basis Set: 6-31G*
  Basis Set:
  @DF-RHF Final Energy: -1146.31386124433993
    Total Energy =                      -1146.3138612443394777
  Basis Set: 6-31G*
  Basis Set:
  Basis Set: 6-31G*
  Basis Set:
  @DF-RHF Final Energy: -1146.31388049134966
    Total Energy =                      -1146.3138804913498916
  Basis Set: 6-31G*
  Basis Set:
  Charge       = 0
  Multiplicity = 1
  Basis Set: 6-31G*
  Basis Set:

    Orbital Energies (a.u.)
    -----------------------

    Doubly Occupied:

       1A   -104.843331     2A    -26.360207     3A    -26.358862
       4A    -26.357750     5A    -26.349133     6A    -26.343008
       7A    -20.649571     8A    -11.527596     9A    -11.489956
      10A    -11.400400    11A    -10.578049    12A     -8.047408
      13A     -8.043867    14A     -8.043775    15A     -1.761244
      16A     -1.717785    17A     -1.657769    18A     -1.656288
      19A     -1.638056    20A     -1.485682    21A     -1.179620
      22A     -1.052088    23A     -0.986872    24A     -0.919436
      25A     -0.860208    26A     -0.852612    27A     -0.845735
      28A     -0.822639    29A     -0.811488    30A     -0.790579
      31A     -0.727608    32A     -0.726443    33A     -0.706741
      34A     -0.700683    35A     -0.678603    36A     -0.675225
      37A     -0.658293    38A     -0.656997    39A     -0.643926
      40A     -0.634732    41A     -0.597841    42A     -0.580363
      43A     -0.524140    44A     -0.476098    45A     -0.468362

  @DF-RHF Final Energy: -1146.31388013283322

   => Energetics <=

    Nuclear Repulsion Energy =            737.1274499642495357
    One-Electron Energy =               -3057.1085264650491808
    Two-Electron Energy =                1173.6671963679677901
    DFT Exchange-Correlation Energy =       0.0000000000000000
    Empirical Dispersion Energy =           0.0000000000000000
    PCM Polarization Energy =               0.0000000000000000
    EFP Energy =                            0.0000000000000000
    Total Energy =                      -1146.3138801328318550
    Molecular point group: c1
  Basis Set: 6-31G*
  Basis Set:

  -Total Gradient:
     Atom            X                  Y                   Z
    ------   -----------------  -----------------  -----------------
       1        0.000005338146     0.000002632565    -0.000011277543
       2        0.000014953193    -0.002830804866     0.002052391398
       3       -0.000545350672     0.003419456134    -0.000559563823
       4        0.000150924434     0.001364444950    -0.001499618687
       5       -0.000070116558     0.000015068047    -0.000021147940
       6        0.000511618990    -0.001987397028     0.000018647387
       7        0.000005121882     0.000057085790    -0.000078191180
       8       -0.000027072493     0.000021735167     0.000045940606
       9       -0.000012759052    -0.000012351909     0.000028659208
      10        0.000042753242    -0.000078858678    -0.000013819998
      11       -0.000041439374     0.000020609999     0.000067964381
      12       -0.000033971804     0.000008379795    -0.000029983832

  **** Optimization is complete! (in 4 steps) ****
    Final optimized geometry and variables:
    Molecular point group: c1

    Geometry (in Angstrom), charge = 0, multiplicity = 1:

    H           -2.667810525290    -0.480116390910     1.248194344159
    C           -2.112057840575    -0.224515044166     0.367443182605
    O           -0.831497179204     0.028513155648     0.731686090672
    F           -2.164370043570    -1.218133237503    -0.517889996627
    F           -2.650954810403     0.834806424018    -0.226462318250
    C            0.117075634399     0.199021876358    -0.259481743841
    C            1.328677466402    -0.632553920602     0.141268331845
    CL           0.559416895307     1.906709916805    -0.426452335376
    H           -0.226677503476    -0.143888297381    -1.218883718180
    F            2.272976241607    -0.539114406442    -0.770343564040
    F            0.965720898658    -1.897228720614     0.225675116966
    F            1.821403745714    -0.265119364186     1.298968709205

  Mulliken Charges: (a.u.)
   Center  Symbol    Alpha    Beta     Spin     Total
       1     H     0.40155  0.40155  0.00000  0.19690
       2     C     2.56381  2.56381  0.00000  0.87238
       3     O     4.30001  4.30001  0.00000 -0.60001
       4     F     4.68676  4.68676  0.00000 -0.37351
       5     F     4.68337  4.68337  0.00000 -0.36674
       6     C     3.04724  3.04724  0.00000 -0.09448
       7     C     2.43341  2.43341  0.00000  1.13318
       8    CL     8.49927  8.49927  0.00000  0.00147
       9     H     0.36580  0.36580  0.00000  0.26841
      10     F     4.67384  4.67384  0.00000 -0.34769
      11     F     4.67645  4.67645  0.00000 -0.35290
      12     F     4.66850  4.66850  0.00000 -0.33700

   Total alpha = 45.00000, Total beta = 45.00000, Total charge = -0.00000
