  ==> Input File <==

--------------------------------------------------------------------------
set {
	reference rhf
	basis cc-pvtz
}

set_num_threads( 4 )
memory 2 gb

molecule MOL {
0 1

H	 -2.454000	 -1.770000	 0.000000
C	 -1.677000	 -1.032000	 0.000000
C	 -1.971000	 0.372000	 0.000000
C	 -0.388000	 -1.396000	 0.000000
H	 -2.996000	 0.697000	 0.000000
C	 -0.981000	 1.276000	 -0.000000
H	 -0.084000	 -2.425000	 0.000000
N	 0.637000	 -0.492000	 -0.000000
H	 -1.163000	 2.334000	 -0.000000
C	 0.421000	 0.880000	 -0.000000
C	 2.007000	 -0.992000	 0.000000
O	 1.340000	 1.661000	 0.000000
H	 2.185000	 -1.595000	 -0.882000
H	 2.675000	 -0.149000	 -0.002000
H	 2.186000	 -1.592000	 0.884000

	symmetry c1
}
ee = optimize('scf')
oeprop('DIPOLE', 'QUADRUPOLE', 'MULLIKEN_CHARGES')
f=open( 'psi4out.xyz', 'w' )
f.write( "15  " )
f.write( str(ee) + "\n" )
f.write( MOL.save_string_xyz() )
f.close()
--------------------------------------------------------------------------

    Molecular point group: c1
  Charge       = 0
  Multiplicity = 1
  Basis Set: CC-PVTZ
  Basis Set:
  @DF-RHF Final Energy:  -360.72236072277065
    Total Energy =                       -360.7223607227704747
    Molecular point group: c1
  Basis Set: CC-PVTZ
  Basis Set:
  Basis Set: CC-PVTZ
  Basis Set:
  @DF-RHF Final Energy:  -360.72252651861578
    Total Energy =                       -360.7225265186156093
  Basis Set: CC-PVTZ
  Basis Set:
  Charge       = 0
  Multiplicity = 1
  Basis Set: CC-PVTZ
  Basis Set:

    Orbital Energies (a.u.)
    -----------------------

    Doubly Occupied:

       1A    -20.501715     2A    -15.616412     3A    -11.339680
       4A    -11.293160     5A    -11.263341     6A    -11.258238
       7A    -11.230779     8A    -11.228401     9A     -1.390413
      10A     -1.285765    11A     -1.118842    12A     -1.028880
      13A     -0.972303    14A     -0.875744    15A     -0.838570
      16A     -0.719111    17A     -0.703202    18A     -0.663336
      19A     -0.652670    20A     -0.625126    21A     -0.611931
      22A     -0.573887    23A     -0.558536    24A     -0.550463
      25A     -0.529240    26A     -0.482650    27A     -0.420006
      28A     -0.410901    29A     -0.311075

  @DF-RHF Final Energy:  -360.72253141344356

   => Energetics <=

    Nuclear Repulsion Energy =            358.4346570920487238
    One-Electron Energy =               -1200.2056280528904608
    Two-Electron Energy =                 481.0484395473980612
    DFT Exchange-Correlation Energy =       0.0000000000000000
    Empirical Dispersion Energy =           0.0000000000000000
    PCM Polarization Energy =               0.0000000000000000
    EFP Energy =                            0.0000000000000000
    Total Energy =                       -360.7225314134436758
    Molecular point group: c1
  Basis Set: CC-PVTZ
  Basis Set:

  -Total Gradient:
     Atom            X                  Y                   Z
    ------   -----------------  -----------------  -----------------
       1       -0.000005782306     0.000020495924    -0.000000334918
       2       -0.000036334012     0.000087495023     0.000000146522
       3       -0.000020262934    -0.000172817935    -0.000001089110
       4       -0.000009446862     0.000004447595     0.000000577386
       5        0.000002727837    -0.000012789507     0.000001084234
       6        0.000231555734     0.000082687347    -0.000008335067
       7        0.000006563511     0.000015467079    -0.000000276174
       8       -0.000043070488     0.000014484229    -0.000001915029
       9       -0.000015831641    -0.000054427656     0.000000217620
      10       -0.000310289522    -0.000133149530     0.000024071022
      11        0.000094507890     0.000007461106    -0.000000621592
      12        0.000167538079     0.000146319193    -0.000010962174
      13       -0.000017477848     0.000011069491     0.000014636736
      14       -0.000021454150    -0.000028462990     0.000001115818
      15       -0.000022943290     0.000011720635    -0.000018315274

  **** Optimization is complete! (in 3 steps) ****
    Final optimized geometry and variables:
    Molecular point group: c1

    Geometry (in Angstrom), charge = 0, multiplicity = 1:

    H           -2.440698482374    -1.809173521952    -0.000050212550
    C           -1.667442337109    -1.070248589993    -0.000031657378
    C           -1.963124809164     0.330367112232    -0.000023479859
    C           -0.381684249711    -1.430608515108    -0.000079863156
    H           -2.987307194312     0.653178689485    -0.000034916917
    C           -0.977436480073     1.233137145868    -0.000008791737
    H           -0.081177667866    -2.459606653161    -0.000131294778
    N            0.640203975153    -0.530428148145    -0.000115033710
    H           -1.161184063323     2.287745182519     0.000005672667
    C            0.423274851027     0.836602220635     0.000085456446
    C            2.006990913331    -1.033006932417    -0.000020441306
    O            1.336089475722     1.616993961403     0.000175290419
    H            2.182443511214    -1.636913783101    -0.880880674486
    H            2.678768685532    -0.195441891238    -0.002235956309
    H            2.183827994466    -1.633244109824     0.883081698998

  Mulliken Charges: (a.u.)
   Center  Symbol    Alpha    Beta     Spin     Total
       1     H     0.41415  0.41415  0.00000  0.17170
       2     C     3.10188  3.10188  0.00000 -0.20375
       3     C     3.06196  3.06196  0.00000 -0.12392
       4     C     3.03304  3.03304  0.00000 -0.06608
       5     H     0.41833  0.41833  0.00000  0.16334
       6     C     3.11587  3.11587  0.00000 -0.23174
       7     H     0.42020  0.42020  0.00000  0.15960
       8     N     3.51282  3.51282  0.00000 -0.02563
       9     H     0.40884  0.40884  0.00000  0.18232
      10     C     2.84560  2.84560  0.00000  0.30879
      11     C     3.11045  3.11045  0.00000 -0.22090
      12     O     4.23674  4.23674  0.00000 -0.47348
      13     H     0.44984  0.44984  0.00000  0.10033
      14     H     0.42050  0.42050  0.00000  0.15899
      15     H     0.44978  0.44978  0.00000  0.10044

   Total alpha = 29.00000, Total beta = 29.00000, Total charge = -0.00000
