  ==> Input File <==

--------------------------------------------------------------------------
set {
	reference rhf
	basis cc-pvtz
}

set_num_threads( 4 )
memory 2 gb

molecule MOL {
0 1

H	 3.078425	 -1.344495	 0.391983
O	 2.173507	 -1.597788	 0.411770
C	 1.364203	 -0.540413	 0.205732
C	 1.856132	 0.738928	 -0.003970
C	 0.002482	 -0.763422	 0.207949
H	 2.917201	 0.910860	 -0.005377
C	 0.986754	 1.790790	 -0.210664
H	 -0.380557	 -1.750329	 0.369621
C	 -0.861704	 0.296439	 0.000000
H	 1.378805	 2.776255	 -0.371842
C	 -0.376824	 1.576139	 -0.209954
C	 -2.330689	 0.069587	 0.000000
H	 -1.055306	 2.392108	 -0.370404
O	 -2.848621	 -0.993976	 0.000000
H	 -2.934306	 0.982410	 0.000000

	symmetry c1
}
set optking {
	frozen_dihedral = ("
		11 9 12 14
	")
}

ee = optimize('scf')
oeprop('DIPOLE', 'QUADRUPOLE', 'MULLIKEN_CHARGES')
f=open( 'psi4out.xyz', 'w' )
f.write( "15  " )
f.write( str(ee) + "\n" )
f.write( MOL.save_string_xyz() )
f.close()
--------------------------------------------------------------------------

    Molecular point group: c1
  Charge       = 0
  Multiplicity = 1
  Basis Set: CC-PVTZ
  Basis Set:
  @DF-RHF Final Energy:  -418.43857645404080
    Total Energy =                       -418.4385764540406853
    Molecular point group: c1
  Basis Set: CC-PVTZ
  Basis Set:
  Basis Set: CC-PVTZ
  Basis Set:
  @DF-RHF Final Energy:  -418.43818456628577
    Total Energy =                       -418.4381845662854857
  Basis Set: CC-PVTZ
  Basis Set:
  Basis Set: CC-PVTZ
  Basis Set:
  @DF-RHF Final Energy:  -418.43861056957263
    Total Energy =                       -418.4386105695725746
  Basis Set: CC-PVTZ
  Basis Set:
  Basis Set: CC-PVTZ
  Basis Set:
  @DF-RHF Final Energy:  -418.43862946614223
    Total Energy =                       -418.4386294661426291
  Basis Set: CC-PVTZ
  Basis Set:
  Charge       = 0
  Multiplicity = 1
  Basis Set: CC-PVTZ
  Basis Set:

    Orbital Energies (a.u.)
    -----------------------

    Doubly Occupied:

       1A    -20.595782     2A    -20.554600     3A    -11.327569
       4A    -11.311851     5A    -11.251046     6A    -11.250795
       7A    -11.247545     8A    -11.243052     9A    -11.237285
      10A     -1.427550    11A     -1.410325    12A     -1.174266
      13A     -1.052085    14A     -1.030914    15A     -0.902749
      16A     -0.850170    17A     -0.817044    18A     -0.740346
      19A     -0.706272    20A     -0.689923    21A     -0.644805
      22A     -0.640722    23A     -0.614693    24A     -0.608724
      25A     -0.580034    26A     -0.556350    27A     -0.545833
      28A     -0.516426    29A     -0.492793    30A     -0.426852
      31A     -0.358325    32A     -0.330796

  @DF-RHF Final Energy:  -418.43862961178672

   => Energetics <=

    Nuclear Repulsion Energy =            404.1035048730990411
    One-Electron Energy =               -1370.8092239618354142
    Two-Electron Energy =                 548.2670894769501047
    DFT Exchange-Correlation Energy =       0.0000000000000000
    Empirical Dispersion Energy =           0.0000000000000000
    PCM Polarization Energy =               0.0000000000000000
    EFP Energy =                            0.0000000000000000
    Total Energy =                       -418.4386296117862685
    Molecular point group: c1
  Basis Set: CC-PVTZ
  Basis Set:

  -Total Gradient:
     Atom            X                  Y                   Z
    ------   -----------------  -----------------  -----------------
       1       -0.000000714749     0.000001523315     0.000012445374
       2       -0.000001847852    -0.000008460616    -0.000003004827
       3        0.000041075337     0.000038265422    -0.000036639124
       4        0.000008648776    -0.000044183288     0.000063349744
       5       -0.000046946913     0.000012833934    -0.000021767760
       6       -0.000001768789     0.000002872776    -0.000006379616
       7       -0.000052545339     0.000007694912    -0.000053658398
       8        0.000002779286     0.000001824764     0.000011624680
       9       -0.000072924372     0.000304795539     0.001207440242
      10        0.000002627458     0.000000525669     0.000009266125
      11        0.000098547076    -0.000217808522    -0.001360169168
      12       -0.000001762973    -0.000070747274     0.001897380086
      13       -0.000001844771    -0.000001805204     0.000004337466
      14        0.000024908924    -0.000026473984    -0.001728143252
      15        0.000001768909    -0.000000857448     0.000003918427

  **** Optimization is complete! (in 5 steps) ****
    Final optimized geometry and variables:
    Molecular point group: c1

    Geometry (in Angstrom), charge = 0, multiplicity = 1:

    H            3.079043308258    -1.349725626574     0.329064421385
    O            2.174025238989    -1.602533603896     0.355774958620
    C            1.364574703530    -0.545243565068     0.151553114444
    C            1.856592366264     0.733549719839    -0.063356423900
    C            0.002905420138    -0.767382231496     0.158448626563
    H            2.917910246367     0.904159883965    -0.071140421412
    C            0.987194968388     1.785542960323    -0.267484811333
    H           -0.379970854339    -1.755251426499     0.315251547002
    C           -0.861540370797     0.294434950327    -0.039219572699
    H            1.379140445899     2.769936540702    -0.435452224154
    C           -0.377011075289     1.573191037064    -0.253754208108
    C           -2.330325079855     0.064586814297    -0.057020601889
    H           -1.055569029167     2.390277531163    -0.408433925513
    O           -2.845328583245    -1.000195811588    -0.054741106595
    H           -2.935321670631     0.976086369486    -0.091459641197

  Mulliken Charges: (a.u.)
   Center  Symbol    Alpha    Beta     Spin     Total
       1     H     0.38732  0.38732  0.00000  0.22537
       2     O     4.16968  4.16968  0.00000 -0.33935
       3     C     2.84154  2.84154  0.00000  0.31693
       4     C     3.12682  3.12682  0.00000 -0.25364
       5     C     3.11903  3.11903  0.00000 -0.23805
       6     H     0.43125  0.43125  0.00000  0.13749
       7     C     3.06282  3.06282  0.00000 -0.12563
       8     H     0.40527  0.40527  0.00000  0.18947
       9     C     2.96882  2.96882  0.00000  0.06235
      10     H     0.41937  0.41937  0.00000  0.16126
      11     C     3.10987  3.10987  0.00000 -0.21974
      12     C     2.90997  2.90997  0.00000  0.18005
      13     H     0.42334  0.42334  0.00000  0.15332
      14     O     4.16833  4.16833  0.00000 -0.33665
      15     H     0.45658  0.45658  0.00000  0.08683

   Total alpha = 32.00000, Total beta = 32.00000, Total charge = -0.00000
