                              Psi4 1.0.54 Driver

  ==> Input File <==

--------------------------------------------------------------------------
set {
	reference rhf
	basis cc-pvtz
}

set_num_threads( 4 )
memory 2 gb

molecule MOL {
0 1

O	 1.245890	 1.225176	 -0.610738
C	 0.860843	 0.273204	 -0.013120
C	 -0.623368	 -0.117453	 -0.005652
C	 1.847019	 -0.574501	 0.765902
C	 -0.892588	 -1.253841	 -1.002900
C	 -1.473463	 1.100646	 -0.372896
C	 -0.981836	 -0.579025	 1.418506
H	 -0.609333	 -0.970024	 -2.010649
H	 -1.950451	 -1.487353	 -1.013175
H	 -0.360848	 -2.161259	 -0.746463
H	 -1.232203	 1.461623	 -1.364827
H	 -2.524364	 0.834451	 -0.354500
H	 -1.312381	 1.914833	 0.318657
H	 -2.035706	 -0.826342	 1.468082
H	 -0.425078	 -1.458934	 1.716857
H	 -0.788494	 0.205047	 2.140903
H	 2.075666	 -1.468507	 0.196484
H	 2.756191	 -0.009974	 0.904417
H	 1.457590	 -0.889166	 1.724319

	symmetry c1
}
set optking {
	frozen_dihedral = ("
		1 2 3 5
	")
}

ee,wfn = optimize('scf', return_wfn=True)
oeprop( wfn, 'DIPOLE', 'QUADRUPOLE', 'MULLIKEN_CHARGES')
f=open( 'psi4out.xyz', 'w' )
f.write( "19  " )
f.write( str(ee) + "\n" )
f.write( MOL.save_string_xyz() )
f.close()
--------------------------------------------------------------------------

    Molecular point group: c1
  Charge       = 0
  Multiplicity = 1
  Basis Set: CC-PVTZ
  Basis Set:
  @DF-RHF Final Energy:  -309.17053872495501
    Total Energy =                       -309.1705387249550085
    Molecular point group: c1
  Basis Set: CC-PVTZ
  Basis Set:
  Basis Set: CC-PVTZ
  Basis Set:
  @DF-RHF Final Energy:  -309.17137395651622
    Total Energy =                       -309.1713739565164474
  Basis Set: CC-PVTZ
  Basis Set:
  Basis Set: CC-PVTZ
  Basis Set:
  @DF-RHF Final Energy:  -309.17294119627837
    Total Energy =                       -309.1729411962783729
  Basis Set: CC-PVTZ
  Basis Set:
  Basis Set: CC-PVTZ
  Basis Set:
  @DF-RHF Final Energy:  -309.17323360646930
    Total Energy =                       -309.1732336064691253
  Basis Set: CC-PVTZ
  Basis Set:
  @DF-RHF Final Energy:  -309.17327939241034
    Total Energy =                       -309.1732793924103362
  @DF-RHF Final Energy:  -309.17364022203276
    Total Energy =                       -309.1736402220325317
  @DF-RHF Final Energy:  -309.17375130271444
    Total Energy =                       -309.1737513027145496
  @DF-RHF Final Energy:  -309.17385142462444
    Total Energy =                       -309.1738514246244449
  @DF-RHF Final Energy:  -309.17408525994171
    Total Energy =                       -309.1740852599415348
  @DF-RHF Final Energy:  -309.17397480877378
    Total Energy =                       -309.1739748087743465
  Basis Set: CC-PVTZ
  Basis Set:
  @DF-RHF Final Energy:  -309.17419368891728
    Total Energy =                       -309.1741936889176827
  Basis Set: CC-PVTZ
  Basis Set:
  Basis Set: CC-PVTZ
  Basis Set:
  @DF-RHF Final Energy:  -309.17425613468117
    Total Energy =                       -309.1742561346809453
  Basis Set: CC-PVTZ
  Basis Set:
  Basis Set: CC-PVTZ
  Basis Set:
  @DF-RHF Final Energy:  -309.17426799390893
    Total Energy =                       -309.1742679939088134
  Basis Set: CC-PVTZ
  Basis Set:
  Charge       = 0
  Multiplicity = 1
  Basis Set: CC-PVTZ
  Basis Set:

    Orbital Energies (a.u.)
    -----------------------

    Doubly Occupied:

       1A    -20.537290     2A    -11.317836     3A    -11.245684
       4A    -11.225295     5A    -11.222190     6A    -11.221719
       7A    -11.206710     8A     -1.398402     9A     -1.110840
      10A     -1.003306    11A     -0.947634    12A     -0.936024
      13A     -0.835678    14A     -0.705480    15A     -0.666741
      16A     -0.634105    17A     -0.621942    18A     -0.598390
      19A     -0.592340    20A     -0.566536    21A     -0.546715
      22A     -0.545738    23A     -0.524829    24A     -0.514597
      25A     -0.502189    26A     -0.472998    27A     -0.467669
      28A     -0.394620

  @DF-RHF Final Energy:  -309.17426822437784

   => Energetics <=

    Nuclear Repulsion Energy =            326.9239447129965015
    One-Electron Energy =               -1067.0694332422604020
    Two-Electron Energy =                 430.9712203048857191
    DFT Exchange-Correlation Energy =       0.0000000000000000
    Empirical Dispersion Energy =           0.0000000000000000
    PCM Polarization Energy =               0.0000000000000000
    EFP Energy =                            0.0000000000000000
    Total Energy =                       -309.1742682243782383
    Molecular point group: c1
  Basis Set: CC-PVTZ
  Basis Set:

  -Total Gradient:
     Atom            X                  Y                   Z
    ------   -----------------  -----------------  -----------------
       1        0.000079254874    -0.000203336101    -0.000288950193
       2       -0.000029185041     0.000331290988     0.000363428476
       3        0.000069134236    -0.000230625397     0.000105406160
       4        0.000018171619     0.000009494367     0.000037773463
       5       -0.000053105645     0.000094062734    -0.000203744623
       6       -0.000043344334    -0.000021256109    -0.000035821001
       7        0.000006463611    -0.000026974227    -0.000036088060
       8       -0.000036699498    -0.000028371300     0.000089658605
       9        0.000108760174     0.000019788654     0.000000222988
      10       -0.000056704541     0.000073373138    -0.000045600629
      11       -0.000025622146    -0.000031920065     0.000012763033
      12       -0.000016123387     0.000023761115     0.000034965091
      13        0.000013244719     0.000009798007    -0.000003231737
      14       -0.000019044857     0.000004730045    -0.000004297645
      15        0.000002290443    -0.000019645680    -0.000002468794
      16        0.000012995485     0.000003035403    -0.000018317565
      17       -0.000005318816    -0.000000009032     0.000010101321
      18       -0.000023928614     0.000003147156    -0.000008215792
      19       -0.000001238277    -0.000010343696    -0.000007583100

  **** Optimization is complete! (in 14 steps) ****
    Final optimized geometry and variables:
    Molecular point group: c1

    Geometry (in Angstrom), charge = 0, multiplicity = 1:

    O            1.289719025407     1.181628880871    -0.606822938964
    C            0.867389765880     0.253877852063     0.003647904548
    C           -0.624173417115    -0.108045512581    -0.030185787215
    C            1.813982336055    -0.607545473679     0.815243523143
    C           -0.793198924604    -1.270661723122    -1.025190847193
    C           -1.430647663506     1.097875297007    -0.517946887643
    C           -1.124328645616    -0.534667267895     1.357019721139
    H           -0.445939192453    -0.989265576336    -2.011763391393
    H           -1.840455884150    -1.537931991064    -1.101796780768
    H           -0.251260647059    -2.156120646146    -0.715352680607
    H           -1.111655963011     1.411775033317    -1.500890395249
    H           -2.483700811413     0.843233473008    -0.560718353804
    H           -1.313733171395     1.942548583191     0.149882526958
    H           -2.186132356145    -0.745176406947     1.312737889322
    H           -0.629941635489    -1.427860079169     1.717044732782
    H           -0.976451036770     0.251380895070     2.089563798720
    H            1.614619866010    -1.663693380736     0.692973193679
    H            2.826971358825    -0.386859517299     0.516229684425
    H            1.700339216300    -0.374269087150     1.867902538861

  Mulliken Charges: (a.u.)
   Center  Symbol    Alpha    Beta     Spin     Total
       1     O     4.17619  4.17619  0.00000 -0.35239
       2     C     2.85220  2.85220  0.00000  0.29559
       3     C     3.00836  3.00836  0.00000 -0.01673
       4     C     3.16382  3.16382  0.00000 -0.32765
       5     C     3.15799  3.15799  0.00000 -0.31598
       6     C     3.15051  3.15051  0.00000 -0.30102
       7     C     3.16440  3.16440  0.00000 -0.32881
       8     H     0.44109  0.44109  0.00000  0.11782
       9     H     0.44566  0.44566  0.00000  0.10869
      10     H     0.44633  0.44633  0.00000  0.10734
      11     H     0.43845  0.43845  0.00000  0.12309
      12     H     0.45191  0.45191  0.00000  0.09618
      13     H     0.44727  0.44727  0.00000  0.10545
      14     H     0.44276  0.44276  0.00000  0.11448
      15     H     0.44576  0.44576  0.00000  0.10847
      16     H     0.44326  0.44326  0.00000  0.11348
      17     H     0.44659  0.44659  0.00000  0.10681
      18     H     0.43178  0.43178  0.00000  0.13643
      19     H     0.44564  0.44564  0.00000  0.10873

   Total alpha = 28.00000, Total beta = 28.00000, Total charge = -0.00000

*** Psi4 exiting successfully. Buy a developer a beer!
