  ==> Input File <==

--------------------------------------------------------------------------
set {
	reference rhf
	basis 6-31G*
}

set_num_threads( 4 )
memory 2 gb

molecule MOL {
0 1

O	 0.625848	 1.349995	 -0.000749
C	 0.486307	 0.169203	 0.000779
C	 1.608116	 -0.841643	 0.000302
O	 -0.698257	 -0.426125	 0.001050
C	 2.990107	 -0.200498	 -0.000684
H	 1.468623	 -1.481519	 -0.865924
H	 1.469683	 -1.481289	 0.866878
H	 3.129736	 0.423364	 -0.875135
H	 3.757882	 -0.966877	 -0.001197
H	 3.130964	 0.423383	 0.873533
C	 -1.844554	 0.389669	 -0.217774
C	 -3.059200	 -0.513094	 -0.173431
H	 -1.748256	 0.883450	 -1.175109
H	 -1.885461	 1.152875	 0.547363
H	 -3.000434	 -1.275174	 -0.942158
H	 -3.959425	 0.070563	 -0.336489
H	 -3.138521	 -1.004286	 0.789738

	symmetry c1
}
set optking {
	frozen_dihedral = ("
		11 4 2 3
	")
}

ee = optimize('scf')
oeprop('DIPOLE', 'QUADRUPOLE', 'MULLIKEN_CHARGES')
f=open( 'psi4out.xyz', 'w' )
f.write( "17  " )
f.write( str(ee) + "\n" )
f.write( MOL.save_string_xyz() )
f.close()
--------------------------------------------------------------------------

    Molecular point group: c1
  Charge       = 0
  Multiplicity = 1
  Basis Set: 6-31G*
  Basis Set:
  @DF-RHF Final Energy:  -344.91135975697313
    Total Energy =                       -344.9113597569731269
    Molecular point group: c1
  Basis Set: 6-31G*
  Basis Set:
  Basis Set: 6-31G*
  Basis Set:
  @DF-RHF Final Energy:  -344.91041982948246
    Total Energy =                       -344.9104198294825210
  Basis Set: 6-31G*
  Basis Set:
  Basis Set: 6-31G*
  Basis Set:
  @DF-RHF Final Energy:  -344.91143115203266
    Total Energy =                       -344.9114311520324350
  Basis Set: 6-31G*
  Basis Set:
  Basis Set: 6-31G*
  Basis Set:
  @DF-RHF Final Energy:  -344.91146232865731
    Total Energy =                       -344.9114623286574215
  Basis Set: 6-31G*
  Basis Set:
  Basis Set: 6-31G*
  Basis Set:
  @DF-RHF Final Energy:  -344.91147425672415
    Total Energy =                       -344.9114742567244321
  Basis Set: 6-31G*
  Basis Set:
  Basis Set: 6-31G*
  Basis Set:
  @DF-RHF Final Energy:  -344.91147683485889
    Total Energy =                       -344.9114768348586040
  Basis Set: 6-31G*
  Basis Set:
  Basis Set: 6-31G*
  Basis Set:
  @DF-RHF Final Energy:  -344.91146867274347
    Total Energy =                       -344.9114686727434673
  Basis Set: 6-31G*
  Basis Set:
  Charge       = 0
  Multiplicity = 1
  Basis Set: 6-31G*
  Basis Set:

    Orbital Energies (a.u.)
    -----------------------

    Doubly Occupied:

       1A    -20.600508     2A    -20.544441     3A    -11.371370
       4A    -11.285009     5A    -11.237659     6A    -11.222398
       7A    -11.215868     8A     -1.467273     9A     -1.361936
      10A     -1.069915    11A     -1.031905    12A     -0.910654
      13A     -0.847709    14A     -0.772718    15A     -0.695599
      16A     -0.689219    17A     -0.664452    18A     -0.629724
      19A     -0.582314    20A     -0.572726    21A     -0.558209
      22A     -0.523711    23A     -0.519704    24A     -0.514178
      25A     -0.504484    26A     -0.492637    27A     -0.452552
      28A     -0.435954

  @DF-RHF Final Energy:  -344.91147703428078

   => Energetics <=

    Nuclear Repulsion Energy =            314.6644993947725197
    One-Electron Energy =               -1093.6022977534842084
    Two-Electron Energy =                 434.0263213244307963
    DFT Exchange-Correlation Energy =       0.0000000000000000
    Empirical Dispersion Energy =           0.0000000000000000
    PCM Polarization Energy =               0.0000000000000000
    EFP Energy =                            0.0000000000000000
    Total Energy =                       -344.9114770342808924
    Molecular point group: c1
  Basis Set: 6-31G*
  Basis Set:

  -Total Gradient:
     Atom            X                  Y                   Z
    ------   -----------------  -----------------  -----------------
       1       -0.000000532730    -0.000018826854     0.000001993916
       2        0.000185914332    -0.000067683930     0.001900982025
       3       -0.000058963978    -0.000103839637    -0.002179934521
       4       -0.000222649134     0.000702250372     0.002662294427
       5       -0.000000764392    -0.000010034699     0.000002477906
       6       -0.000004786259    -0.000002868123    -0.000003612718
       7       -0.000000169734     0.000004564638    -0.000002419062
       8       -0.000000451736    -0.000000870585    -0.000000057081
       9        0.000001993763     0.000002789456    -0.000000174028
      10        0.000001343762     0.000002009692     0.000002850675
      11        0.000112232085    -0.000515325082    -0.002391300981
      12       -0.000005717443     0.000007348189     0.000007308693
      13       -0.000001850594     0.000008438215    -0.000002549009
      14       -0.000004388282    -0.000007126454    -0.000002004320
      15        0.000003808151     0.000005254838     0.000001067902
      16       -0.000001901601    -0.000001761771     0.000000271192
      17       -0.000003116209    -0.000004318269     0.000002804985

  **** Optimization is complete! (in 8 steps) ****
    Final optimized geometry and variables:
    Molecular point group: c1

    Geometry (in Angstrom), charge = 0, multiplicity = 1:

    O            0.627103853728     1.352644040151    -0.069194595856
    C            0.485628989810     0.176307229866     0.029060269072
    C            1.604731174846    -0.837208051756     0.047290690480
    O           -0.700441431605    -0.413339093286     0.096767142091
    C            2.987579965546    -0.200813079939     0.110228102074
    H            1.492389270010    -1.444117737191    -0.846915616520
    H            1.436464562723    -1.507547176682     0.884121759323
    H            3.153498275872     0.453872672617    -0.736172660841
    H            3.753558228370    -0.968952827096     0.105521932859
    H            3.104265920277     0.390316849807     1.010880528741
    C           -1.850690446118     0.394906555854    -0.129460056800
    C           -3.061202300206    -0.512786416857    -0.074351095366
    H           -1.756011305974     0.877485344012    -1.092995255595
    H           -1.896120011737     1.167044519092     0.626019617056
    H           -2.999459181635    -1.283616003082    -0.834104948075
    H           -3.964198365668     0.064894678459    -0.243323630093
    H           -3.137564564771    -0.992976349831     0.894551505410

  Mulliken Charges: (a.u.)
   Center  Symbol    Alpha    Beta     Spin     Total
       1     O     4.28582  4.28582  0.00000 -0.57164
       2     C     2.60555  2.60555  0.00000  0.78890
       3     C     3.20503  3.20503  0.00000 -0.41007
       4     O     4.31346  4.31346  0.00000 -0.62692
       5     C     3.23913  3.23913  0.00000 -0.47827
       6     H     0.40084  0.40084  0.00000  0.19832
       7     H     0.40084  0.40084  0.00000  0.19832
       8     H     0.40838  0.40838  0.00000  0.18324
       9     H     0.41813  0.41813  0.00000  0.16374
      10     H     0.41142  0.41142  0.00000  0.17716
      11     C     3.00217  3.00217  0.00000 -0.00434
      12     C     3.24840  3.24840  0.00000 -0.49680
      13     H     0.41165  0.41165  0.00000  0.17669
      14     H     0.40917  0.40917  0.00000  0.18167
      15     H     0.41227  0.41227  0.00000  0.17546
      16     H     0.41631  0.41631  0.00000  0.16737
      17     H     0.41142  0.41142  0.00000  0.17716

   Total alpha = 28.00000, Total beta = 28.00000, Total charge =  0.00000
