  ==> Input File <==

--------------------------------------------------------------------------
set {
	reference rhf
	basis 6-31G*
}

set_num_threads( 4 )
memory 2 gb

molecule MOL {
0 1

H	 -1.630889	 -0.432258	 -1.109060
O	 -1.422729	 -0.573567	 -0.196946
C	 -0.731407	 0.539437	 0.309156
C	 0.680193	 0.672443	 -0.251532
H	 -1.319765	 1.404033	 0.030086
H	 -0.700012	 0.506517	 1.397677
C	 1.599139	 -0.492137	 0.118598
H	 0.616402	 0.758534	 -1.332349
H	 1.107032	 1.602637	 0.117369
H	 1.239738	 -1.428634	 -0.297334
H	 2.601428	 -0.335055	 -0.265730
H	 1.674954	 -0.608418	 1.197020

	symmetry c1
}
set optking {
	frozen_dihedral = ("
		1 2 3 4
	")
}

ee = optimize('scf')
oeprop('DIPOLE', 'QUADRUPOLE', 'MULLIKEN_CHARGES')
f=open( 'psi4out.xyz', 'w' )
f.write( "12  " )
f.write( str(ee) + "\n" )
f.write( MOL.save_string_xyz() )
f.close()
--------------------------------------------------------------------------

    Molecular point group: c1
  Charge       = 0
  Multiplicity = 1
  Basis Set: 6-31G*
  Basis Set:
  @DF-RHF Final Energy:  -193.10846525224287
    Total Energy =                       -193.1084652522428087
    Molecular point group: c1
  Basis Set: 6-31G*
  Basis Set:
  Basis Set: 6-31G*
  Basis Set:
  @DF-RHF Final Energy:  -193.10999453576747
    Total Energy =                       -193.1099945357674699
  Basis Set: 6-31G*
  Basis Set:
  Basis Set: 6-31G*
  Basis Set:
  @DF-RHF Final Energy:  -193.11044596001798
    Total Energy =                       -193.1104459600178984
  Basis Set: 6-31G*
  Basis Set:
  Basis Set: 6-31G*
  Basis Set:
  @DF-RHF Final Energy:  -193.11045049691879
    Total Energy =                       -193.1104504969188724
  Basis Set: 6-31G*
  Basis Set:
  Basis Set: 6-31G*
  Basis Set:
  @DF-RHF Final Energy:  -193.11045329154129
    Total Energy =                       -193.1104532915412904
  Basis Set: 6-31G*
  Basis Set:
  Charge       = 0
  Multiplicity = 1
  Basis Set: 6-31G*
  Basis Set:

    Orbital Energies (a.u.)
    -----------------------

    Doubly Occupied:

       1A    -20.554205     2A    -11.268318     3A    -11.219368
       4A    -11.207157     5A     -1.360846     6A     -1.048458
       7A     -0.920637     8A     -0.813074     9A     -0.681992
      10A     -0.638141    11A     -0.622143    12A     -0.565924
      13A     -0.527356    14A     -0.520374    15A     -0.484298
      16A     -0.467391    17A     -0.429972

  @DF-RHF Final Energy:  -193.11045423207153

   => Energetics <=

    Nuclear Repulsion Energy =            133.0891344562836878
    One-Electron Energy =                -525.7398715734627785
    Two-Electron Energy =                 199.5402828851075583
    DFT Exchange-Correlation Energy =       0.0000000000000000
    Empirical Dispersion Energy =           0.0000000000000000
    PCM Polarization Energy =               0.0000000000000000
    EFP Energy =                            0.0000000000000000
    Total Energy =                       -193.1104542320715609
    Molecular point group: c1
  Basis Set: 6-31G*
  Basis Set:

  -Total Gradient:
     Atom            X                  Y                   Z
    ------   -----------------  -----------------  -----------------
       1       -0.000427524141     0.000216776740     0.000137309227
       2        0.000577801478    -0.000330201294    -0.000051326478
       3       -0.000267954630     0.000276795958    -0.000362014444
       4        0.000093344387    -0.000168284453     0.000262458479
       5        0.000011451281    -0.000002331107    -0.000002782609
       6        0.000019141795     0.000001705701     0.000003447629
       7        0.000002161696     0.000012520574    -0.000004602842
       8       -0.000005843327    -0.000006866254     0.000011210083
       9        0.000005138069     0.000009417862     0.000004931021
      10       -0.000000771107    -0.000006957768    -0.000002402619
      11       -0.000011253509    -0.000003742600    -0.000000860711
      12        0.000004308009     0.000001166643     0.000004633265

  **** Optimization is complete! (in 6 steps) ****
    Final optimized geometry and variables:
    Molecular point group: c1

    Geometry (in Angstrom), charge = 0, multiplicity = 1:

    H           -1.582265619962    -0.496561950113    -1.086058075555
    O           -1.390574722974    -0.608164074179    -0.165301309250
    C           -0.728964366085     0.534917005654     0.313809493333
    C            0.689213835109     0.671118828017    -0.229096288439
    H           -1.303833151439     1.430949885539     0.087096825227
    H           -0.705077894801     0.431272207249     1.391790280249
    C            1.589063841633    -0.506550514260     0.140468133600
    H            0.646229793752     0.775265065512    -1.312643818074
    H            1.114381237971     1.598184716543     0.149754258538
    H            1.177635085847    -1.438854875033    -0.227498721074
    H            2.582860314725    -0.384522051545    -0.278785736383
    H            1.692092035369    -0.592379672125     1.218601100848

  Mulliken Charges: (a.u.)
   Center  Symbol    Alpha    Beta     Spin     Total
       1     H     0.28301  0.28301  0.00000  0.43399
       2     O     4.36799  4.36799  0.00000 -0.73598
       3     C     2.99721  2.99721  0.00000  0.00559
       4     C     3.16537  3.16537  0.00000 -0.33075
       5     H     0.42851  0.42851  0.00000  0.14297
       6     H     0.41658  0.41658  0.00000  0.16684
       7     C     3.23984  3.23984  0.00000 -0.47968
       8     H     0.42727  0.42727  0.00000  0.14546
       9     H     0.42220  0.42220  0.00000  0.15559
      10     H     0.41003  0.41003  0.00000  0.17995
      11     H     0.42042  0.42042  0.00000  0.15916
      12     H     0.42157  0.42157  0.00000  0.15686

   Total alpha = 17.00000, Total beta = 17.00000, Total charge = -0.00000
