  ==> Input File <==

--------------------------------------------------------------------------
set {
	reference rhf
	basis 6-31G*
}

set_num_threads( 4 )
memory 2 gb

molecule MOL {
0 1

O	 0.545967	 -0.751581	 -2.214019
C	 -0.002700	 -0.961109	 -1.181334
C	 -1.390263	 -1.523169	 -1.035302
O	 0.550821	 -0.724572	 0.000672
H	 -1.353736	 -2.445286	 -0.466927
H	 -1.811078	 -1.706764	 -2.012594
H	 -2.012195	 -0.824426	 -0.488001
C	 1.863949	 -0.193559	 -0.000319
H	 2.028859	 0.409284	 -0.881648
H	 2.526261	 -1.045082	 -0.000003
H	 2.029520	 0.410555	 0.880008

	symmetry c1
}
set optking {
	frozen_dihedral = ("
		2 4 8 9
	")
}

ee = optimize('scf')
oeprop('DIPOLE', 'QUADRUPOLE', 'MULLIKEN_CHARGES')
f=open( 'psi4out.xyz', 'w' )
f.write( "11  " )
f.write( str(ee) + "\n" )
f.write( MOL.save_string_xyz() )
f.close()
--------------------------------------------------------------------------

    Molecular point group: c1
  Charge       = 0
  Multiplicity = 1
  Basis Set: 6-31G*
  Basis Set:
  @DF-RHF Final Energy:  -266.83396514221323
    Total Energy =                       -266.8339651422132874
    Molecular point group: c1
  Basis Set: 6-31G*
  Basis Set:
  Basis Set: 6-31G*
  Basis Set:
  @DF-RHF Final Energy:  -266.83498116346880
    Total Energy =                       -266.8349811634690241
  Basis Set: 6-31G*
  Basis Set:
  Basis Set: 6-31G*
  Basis Set:
  @DF-RHF Final Energy:  -266.83502425703830
    Total Energy =                       -266.8350242570381852
  Basis Set: 6-31G*
  Basis Set:
  Basis Set: 6-31G*
  Basis Set:
  @DF-RHF Final Energy:  -266.83517331653536
    Total Energy =                       -266.8351733165353608
  Basis Set: 6-31G*
  Basis Set:
  Basis Set: 6-31G*
  Basis Set:
  @DF-RHF Final Energy:  -266.83528106386780
    Total Energy =                       -266.8352810638676829
  Basis Set: 6-31G*
  Basis Set:
  Charge       = 0
  Multiplicity = 1
  Basis Set: 6-31G*
  Basis Set:

    Orbital Energies (a.u.)
    -----------------------

    Doubly Occupied:

       1A    -20.605359     2A    -20.546089     3A    -11.377198
       4A    -11.281362     5A    -11.234345     6A     -1.469767
       7A     -1.364812     8A     -1.035978     9A     -0.953258
      10A     -0.777824    11A     -0.696526    12A     -0.679641
      13A     -0.677101    14A     -0.596500    15A     -0.591428
      16A     -0.560806    17A     -0.527077    18A     -0.521012
      19A     -0.456077    20A     -0.442196

  @DF-RHF Final Energy:  -266.83528136679422

   => Energetics <=

    Nuclear Repulsion Energy =            183.0706004735629620
    One-Electron Energy =                -727.0230490374534611
    Two-Electron Energy =                 277.1171671970963644
    DFT Exchange-Correlation Energy =       0.0000000000000000
    Empirical Dispersion Energy =           0.0000000000000000
    PCM Polarization Energy =               0.0000000000000000
    EFP Energy =                            0.0000000000000000
    Total Energy =                       -266.8352813667941064
    Molecular point group: c1
  Basis Set: 6-31G*
  Basis Set:

  -Total Gradient:
     Atom            X                  Y                   Z
    ------   -----------------  -----------------  -----------------
       1        0.000040023651     0.000037966711     0.000071069464
       2       -0.000504744000     0.001349966504    -0.000004919015
       3       -0.000007414446    -0.000014588794     0.000015082098
       4        0.000954264362    -0.002157583015    -0.000223490542
       5       -0.000008553289    -0.000006015185     0.000005211601
       6       -0.000000521892    -0.000003444720    -0.000000935326
       7        0.000008567195    -0.000003466177    -0.000006895431
       8       -0.000961089868     0.002073443997     0.001040486876
       9        0.000498196600    -0.001296312397    -0.000869429923
      10        0.000039301087     0.000006325298     0.000001998996
      11       -0.000058029399     0.000013707776    -0.000028178798

  **** Optimization is complete! (in 6 steps) ****
    Final optimized geometry and variables:
    Molecular point group: c1

    Geometry (in Angstrom), charge = 0, multiplicity = 1:

    O            0.198860823765     0.054378614491    -1.351307896569
    C           -0.335336253947    -0.140375341267    -0.308349668738
    C           -1.729110639934    -0.681145892599    -0.140136426207
    O            0.231859667016     0.093027544598     0.868418647554
    H           -1.697755912978    -1.600303384072     0.433348010893
    H           -2.165704247791    -0.864693466430    -1.110410140920
    H           -2.333310071128     0.029650998839     0.411522892537
    C            1.540660538679     0.636427345668     0.886550226010
    H            1.711790384861     1.254307878834     0.020122652301
    H            2.265454289684    -0.167062573631     0.897751400754
    H            1.620313200756     1.212539048879     1.795513429323

  Mulliken Charges: (a.u.)
   Center  Symbol    Alpha    Beta     Spin     Total
       1     O     4.28194  4.28194  0.00000 -0.56389
       2     C     2.62224  2.62224  0.00000  0.75552
       3     C     3.28190  3.28190  0.00000 -0.56379
       4     O     4.30049  4.30049  0.00000 -0.60098
       5     H     0.39987  0.39987  0.00000  0.20025
       6     H     0.39671  0.39671  0.00000  0.20658
       7     H     0.40014  0.40014  0.00000  0.19973
       8     C     3.09554  3.09554  0.00000 -0.19107
       9     H     0.39901  0.39901  0.00000  0.20199
      10     H     0.41281  0.41281  0.00000  0.17438
      11     H     0.40936  0.40936  0.00000  0.18128

   Total alpha = 20.00000, Total beta = 20.00000, Total charge = -0.00000
