  ==> Input File <==

--------------------------------------------------------------------------
set {
	reference rhf
	basis 6-31G*
}

set_num_threads( 4 )
memory 2 gb

molecule MOL {
0 1

H	 -2.499100	 -0.730091	 -0.745082
O	 -2.347518	 -0.290803	 0.079804
C	 -1.184022	 0.487508	 -0.006784
C	 0.062599	 -0.378592	 0.031606
H	 -1.176523	 1.099369	 -0.904519
H	 -1.187323	 1.153111	 0.844927
O	 1.171513	 0.459272	 -0.058250
H	 0.050699	 -1.089204	 -0.797170
H	 0.078739	 -0.954914	 0.954740
C	 2.033789	 0.394791	 1.033292
H	 2.442502	 -0.606114	 1.158886
H	 2.845969	 1.084274	 0.849227
H	 1.530230	 0.680104	 1.954604

	symmetry c1
}
set optking {
	frozen_dihedral = ("
		10 7 4 8
	")
}

ee = optimize('scf')
oeprop('DIPOLE', 'QUADRUPOLE', 'MULLIKEN_CHARGES')
f=open( 'psi4out.xyz', 'w' )
f.write( "13  " )
f.write( str(ee) + "\n" )
f.write( MOL.save_string_xyz() )
f.close()
--------------------------------------------------------------------------

    Molecular point group: c1
  Charge       = 0
  Multiplicity = 1
  Basis Set: 6-31G*
  Basis Set:
  @DF-RHF Final Energy:  -267.94695682254940
    Total Energy =                       -267.9469568225492822
    Molecular point group: c1
  Basis Set: 6-31G*
  Basis Set:
  Basis Set: 6-31G*
  Basis Set:
  @DF-RHF Final Energy:  -267.94729758035737
    Total Energy =                       -267.9472975803572581
  Basis Set: 6-31G*
  Basis Set:
  Basis Set: 6-31G*
  Basis Set:
  @DF-RHF Final Energy:  -267.94738233285375
    Total Energy =                       -267.9473823328540334
  Basis Set: 6-31G*
  Basis Set:
  Basis Set: 6-31G*
  Basis Set:
  @DF-RHF Final Energy:  -267.94738376692817
    Total Energy =                       -267.9473837669282830
  Basis Set: 6-31G*
  Basis Set:
  Charge       = 0
  Multiplicity = 1
  Basis Set: 6-31G*
  Basis Set:

    Orbital Energies (a.u.)
    -----------------------

    Doubly Occupied:

       1A    -20.560177     2A    -20.559398     3A    -11.270530
       4A    -11.270440     5A    -11.268561     6A     -1.384100
       7A     -1.364636     8A     -1.016356     9A     -0.918200
      10A     -0.839527    11A     -0.707981    12A     -0.673827
      13A     -0.656339    14A     -0.634934    15A     -0.599064
      16A     -0.576240    17A     -0.531112    18A     -0.498791
      19A     -0.477661    20A     -0.453548    21A     -0.406818

  @DF-RHF Final Energy:  -267.94738388397064

   => Energetics <=

    Nuclear Repulsion Energy =            190.6298364745093181
    One-Electron Energy =                -743.8179609443559457
    Two-Electron Energy =                 285.2407405858756988
    DFT Exchange-Correlation Energy =       0.0000000000000000
    Empirical Dispersion Energy =           0.0000000000000000
    PCM Polarization Energy =               0.0000000000000000
    EFP Energy =                            0.0000000000000000
    Total Energy =                       -267.9473838839708719
    Molecular point group: c1
  Basis Set: 6-31G*
  Basis Set:

  -Total Gradient:
     Atom            X                  Y                   Z
    ------   -----------------  -----------------  -----------------
       1       -0.000001607067    -0.000002156398    -0.000000618041
       2        0.000009496368     0.000018889599    -0.000004169145
       3       -0.000011206360    -0.000018105806     0.000010076102
       4        0.000129496062    -0.000093404774     0.000171196259
       5       -0.000002550401    -0.000003093389    -0.000000511318
       6       -0.000003709884     0.000002101976    -0.000002527392
       7        0.000074964078    -0.000146167741    -0.000148238945
       8       -0.000111722963     0.000129197019    -0.000117341570
       9       -0.000001195843    -0.000005490095     0.000006157875
      10       -0.000085828559     0.000121883381     0.000078550544
      11        0.000003220749     0.000000221759     0.000004738701
      12       -0.000004191186    -0.000002526248     0.000001777932
      13        0.000004835011    -0.000001349282     0.000000908998

  **** Optimization is complete! (in 5 steps) ****
    Final optimized geometry and variables:
    Molecular point group: c1

    Geometry (in Angstrom), charge = 0, multiplicity = 1:

    H           -2.421819681964    -0.849062415857    -0.990954764087
    O           -2.289101460726    -0.410822111522    -0.162147355282
    C           -1.124064158693     0.368313349289    -0.222050132541
    C            0.126204179936    -0.495689923622    -0.165526515426
    H           -1.099914162246     0.985340667591    -1.115974381785
    H           -1.147887447470     1.032007037205     0.632053853090
    O            1.259718554067     0.319814104304    -0.261736694968
    H            0.128381220014    -1.200718190948    -0.993664756875
    H            0.123911825896    -1.073116014872     0.753894036411
    C            2.139843131818     0.273143754099     0.818906005692
    H            2.571884651407    -0.717450488631     0.940064678822
    H            2.935039596515     0.977729405660     0.617592634696
    H            1.650059968133     0.554008280111     1.748571413598

  Mulliken Charges: (a.u.)
   Center  Symbol    Alpha    Beta     Spin     Total
       1     H     0.28097  0.28097  0.00000  0.43806
       2     O     4.37077  4.37077  0.00000 -0.74153
       3     C     3.00403  3.00403  0.00000 -0.00807
       4     C     3.00194  3.00194  0.00000 -0.00388
       5     H     0.42179  0.42179  0.00000  0.15643
       6     H     0.41393  0.41393  0.00000  0.17213
       7     O     4.30999  4.30999  0.00000 -0.61997
       8     H     0.42710  0.42710  0.00000  0.14581
       9     H     0.42175  0.42175  0.00000  0.15650
      10     C     3.08038  3.08038  0.00000 -0.16076
      11     H     0.42725  0.42725  0.00000  0.14550
      12     H     0.41172  0.41172  0.00000  0.17656
      13     H     0.42838  0.42838  0.00000  0.14323

   Total alpha = 21.00000, Total beta = 21.00000, Total charge = -0.00000
