  ==> Input File <==

--------------------------------------------------------------------------
set {
	reference rhf
	basis 6-31G*
}

set_num_threads( 4 )
memory 2 gb

molecule MOL {
0 1

H	 2.759463	 1.643377	 -1.008717
C	 2.042235	 1.443873	 -0.220866
C	 1.322923	 0.120767	 -0.479465
H	 2.581501	 1.424045	 0.721032
H	 1.343450	 2.274176	 -0.191017
C	 0.306652	 -0.176050	 0.621399
H	 2.040767	 -0.691796	 -0.522699
H	 0.807489	 0.152447	 -1.432138
N	 -1.068537	 -0.011044	 0.085269
H	 0.372515	 -1.192590	 0.973735
H	 0.391664	 0.520566	 1.441230
O	 -1.656956	 -0.997225	 -0.235017
O	 -1.478635	 1.104830	 -0.018026

	symmetry c1
}
set optking {
	frozen_dihedral = ("
		7 3 6 9
	")
}

ee = optimize('scf')
oeprop('DIPOLE', 'QUADRUPOLE', 'MULLIKEN_CHARGES')
f=open( 'psi4out.xyz', 'w' )
f.write( "13  " )
f.write( str(ee) + "\n" )
f.write( MOL.save_string_xyz() )
f.close()
--------------------------------------------------------------------------

    Molecular point group: c1
  Charge       = 0
  Multiplicity = 1
  Basis Set: 6-31G*
  Basis Set:
  @DF-RHF Final Energy:  -321.73019793248608
    Total Energy =                       -321.7301979324858507
    Molecular point group: c1
  Basis Set: 6-31G*
  Basis Set:
  Basis Set: 6-31G*
  Basis Set:
  @DF-RHF Final Energy:  -321.72609701372403
    Total Energy =                       -321.7260970137240292
  Basis Set: 6-31G*
  Basis Set:
  Basis Set: 6-31G*
  Basis Set:
  @DF-RHF Final Energy:  -321.72647483474100
    Total Energy =                       -321.7264748347409409
  Basis Set: 6-31G*
  Basis Set:
  Basis Set: 6-31G*
  Basis Set:
  @DF-RHF Final Energy:  -321.73059924396227
    Total Energy =                       -321.7305992439622742
  Basis Set: 6-31G*
  Basis Set:
  @DF-RHF Final Energy:  -321.73059297189741
    Total Energy =                       -321.7305929718975221
  @DF-RHF Final Energy:  -321.73084213780146
    Total Energy =                       -321.7308421378014600
  @DF-RHF Final Energy:  -321.73086324230928
    Total Energy =                       -321.7308632423095105
  @DF-RHF Final Energy:  -321.73087571048404
    Total Energy =                       -321.7308757104841561
  @DF-RHF Final Energy:  -321.73088485902485
    Total Energy =                       -321.7308848590247408
  @DF-RHF Final Energy:  -321.73089372889194
    Total Energy =                       -321.7308937288919424
  @DF-RHF Final Energy:  -321.73090244217241
    Total Energy =                       -321.7309024421723507
  @DF-RHF Final Energy:  -321.73017216998574
    Total Energy =                       -321.7301721699860195
  @DF-RHF Final Energy:  -321.72940407552608
    Total Energy =                       -321.7294040755263040
  @DF-RHF Final Energy:  -321.73084152034426
    Total Energy =                       -321.7308415203442564
  @DF-RHF Final Energy:  -321.73089984445176
    Total Energy =                       -321.7308998444516988
  @DF-RHF Final Energy:  -321.73090545043976
    Total Energy =                       -321.7309054504395931
  @DF-RHF Final Energy:  -321.73094676556218
    Total Energy =                       -321.7309467655622370
  @DF-RHF Final Energy:  -321.73096644417444
    Total Energy =                       -321.7309664441745554
  @DF-RHF Final Energy:  -321.73097058325510
    Total Energy =                       -321.7309705832550435
  @DF-RHF Final Energy:  -321.73097336399223
    Total Energy =                       -321.7309733639924616
  @DF-RHF Final Energy:  -321.72345492190016
    Total Energy =                       -321.7234549219000428
  @DF-RHF Final Energy:  -321.72654227940666
    Total Energy =                       -321.7265422794066012
  @DF-RHF Final Energy:  -321.72912464435922
    Total Energy =                       -321.7291246443591604
  @DF-RHF Final Energy:  -321.72976346451208
    Total Energy =                       -321.7297634645119047
  @DF-RHF Final Energy:  -321.73048363526630
    Total Energy =                       -321.7304836352659549
  @DF-RHF Final Energy:  -321.73074906795125
    Total Energy =                       -321.7307490679510238
  @DF-RHF Final Energy:  -321.73083451220532
    Total Energy =                       -321.7308345122054334
  @DF-RHF Final Energy:  -321.73086373686976
    Total Energy =                       -321.7308637368698214
  @DF-RHF Final Energy:  -321.73090749881180
    Total Energy =                       -321.7309074988119164
  @DF-RHF Final Energy:  -321.73092111052443
    Total Energy =                       -321.7309211105244344
  @DF-RHF Final Energy:  -321.73092676587396
    Total Energy =                       -321.7309267658737895
  @DF-RHF Final Energy:  -321.73093113801713
    Total Energy =                       -321.7309311380171266
  @DF-RHF Final Energy:  -321.73093110641611
    Total Energy =                       -321.7309311064159374
  @DF-RHF Final Energy:  -321.73093083377660
    Total Energy =                       -321.7309308337763696
  @DF-RHF Final Energy:  -321.69161652001935
    Total Energy =                       -321.6916165200196360
  @DF-RHF Final Energy:  -321.56102441361452
    Total Energy =                       -321.5610244136146889
  Basis Set: 6-31G*
  Basis Set:
  @DF-RHF Final Energy:  -321.58321769307787
    Total Energy =                       -321.5832176930780406
  Basis Set: 6-31G*
  Basis Set:
  Basis Set: 6-31G*
  Basis Set:
  @DF-RHF Final Energy:  -321.55941806633217
    Total Energy =                       -321.5594180663321140
  Basis Set: 6-31G*
  Basis Set:
  Basis Set: 6-31G*
  Basis Set:
  @DF-RHF Final Energy:  -321.55634865086421
    Total Energy =                       -321.5563486508642654
  Basis Set: 6-31G*
  Basis Set:
  Charge       = 0
  Multiplicity = 1
  Basis Set: 6-31G*
  Basis Set:

    Orbital Energies (a.u.)
    -----------------------

    Doubly Occupied:

       1A    -20.609930     2A    -20.585484     3A    -15.846619
       4A    -11.336973     5A    -11.279173     6A    -11.231901
       7A     -1.593980     8A     -1.359973     9A     -1.145944
      10A     -1.058428    11A     -0.919930    12A     -0.820533
      13A     -0.728157    14A     -0.723884    15A     -0.707886
      16A     -0.660833    17A     -0.628666    18A     -0.597697
      19A     -0.553339    20A     -0.510046    21A     -0.483717
      22A     -0.462996    23A     -0.440676    24A     -0.433457

  @DF-RHF Final Energy:  -321.57854718418156

   => Energetics <=

    Nuclear Repulsion Energy =            245.0848289327184943
    One-Electron Energy =                -923.8863068820116951
    Two-Electron Energy =                 357.2229307651116983
    DFT Exchange-Correlation Energy =       0.0000000000000000
    Empirical Dispersion Energy =           0.0000000000000000
    PCM Polarization Energy =               0.0000000000000000
    EFP Energy =                            0.0000000000000000
    Total Energy =                       -321.5785471841815593
    Molecular point group: c1
  Basis Set: 6-31G*
  Basis Set:

  -Total Gradient:
     Atom            X                  Y                   Z
    ------   -----------------  -----------------  -----------------
       1       -0.004107018828     0.028062049505    -0.037859199934
       2        0.038413073748    -0.077248074359     0.116451364188
       3        0.071337413282     0.081698524286     0.032175058957
       4       -0.042421860609    -0.002489360470    -0.049200136646
       5        0.007198334006    -0.016244566812    -0.014868086483
       6        0.043222587588     0.004892439879    -0.095101988890
       7       -0.024791144936     0.014181431226    -0.049713284496
       8       -0.003694521757    -0.056947100623     0.017408832055
       9        0.078096162533    -0.024320845557     0.150702620183
      10        0.010633333977    -0.028193435661     0.002732022206
      11       -0.091868930139     0.019973093944    -0.005321231913
      12       -0.021740378937    -0.007945915954    -0.028871963687
      13       -0.060277049927     0.064581760596    -0.038534005542

    Molecular point group: c1

    Geometry (in Angstrom), charge = 0, multiplicity = 1:

    H            2.564821361903     1.562994626546    -1.149729253135
    C            2.204631684440     1.185420263889    -0.174485447257
    C            1.628147975183    -0.278848113747    -0.388567497341
    H            2.716209705700     1.568736654094     0.696251103901
    H            1.329950362601     1.720521473044    -0.315663424864
    C            0.422810453369    -0.655155692947     0.513191006993
    H            2.206125144505    -1.173859457425    -0.615882012975
    H            1.197972318337    -0.679111139230    -1.336661386118
    N           -0.956346269633    -0.215505474758     0.188863594922
    H            0.444594970947    -1.756590417786     0.553611873912
    H            0.130018375471    -0.213956000902     1.495926619519
    O           -1.876965812624    -1.032804481984     0.082983758208
    O           -1.145735579590     0.968031144457    -0.168568560021

  Mulliken Charges: (a.u.)
   Center  Symbol    Alpha    Beta     Spin     Total
       1     H     0.41633  0.41633  0.00000  0.16735
       2     C     3.25864  3.25864  0.00000 -0.51729
       3     C     3.18323  3.18323  0.00000 -0.36645
       4     H     0.39551  0.39551  0.00000  0.20899
       5     H     0.39384  0.39384  0.00000  0.21232
       6     C     3.09373  3.09373  0.00000 -0.18746
       7     H     0.38384  0.38384  0.00000  0.23232
       8     H     0.39630  0.39630  0.00000  0.20740
       9     N     3.27328  3.27328  0.00000  0.45344
      10     H     0.37821  0.37821  0.00000  0.24359
      11     H     0.38918  0.38918  0.00000  0.22164
      12     O     4.19734  4.19734  0.00000 -0.39468
      13     O     4.24058  4.24058  0.00000 -0.48116

   Total alpha = 24.00000, Total beta = 24.00000, Total charge =  0.00000
