  ==> Input File <==

--------------------------------------------------------------------------
set {
	reference rhf
	basis 6-31G*
}

set_num_threads( 1 )
memory 2 gb

molecule MOL {
0 1

H	 2.304487	 0.781090	 -1.169969
O	 1.438329	 0.389946	 -1.229665
C	 1.050492	 0.053836	 0.000068
C	 -0.318135	 -0.576402	 0.000164
O	 1.733048	 0.246022	 0.953051
C	 -1.454360	 0.441875	 -0.000474
H	 -0.374042	 -1.230163	 -0.866135
H	 -0.374274	 -1.229227	 0.867154
C	 -2.826123	 -0.230780	 0.000056
H	 -1.357605	 1.085198	 -0.868380
H	 -1.357504	 1.086451	 0.866496
H	 -2.959731	 -0.858053	 -0.876869
H	 -3.619374	 0.509403	 -0.000080
H	 -2.959371	 -0.857318	 0.877556

	symmetry c1
}
set optking {
	frozen_dihedral = ("
		7 4 6 10,
		1 2 3 5
	")
}

ee = energy('scf')
oeprop('DIPOLE', 'QUADRUPOLE', 'MULLIKEN_CHARGES')
f=open( 'psi4out.xyz', 'w' )
f.write( "14  " )
f.write( str(ee) + "\n" )
f.write( MOL.save_string_xyz() )
f.close()
--------------------------------------------------------------------------

    Molecular point group: c1

    Geometry (in Angstrom), charge = 0, multiplicity = 1:

       Center              X                  Y                   Z               Mass
    ------------   -----------------  -----------------  -----------------  -----------------
           H          2.334386564172     0.716169513115    -1.106302007408     1.007825032070
           O          1.468228564172     0.325025513115    -1.165998007408    15.994914619560
           C          1.080391564172    -0.011084486885     0.063734992592    12.000000000000
           C         -0.288235435828    -0.641322486885     0.063830992592    12.000000000000
           O          1.762947564172     0.181101513115     1.016717992592    15.994914619560
           C         -1.424460435828     0.376954513115     0.063192992592    12.000000000000
           H         -0.344142435828    -1.295083486885    -0.802468007408     1.007825032070
           H         -0.344374435828    -1.294147486885     0.930820992592     1.007825032070
           C         -2.796223435828    -0.295700486885     0.063722992592    12.000000000000
           H         -1.327705435828     1.020277513115    -0.804713007408     1.007825032070
           H         -1.327604435828     1.021530513115     0.930162992592     1.007825032070
           H         -2.929831435828    -0.922973486885    -0.813202007408     1.007825032070
           H         -3.589474435828     0.444482513115     0.063586992592     1.007825032070
           H         -2.929471435828    -0.922238486885     0.941222992592     1.007825032070

  Charge       = 0
  Multiplicity = 1
  Basis Set: 6-31G*
  Basis Set:

    Orbital Energies (a.u.)
    -----------------------

    Doubly Occupied:

       1A    -20.613241     2A    -20.550260     3A    -11.380297
       4A    -11.239196     5A    -11.236038     6A    -11.221860
       7A     -1.474357     8A     -1.364802     9A     -1.087575
      10A     -0.980116    11A     -0.853351    12A     -0.809307
      13A     -0.701896    14A     -0.684967    15A     -0.639279
      16A     -0.637031    17A     -0.594523    18A     -0.567957
      19A     -0.549900    20A     -0.519009    21A     -0.501398
      22A     -0.488203    23A     -0.472752    24A     -0.438314

  @DF-RHF Final Energy:  -305.87871815650090

   => Energetics <=

    Nuclear Repulsion Energy =            240.0857942573744879
    One-Electron Energy =                -892.7177345359420997
    Two-Electron Energy =                 346.7532221220666315
    DFT Exchange-Correlation Energy =       0.0000000000000000
    Empirical Dispersion Energy =           0.0000000000000000
    PCM Polarization Energy =               0.0000000000000000
    EFP Energy =                            0.0000000000000000
    Total Energy =                       -305.8787181565010087

  Mulliken Charges: (a.u.)
   Center  Symbol    Alpha    Beta     Spin     Total
       1     H     0.26803  0.26803  0.00000  0.46395
       2     O     4.34687  4.34687  0.00000 -0.69373
       3     C     2.63460  2.63460  0.00000  0.73080
       4     C     3.19689  3.19689  0.00000 -0.39379
       5     O     4.27771  4.27771  0.00000 -0.55542
       6     C     3.16385  3.16385  0.00000 -0.32770
       7     H     0.40301  0.40301  0.00000  0.19398
       8     H     0.39927  0.39927  0.00000  0.20146
       9     C     3.24187  3.24187  0.00000 -0.48374
      10     H     0.40914  0.40914  0.00000  0.18173
      11     H     0.40880  0.40880  0.00000  0.18241
      12     H     0.41820  0.41820  0.00000  0.16360
      13     H     0.41424  0.41424  0.00000  0.17153
      14     H     0.41753  0.41753  0.00000  0.16493

   Total alpha = 24.00000, Total beta = 24.00000, Total charge =  0.00000
