  ==> Input File <==

--------------------------------------------------------------------------
set {
	reference rhf
	basis 6-31G*
}

set_num_threads( 1 )
memory 2 gb

molecule MOL {
0 1

O	 -2.821601	 1.309235	 -0.001213
C	 -2.668563	 0.129746	 -0.000350
C	 -3.801572	 -0.864014	 -0.000442
O	 -1.481751	 -0.454642	 0.000584
H	 -4.417280	 -0.689587	 -0.874708
H	 -3.443784	 -1.883046	 -0.000565
H	 -4.417179	 -0.689832	 0.873954
C	 -0.334255	 0.388708	 0.000906
C	 0.891947	 -0.504646	 0.000751
H	 -0.365390	 1.025305	 -0.873475
H	 -0.365484	 1.024911	 0.875569
C	 2.191998	 0.301789	 0.000897
H	 0.855148	 -1.151283	 -0.871571
H	 0.855132	 -1.151660	 0.872805
C	 3.441114	 -0.581407	 0.000108
H	 2.215074	 0.954890	 -0.869742
H	 2.215465	 0.953923	 0.872248
C	 4.258786	 -0.454730	 -1.284505
H	 3.147376	 -1.619198	 0.140761
H	 4.064863	 -0.322222	 0.852652
H	 3.671753	 -0.739960	 -2.152866
H	 5.136850	 -1.092209	 -1.255196
H	 4.596416	 0.566657	 -1.435452

	symmetry c1
}
set optking {
	frozen_dihedral = ("
		13 9 8 10,
		2 4 8 10,
		16 12 9 13,
		1 2 4 8
	")
}

ee = energy('scf')
oeprop('DIPOLE', 'QUADRUPOLE', 'MULLIKEN_CHARGES')
f=open( 'psi4out.xyz', 'w' )
f.write( "23  " )
f.write( str(ee) + "\n" )
f.write( MOL.save_string_xyz() )
f.close()
--------------------------------------------------------------------------

    Molecular point group: c1

    Geometry (in Angstrom), charge = 0, multiplicity = 1:

       Center              X                  Y                   Z               Mass
    ------------   -----------------  -----------------  -----------------  -----------------
           O         -2.766091574957     1.387609556957     0.146961101070    15.994914619560
           C         -2.613053574957     0.208120556957     0.147824101070    12.000000000000
           C         -3.746062574957    -0.785639443043     0.147732101070    12.000000000000
           O         -1.426241574957    -0.376267443043     0.148758101070    15.994914619560
           H         -4.361770574957    -0.611212443043    -0.726533898930     1.007825032070
           H         -3.388274574957    -1.804671443043     0.147609101070     1.007825032070
           H         -4.361669574957    -0.611457443043     1.022128101070     1.007825032070
           C         -0.278745574957     0.467082556957     0.149080101070    12.000000000000
           C          0.947456425043    -0.426271443043     0.148925101070    12.000000000000
           H         -0.309880574957     1.103679556957    -0.725300898930     1.007825032070
           H         -0.309974574957     1.103285556957     1.023743101070     1.007825032070
           C          2.247507425043     0.380163556957     0.149071101070    12.000000000000
           H          0.910657425043    -1.072908443043    -0.723396898930     1.007825032070
           H          0.910641425043    -1.073285443043     1.020979101070     1.007825032070
           C          3.496623425043    -0.503032443043     0.148282101070    12.000000000000
           H          2.270583425043     1.033264556957    -0.721567898930     1.007825032070
           H          2.270974425043     1.032297556957     1.020422101070     1.007825032070
           C          4.314295425043    -0.376355443043    -1.136330898930    12.000000000000
           H          3.202885425043    -1.540823443043     0.288935101070     1.007825032070
           H          4.120372425043    -0.243847443043     1.000826101070     1.007825032070
           H          3.727262425043    -0.661585443043    -2.004691898930     1.007825032070
           H          5.192359425043    -1.013834443043    -1.107021898930     1.007825032070
           H          4.651925425043     0.645031556957    -1.287277898930     1.007825032070

  Charge       = 0
  Multiplicity = 1
  Basis Set: 6-31G*
  Basis Set:

    Orbital Energies (a.u.)
    -----------------------

    Doubly Occupied:

       1A    -20.602891     2A    -20.540454     3A    -11.374015
       4A    -11.281033     5A    -11.232372     6A    -11.224659
       7A    -11.222333     8A    -11.220034     9A    -11.213248
      10A     -1.467874    11A     -1.360654    12A     -1.094529
      13A     -1.041873    14A     -1.002806    15A     -0.930604
      16A     -0.845356    17A     -0.800576    18A     -0.773751
      19A     -0.691253    20A     -0.685321    21A     -0.669066
      22A     -0.636818    23A     -0.613456    24A     -0.595130
      25A     -0.580591    26A     -0.571264    27A     -0.549469
      28A     -0.532708    29A     -0.528420    30A     -0.504269
      31A     -0.499726    32A     -0.476100    33A     -0.464233
      34A     -0.462680    35A     -0.451258    36A     -0.435130

  @DF-RHF Final Energy:  -422.97367816199096

   => Energetics <=

    Nuclear Repulsion Energy =            451.5912717647058798
    One-Electron Energy =               -1470.7779410180812647
    Two-Electron Energy =                 596.2129910913838557
    DFT Exchange-Correlation Energy =       0.0000000000000000
    Empirical Dispersion Energy =           0.0000000000000000
    PCM Polarization Energy =               0.0000000000000000
    EFP Energy =                            0.0000000000000000
    Total Energy =                       -422.9736781619915291

  Mulliken Charges: (a.u.)
   Center  Symbol    Alpha    Beta     Spin     Total
       1     O     4.28392  4.28392  0.00000 -0.56783
       2     C     2.61534  2.61534  0.00000  0.76932
       3     C     3.28774  3.28774  0.00000 -0.57548
       4     O     4.31267  4.31267  0.00000 -0.62534
       5     H     0.39751  0.39751  0.00000  0.20499
       6     H     0.39990  0.39990  0.00000  0.20020
       7     H     0.39751  0.39751  0.00000  0.20498
       8     C     2.99624  2.99624  0.00000  0.00753
       9     C     3.16726  3.16726  0.00000 -0.33452
      10     H     0.41063  0.41063  0.00000  0.17874
      11     H     0.41066  0.41066  0.00000  0.17869
      12     C     3.16358  3.16358  0.00000 -0.32715
      13     H     0.41415  0.41415  0.00000  0.17171
      14     H     0.41358  0.41358  0.00000  0.17284
      15     C     3.15448  3.15448  0.00000 -0.30895
      16     H     0.41787  0.41787  0.00000  0.16425
      17     H     0.41813  0.41813  0.00000  0.16374
      18     C     3.24097  3.24097  0.00000 -0.48195
      19     H     0.41858  0.41858  0.00000  0.16285
      20     H     0.41850  0.41850  0.00000  0.16300
      21     H     0.42143  0.42143  0.00000  0.15715
      22     H     0.41910  0.41910  0.00000  0.16181
      23     H     0.42028  0.42028  0.00000  0.15945

   Total alpha = 36.00000, Total beta = 36.00000, Total charge =  0.00000
