  ==> Input File <==

--------------------------------------------------------------------------
set {
	reference rhf
	basis cc-pvtz
}

set_num_threads( 4 )
memory 2 gb

molecule MOL {
0 1

H	 1.825208	 -0.849293	 -0.899175
O	 1.583947	 -0.677544	 -0.001533
C	 0.489979	 0.078084	 0.002623
C	 -0.763662	 -0.754014	 0.000816
O	 0.539051	 1.259395	 -0.000088
C	 -2.038001	 0.074705	 -0.000833
H	 -0.712945	 -1.405886	 -0.864342
H	 -0.715137	 -1.405770	 0.866182
H	 -2.087267	 0.710831	 -0.874232
H	 -2.903419	 -0.576199	 -0.001922
H	 -2.089467	 0.710909	 0.872389

	symmetry c1
}
set optking {
	frozen_dihedral = ("
		1 2 3 5
	")
}

ee = optimize('scf')
oeprop('DIPOLE', 'QUADRUPOLE', 'MULLIKEN_CHARGES')
f=open( 'psi4out.xyz', 'w' )
f.write( "11  " )
f.write( str(ee) + "\n" )
f.write( MOL.save_string_xyz() )
f.close()
--------------------------------------------------------------------------

    Molecular point group: c1
  Charge       = 0
  Multiplicity = 1
  Basis Set: CC-PVTZ
  Basis Set:
  @DF-RHF Final Energy:  -266.93183861613915
    Total Energy =                       -266.9318386161392596
    Molecular point group: c1
  Basis Set: CC-PVTZ
  Basis Set:
  Basis Set: CC-PVTZ
  Basis Set:
  @DF-RHF Final Energy:  -266.93210925597418
    Total Energy =                       -266.9321092559741260
  Basis Set: CC-PVTZ
  Basis Set:
  Basis Set: CC-PVTZ
  Basis Set:
  @DF-RHF Final Energy:  -266.93243343474791
    Total Energy =                       -266.9324334347478498
  Basis Set: CC-PVTZ
  Basis Set:
  Basis Set: CC-PVTZ
  Basis Set:
  @DF-RHF Final Energy:  -266.93358040657944
    Total Energy =                       -266.9335804065796083
  Basis Set: CC-PVTZ
  Basis Set:
  Basis Set: CC-PVTZ
  Basis Set:
  @DF-RHF Final Energy:  -266.93359404527837
    Total Energy =                       -266.9335940452783689
  Basis Set: CC-PVTZ
  Basis Set:
  Charge       = 0
  Multiplicity = 1
  Basis Set: CC-PVTZ
  Basis Set:

    Orbital Energies (a.u.)
    -----------------------

    Doubly Occupied:

       1A    -20.586724     2A    -20.551844     3A    -11.375041
       4A    -11.245187     5A    -11.220437     6A     -1.464331
       7A     -1.371533     8A     -1.065688     9A     -0.911561
      10A     -0.809712    11A     -0.714533    12A     -0.678076
      13A     -0.661922    14A     -0.615684    15A     -0.569998
      16A     -0.530604    17A     -0.523341    18A     -0.501118
      19A     -0.497803    20A     -0.449469

  @DF-RHF Final Energy:  -266.93359509321283

   => Energetics <=

    Nuclear Repulsion Energy =            179.3645341247223257
    One-Electron Energy =                -719.9070474760937941
    Two-Electron Energy =                 273.6089182581589512
    DFT Exchange-Correlation Energy =       0.0000000000000000
    Empirical Dispersion Energy =           0.0000000000000000
    PCM Polarization Energy =               0.0000000000000000
    EFP Energy =                            0.0000000000000000
    Total Energy =                       -266.9335950932124888
    Molecular point group: c1
  Basis Set: CC-PVTZ
  Basis Set:

  -Total Gradient:
     Atom            X                  Y                   Z
    ------   -----------------  -----------------  -----------------
       1       -0.001252537613    -0.001913569111    -0.000051044583
       2        0.001412176071     0.002507486117     0.000944144615
       3       -0.000071395478    -0.000562002899    -0.002875136836
       4       -0.000006717544     0.000041845854    -0.000009236419
       5       -0.000062075451    -0.000030392655     0.001991470153
       6       -0.000005384509    -0.000011601774     0.000001714199
       7       -0.000012097030    -0.000015640098    -0.000002992044
       8       -0.000006065830    -0.000009423327     0.000001018719
       9        0.000004617595    -0.000005037823     0.000001847508
      10       -0.000003461136    -0.000000629931    -0.000001616267
      11        0.000002940926    -0.000001034354    -0.000000169043

  **** Optimization is complete! (in 6 steps) ****
    Final optimized geometry and variables:
    Molecular point group: c1

    Geometry (in Angstrom), charge = 0, multiplicity = 1:

    H            1.949054520013    -0.847306470016    -0.847483906082
    O            1.622387724452    -0.668391163373     0.018628070845
    C            0.491672221364     0.086809458756    -0.010603689182
    C           -0.769631576396    -0.735888255408     0.005389678004
    O            0.535556049958     1.259411061631     0.013532154337
    C           -2.044635882697     0.090917332443     0.024974247923
    H           -0.738034856198    -1.393700420731    -0.858448696288
    H           -0.703909034304    -1.388939222621     0.869061394849
    H           -2.110237646755     0.727312578625    -0.847578829573
    H           -2.910842079346    -0.559016150164     0.040142729365
    H           -2.079420987305     0.727667939146     0.898619442331

  Mulliken Charges: (a.u.)
   Center  Symbol    Alpha    Beta     Spin     Total
       1     H     0.38763  0.38763  0.00000  0.22475
       2     O     4.17543  4.17543  0.00000 -0.35085
       3     C     2.80241  2.80241  0.00000  0.39518
       4     C     3.10245  3.10245  0.00000 -0.20491
       5     O     4.16073  4.16073  0.00000 -0.32147
       6     C     3.13923  3.13923  0.00000 -0.27846
       7     H     0.44932  0.44932  0.00000  0.10135
       8     H     0.43781  0.43781  0.00000  0.12437
       9     H     0.44897  0.44897  0.00000  0.10206
      10     H     0.45002  0.45002  0.00000  0.09997
      11     H     0.44599  0.44599  0.00000  0.10801

   Total alpha = 20.00000, Total beta = 20.00000, Total charge =  0.00000
