  ==> Input File <==

--------------------------------------------------------------------------
set {
	reference rhf
	basis cc-pvtz
}

set_num_threads( 4 )
memory 2 gb

molecule MOL {
0 1

H	 -3.642953	 0.223825	 0.000000
C	 -2.571844	 0.155001	 0.000000
C	 -1.957580	 -1.086132	 0.000000
C	 -1.807160	 1.303787	 0.000000
H	 -2.551493	 -1.979629	 0.000000
C	 -0.582719	 -1.174294	 0.000000
H	 -2.279934	 2.266806	 0.000000
C	 -0.427220	 1.213406	 0.000000
H	 -0.094904	 -2.127556	 0.000000
C	 0.196908	 -0.024061	 0.000000
H	 0.151409	 2.115254	 0.000000
C	 1.690041	 -0.173233	 0.000000
C	 2.505239	 0.598734	 -1.012017
O	 2.225611	 -0.888831	 0.785141
H	 2.217759	 0.330118	 -2.021561
H	 3.547546	 0.367331	 -0.861092
H	 2.351113	 1.664921	 -0.895953

	symmetry c1
}
set optking {
	frozen_dihedral = ("
		13 12 10 8
	")
}

ee = optimize('scf')
oeprop('DIPOLE', 'QUADRUPOLE', 'MULLIKEN_CHARGES')
f=open( 'psi4out.xyz', 'w' )
f.write( "17  " )
f.write( str(ee) + "\n" )
f.write( MOL.save_string_xyz() )
f.close()
--------------------------------------------------------------------------

    Molecular point group: c1
  Charge       = 0
  Multiplicity = 1
  Basis Set: CC-PVTZ
  Basis Set:
  @DF-RHF Final Energy:  -382.60078522238445
    Total Energy =                       -382.6007852223845020
    Molecular point group: c1
  Basis Set: CC-PVTZ
  Basis Set:
  Basis Set: CC-PVTZ
  Basis Set:
  @DF-RHF Final Energy:  -382.59985922645728
    Total Energy =                       -382.5998592264575109
  Basis Set: CC-PVTZ
  Basis Set:
  Basis Set: CC-PVTZ
  Basis Set:
  @DF-RHF Final Energy:  -382.60147659992316
    Total Energy =                       -382.6014765999231031
  Basis Set: CC-PVTZ
  Basis Set:
  Basis Set: CC-PVTZ
  Basis Set:
  @DF-RHF Final Energy:  -382.60159207183062
    Total Energy =                       -382.6015920718306234
  Basis Set: CC-PVTZ
  Basis Set:
  Basis Set: CC-PVTZ
  Basis Set:
  @DF-RHF Final Energy:  -382.60159726473086
    Total Energy =                       -382.6015972647310264
  Basis Set: CC-PVTZ
  Basis Set:
  Basis Set: CC-PVTZ
  Basis Set:
  @DF-RHF Final Energy:  -382.60160036137455
    Total Energy =                       -382.6016003613740395
  Basis Set: CC-PVTZ
  Basis Set:
  Basis Set: CC-PVTZ
  Basis Set:
  @DF-RHF Final Energy:  -382.60160145196653
    Total Energy =                       -382.6016014519668715
  Basis Set: CC-PVTZ
  Basis Set:
  Charge       = 0
  Multiplicity = 1
  Basis Set: CC-PVTZ
  Basis Set:

    Orbital Energies (a.u.)
    -----------------------

    Doubly Occupied:

       1A    -20.543878     2A    -11.328909     3A    -11.245531
       4A    -11.244205     5A    -11.241338     6A    -11.239994
       7A    -11.239103     8A    -11.237456     9A    -11.230234
      10A     -1.404477    11A     -1.171223    12A     -1.053545
      13A     -1.030359    14A     -1.000368    15A     -0.863610
      16A     -0.840498    17A     -0.764501    18A     -0.709520
      19A     -0.662712    20A     -0.650887    21A     -0.627467
      22A     -0.621337    23A     -0.603324    24A     -0.592603
      25A     -0.560988    26A     -0.530342    27A     -0.517791
      28A     -0.506412    29A     -0.496477    30A     -0.414405
      31A     -0.349575    32A     -0.346939

  @DF-RHF Final Energy:  -382.60160142421859

   => Energetics <=

    Nuclear Repulsion Energy =            404.1038026679744348
    One-Electron Energy =               -1319.6707913139248376
    Two-Electron Energy =                 532.9653872217320441
    DFT Exchange-Correlation Energy =       0.0000000000000000
    Empirical Dispersion Energy =           0.0000000000000000
    PCM Polarization Energy =               0.0000000000000000
    EFP Energy =                            0.0000000000000000
    Total Energy =                       -382.6016014242184156
    Molecular point group: c1
  Basis Set: CC-PVTZ
  Basis Set:

  -Total Gradient:
     Atom            X                  Y                   Z
    ------   -----------------  -----------------  -----------------
       1       -0.000000932525     0.000005849727     0.000006969592
       2        0.000092513248    -0.000153702186    -0.000012286341
       3       -0.000030518220     0.000160955511    -0.000050280237
       4        0.000002617052    -0.000173917090     0.000006806001
       5       -0.000004555108     0.000001651737    -0.000001870829
       6        0.000018610312     0.000242614943     0.000090247726
       7       -0.000008524920    -0.000007681555    -0.000009918419
       8       -0.000078105958     0.000277592041     0.003619282591
       9        0.000051059853    -0.000216190994    -0.000045316437
      10       -0.000127441079    -0.001437184622    -0.006288026676
      11        0.000111031660     0.000009123501    -0.000001054963
      12       -0.000030008752     0.003843249234     0.004732214137
      13        0.000273028481    -0.002638285765    -0.002000328573
      14        0.000028627296    -0.000032165435    -0.000008728776
      15       -0.000176081269     0.000038956025    -0.000006908325
      16       -0.000019162079     0.000008025600     0.000005495312
      17       -0.000102157986     0.000071109327    -0.000036295782

  **** Optimization is complete! (in 8 steps) ****
    Final optimized geometry and variables:
    Molecular point group: c1

    Geometry (in Angstrom), charge = 0, multiplicity = 1:

    H           -3.636234382519     0.254067605913     0.058993228085
    C           -2.565696018658     0.180041255626     0.044430103273
    C           -1.957332718699    -1.062432392995     0.045707225375
    C           -1.794399117065     1.325242588092     0.031782341219
    H           -2.554792883892    -1.953559144675     0.062219003158
    C           -0.581121733889    -1.157667404657     0.041327513296
    H           -2.262739058264     2.290507527888     0.046275464404
    C           -0.415468961458     1.229864974506     0.000835736527
    H           -0.102469006806    -2.116759647391     0.072478324702
    C            0.198468338663    -0.011627195902    -0.002124070113
    H            0.173763884887     2.126516112638    -0.009662550232
    C            1.693377506408    -0.156247409028     0.039108149294
    C            2.509802073646     0.646078464584    -0.945930945680
    O            2.202533438019    -0.941526222890     0.770659476689
    H            2.225660039188     0.358876924615    -1.952255442222
    H            3.558801697139     0.448554096067    -0.788832555876
    H            2.319303877126     1.708009046516    -0.851173213551

  Mulliken Charges: (a.u.)
   Center  Symbol    Alpha    Beta     Spin     Total
       1     H     0.42095  0.42095  0.00000  0.15810
       2     C     3.07917  3.07917  0.00000 -0.15834
       3     C     3.06736  3.06736  0.00000 -0.13471
       4     C     3.06892  3.06892  0.00000 -0.13784
       5     H     0.42099  0.42099  0.00000  0.15803
       6     C     3.08442  3.08442  0.00000 -0.16884
       7     H     0.42181  0.42181  0.00000  0.15638
       8     C     3.09349  3.09349  0.00000 -0.18698
       9     H     0.41447  0.41447  0.00000  0.17107
      10     C     2.98016  2.98016  0.00000  0.03968
      11     H     0.42333  0.42333  0.00000  0.15335
      12     C     2.86818  2.86818  0.00000  0.26364
      13     C     3.15237  3.15237  0.00000 -0.30475
      14     O     4.17140  4.17140  0.00000 -0.34280
      15     H     0.44591  0.44591  0.00000  0.10818
      16     H     0.43542  0.43542  0.00000  0.12917
      17     H     0.45167  0.45167  0.00000  0.09667

   Total alpha = 32.00000, Total beta = 32.00000, Total charge =  0.00000
