  ==> Input File <==

--------------------------------------------------------------------------
set {
	reference rhf
	basis cc-pvtz
}

set_num_threads( 4 )
memory 2 gb

molecule MOL {
0 1

H	 -3.268214	 -0.875720	 0.463107
C	 -2.806015	 0.000007	 0.024886
N	 -1.391133	 0.000016	 0.301321
H	 -3.029448	 0.000055	 -1.045738
H	 -3.268126	 0.875758	 0.463150
C	 -0.850907	 -1.338119	 0.406800
C	 -1.059104	 0.782966	 1.471910
H	 -1.309375	 -1.889301	 1.233151
H	 -1.069499	 -1.877551	 -0.507156
C	 0.651356	 -1.295301	 0.615093
H	 -1.429679	 1.792007	 1.335531
H	 -1.531761	 0.376374	 2.370869
C	 0.443159	 0.825784	 1.680203
H	 1.021931	 -2.304343	 0.751472
H	 1.124012	 -0.888710	 -0.283866
N	 0.983384	 -0.512352	 1.785682
H	 0.661750	 1.365216	 2.594159
H	 0.901627	 1.376965	 0.853852
C	 2.398266	 -0.512343	 2.062117
H	 2.748955	 -1.528218	 2.194703
H	 2.595857	 0.030994	 2.977707
H	 2.987015	 -0.053184	 1.262926

	symmetry c1
}
set optking {
	frozen_dihedral = ("
		6 3 2 4
	")
}

ee = optimize('scf')
oeprop('DIPOLE', 'QUADRUPOLE', 'MULLIKEN_CHARGES')
f=open( 'psi4out.xyz', 'w' )
f.write( "22  " )
f.write( str(ee) + "\n" )
f.write( MOL.save_string_xyz() )
f.close()
--------------------------------------------------------------------------

    Molecular point group: c1
  Charge       = 0
  Multiplicity = 1
  Basis Set: CC-PVTZ
  Basis Set:
  @DF-RHF Final Energy:  -344.34650385455990
    Total Energy =                       -344.3465038545600692
    Molecular point group: c1
  Basis Set: CC-PVTZ
  Basis Set:
  Basis Set: CC-PVTZ
  Basis Set:
  @DF-RHF Final Energy:  -344.34722172085793
    Total Energy =                       -344.3472217208582151
  Basis Set: CC-PVTZ
  Basis Set:
  Basis Set: CC-PVTZ
  Basis Set:
  @DF-RHF Final Energy:  -344.34730930229011
    Total Energy =                       -344.3473093022898865
  Basis Set: CC-PVTZ
  Basis Set:
  Charge       = 0
  Multiplicity = 1
  Basis Set: CC-PVTZ
  Basis Set:

    Orbital Energies (a.u.)
    -----------------------

    Doubly Occupied:

       1A    -15.537276     2A    -15.537245     3A    -11.237413
       4A    -11.237303     5A    -11.236659     6A    -11.236609
       7A    -11.234092     8A    -11.233924     9A     -1.256378
      10A     -1.205119    11A     -1.025278    12A     -0.992453
      13A     -0.912419    14A     -0.867297    15A     -0.836621
      16A     -0.755981    17A     -0.666492    18A     -0.636876
      19A     -0.631069    20A     -0.625718    21A     -0.622839
      22A     -0.582243    23A     -0.549828    24A     -0.548707
      25A     -0.541653    26A     -0.519989    27A     -0.497034
      28A     -0.488634    29A     -0.464845    30A     -0.456538
      31A     -0.352394    32A     -0.347776

  @DF-RHF Final Energy:  -344.34731239811606

   => Energetics <=

    Nuclear Repulsion Energy =            421.7516257385237850
    One-Electron Energy =               -1302.4484718189621617
    Two-Electron Energy =                 536.3495336823222033
    DFT Exchange-Correlation Energy =       0.0000000000000000
    Empirical Dispersion Energy =           0.0000000000000000
    PCM Polarization Energy =               0.0000000000000000
    EFP Energy =                            0.0000000000000000
    Total Energy =                       -344.3473123981161734
    Molecular point group: c1
  Basis Set: CC-PVTZ
  Basis Set:

  -Total Gradient:
     Atom            X                  Y                   Z
    ------   -----------------  -----------------  -----------------
       1       -0.000041245497    -0.000046192759     0.000045348940
       2       -0.000147516459    -0.006328364068     0.001272998609
       3        0.000884157240     0.001204079412    -0.004941395456
       4       -0.000058361958     0.005060271766     0.000009673020
       5       -0.000020969196    -0.000016185531    -0.000005254152
       6       -0.000781740470     0.000196878193     0.003670327222
       7        0.000024441428     0.000007022138    -0.000192158606
       8       -0.000014720257     0.000002440519     0.000001665727
       9        0.000003231642    -0.000045436530     0.000002753971
      10        0.000072908848    -0.000027289456    -0.000007878924
      11       -0.000003305883     0.000006886982     0.000032777994
      12        0.000026633272    -0.000001249747    -0.000005070643
      13        0.000035065309     0.000031300382     0.000072529386
      14        0.000029368870     0.000003851666     0.000019265093
      15        0.000001203539    -0.000004641947    -0.000005882797
      16       -0.000001021451    -0.000026971385     0.000027945283
      17        0.000050038139    -0.000002397512     0.000020758249
      18       -0.000024439828    -0.000011479611     0.000007824937
      19       -0.000008838469    -0.000000957115    -0.000018284284
      20       -0.000008069132    -0.000003905277    -0.000002641900
      21       -0.000015403532     0.000001715376    -0.000003873237
      22       -0.000001416161     0.000000624505    -0.000001428437

  **** Optimization is complete! (in 4 steps) ****
    Final optimized geometry and variables:
    Molecular point group: c1

    Geometry (in Angstrom), charge = 0, multiplicity = 1:

    H           -3.127401053279    -0.595655342818    -0.573163954250
    C           -2.609827885443     0.247910171191    -1.028737130316
    N           -1.189181735216     0.261401968659    -0.742781989892
    H           -2.784493425385     0.241722506489    -2.098652064754
    H           -3.069213985013     1.153072749893    -0.651527970691
    C           -0.646766589760    -1.076592838473    -0.630052926349
    C           -0.857851487040     1.031817736090     0.439605721875
    H           -1.103776369476    -1.618212281198     0.202692027393
    H           -0.871212252541    -1.625249452155    -1.537930954980
    C            0.856398286491    -1.037538121264    -0.429753025713
    H           -1.227362688710     2.042293850893     0.315844750561
    H           -1.324776064998     0.615396634968     1.336923222608
    C            0.645352123386     1.078213662772     0.643226910549
    H            1.225563704399    -2.047646307103    -0.295928039739
    H            1.325853795688    -0.631156476820    -1.330526328859
    N            1.193509433792    -0.256992626339     0.740533430271
    H            0.864998990214     1.614982918684     1.558736516674
    H            1.097207446881     1.635685555785    -0.182697550764
    C            2.609834417317    -0.250942616226     1.007645212055
    H            2.966470921145    -1.265652637824     1.133827403723
    H            2.810804517503     0.289797760007     1.924128287362
    H            3.191272948581     0.214275147100     0.206480049796

  Mulliken Charges: (a.u.)
   Center  Symbol    Alpha    Beta     Spin     Total
       1     H     0.46561  0.46561  0.00000  0.06877
       2     C     3.09630  3.09630  0.00000 -0.19261
       3     N     3.61587  3.61587  0.00000 -0.23173
       4     H     0.44939  0.44939  0.00000  0.10123
       5     H     0.45644  0.45644  0.00000  0.08712
       6     C     3.03650  3.03650  0.00000 -0.07301
       7     C     3.03394  3.03394  0.00000 -0.06789
       8     H     0.46715  0.46715  0.00000  0.06569
       9     H     0.45348  0.45348  0.00000  0.09303
      10     C     3.03647  3.03647  0.00000 -0.07295
      11     H     0.45385  0.45385  0.00000  0.09229
      12     H     0.46873  0.46873  0.00000  0.06254
      13     C     3.03660  3.03660  0.00000 -0.07320
      14     H     0.45392  0.45392  0.00000  0.09216
      15     H     0.46811  0.46811  0.00000  0.06378
      16     N     3.61284  3.61284  0.00000 -0.22568
      17     H     0.45393  0.45393  0.00000  0.09214
      18     H     0.46835  0.46835  0.00000  0.06330
      19     C     3.09849  3.09849  0.00000 -0.19699
      20     H     0.45199  0.45199  0.00000  0.09602
      21     H     0.45201  0.45201  0.00000  0.09599
      22     H     0.47000  0.47000  0.00000  0.05999

   Total alpha = 32.00000, Total beta = 32.00000, Total charge = -0.00000
