  ==> Input File <==

--------------------------------------------------------------------------
set {
	reference rhf
	basis cc-pvtz
}

set_num_threads( 4 )
memory 2 gb

molecule MOL {
0 1

H	 1.240328	 0.073097	 -0.956664
C	 0.848385	 0.440008	 0.000011
C	 -0.623497	 0.751021	 0.000090
O	 1.568857	 0.563628	 0.928925
C	 -1.523725	 -0.474323	 -0.000013
H	 -0.813143	 1.382932	 -0.864897
H	 -0.813071	 1.382716	 0.865253
H	 -1.342980	 -1.087348	 -0.873016
H	 -2.565269	 -0.177464	 0.000070
H	 -1.342898	 -1.087564	 0.872820

	symmetry c1
}
set optking {
	frozen_dihedral = ("
		4 2 3 6
	")
}

ee = optimize('scf')
oeprop('DIPOLE', 'QUADRUPOLE', 'MULLIKEN_CHARGES')
f=open( 'psi4out.xyz', 'w' )
f.write( "10  " )
f.write( str(ee) + "\n" )
f.write( MOL.save_string_xyz() )
f.close()
--------------------------------------------------------------------------

    Molecular point group: c1
  Charge       = 0
  Multiplicity = 1
  Basis Set: CC-PVTZ
  Basis Set:
  @DF-RHF Final Energy:  -192.02215392681813
    Total Energy =                       -192.0221539268181346
    Molecular point group: c1
  Basis Set: CC-PVTZ
  Basis Set:
  Basis Set: CC-PVTZ
  Basis Set:
  @DF-RHF Final Energy:  -192.02302417747148
    Total Energy =                       -192.0230241774715410
  Basis Set: CC-PVTZ
  Basis Set:
  Basis Set: CC-PVTZ
  Basis Set:
  @DF-RHF Final Energy:  -192.02171691180524
    Total Energy =                       -192.0217169118052993
  Basis Set: CC-PVTZ
  Basis Set:
  Basis Set: CC-PVTZ
  Basis Set:
  @DF-RHF Final Energy:  -192.02314431779595
    Total Energy =                       -192.0231443177959818
  Basis Set: CC-PVTZ
  Basis Set:
  Charge       = 0
  Multiplicity = 1
  Basis Set: CC-PVTZ
  Basis Set:

    Orbital Energies (a.u.)
    -----------------------

    Doubly Occupied:

       1A    -20.553577     2A    -11.322629     3A    -11.238036
       4A    -11.232638     5A     -1.408403     6A     -1.067800
       7A     -0.905088     8A     -0.793008     9A     -0.680387
      10A     -0.643990    11A     -0.612396    12A     -0.573475
      13A     -0.544403    14A     -0.513851    15A     -0.500389
      16A     -0.414896

  @DF-RHF Final Energy:  -192.02315443683290

   => Energetics <=

    Nuclear Repulsion Energy =            117.8889320672225693
    One-Electron Energy =                -493.8142415119056068
    Two-Electron Energy =                 183.9021550078502401
    DFT Exchange-Correlation Energy =       0.0000000000000000
    Empirical Dispersion Energy =           0.0000000000000000
    PCM Polarization Energy =               0.0000000000000000
    EFP Energy =                            0.0000000000000000
    Total Energy =                       -192.0231544368327832
    Molecular point group: c1
  Basis Set: CC-PVTZ
  Basis Set:

  -Total Gradient:
     Atom            X                  Y                   Z
    ------   -----------------  -----------------  -----------------
       1       -0.000000403271     0.000020553150     0.000000211806
       2        0.000168079339     0.000845882668    -0.000703958225
       3        0.000090327615     0.000564284114     0.000730958124
       4       -0.000185034056    -0.000698585792     0.000398064047
       5        0.000109622778     0.000033215958    -0.000034814445
       6       -0.000132188754    -0.000749259985    -0.000376466712
       7        0.000021180571    -0.000008483101     0.000001740944
       8       -0.000013138202    -0.000018122572     0.000001534508
       9       -0.000057072173     0.000009212596    -0.000005344247
      10       -0.000001373847     0.000001302962    -0.000011925801

  **** Optimization is complete! (in 5 steps) ****
    Final optimized geometry and variables:
    Molecular point group: c1

    Geometry (in Angstrom), charge = 0, multiplicity = 1:

    H            1.117820157249    -0.335243210615    -1.178231768005
    C            0.763560843769     0.110055957934    -0.239151935816
    C           -0.696142063028     0.471261711472    -0.213495744948
    O            1.507885229664     0.249407039006     0.668583602477
    C           -1.568480936069    -0.787103499459    -0.241601238371
    H           -0.910636055850     1.074224890949    -1.091099515102
    H           -0.891545224116     1.061213568849     0.671263345104
    H           -1.355945403986    -1.395669165078    -1.113735492589
    H           -2.616585853428    -0.519337794250    -0.273081606439
    H           -1.401450532928    -1.393202365136     0.640281030539

  Mulliken Charges: (a.u.)
   Center  Symbol    Alpha    Beta     Spin     Total
       1     H     0.46488  0.46488  0.00000  0.07024
       2     C     2.90090  2.90090  0.00000  0.19819
       3     C     3.08013  3.08013  0.00000 -0.16026
       4     O     4.16488  4.16488  0.00000 -0.32976
       5     C     3.14984  3.14984  0.00000 -0.29968
       6     H     0.45210  0.45210  0.00000  0.09581
       7     H     0.44241  0.44241  0.00000  0.11518
       8     H     0.45372  0.45372  0.00000  0.09255
       9     H     0.44488  0.44488  0.00000  0.11023
      10     H     0.44625  0.44625  0.00000  0.10750

   Total alpha = 16.00000, Total beta = 16.00000, Total charge = -0.00000
