  ==> Input File <==

--------------------------------------------------------------------------
set {
	reference rhf
	basis 6-31G*
}

set_num_threads( 4 )
memory 2 gb

molecule MOL {
0 1

H	 -2.393105	 -0.229623	 3.168715
C	 -2.800014	 -0.589496	 2.215542
C	 -2.662563	 0.370133	 1.061059
O	 -3.303273	 -1.663738	 2.148570
C	 -1.222047	 0.867591	 0.877474
H	 -3.033482	 -0.115947	 0.166154
H	 -3.310621	 1.219812	 1.272532
C	 -0.248279	 -0.229906	 0.440924
H	 -1.224461	 1.662782	 0.137914
H	 -0.874602	 1.318748	 1.805642
C	 1.180775	 0.282413	 0.250794
H	 -0.602644	 -0.671050	 -0.488411
H	 -0.246121	 -1.034357	 1.173995
C	 2.148627	 -0.814315	 -0.201312
H	 1.170899	 1.092245	 -0.474331
H	 1.536955	 0.712566	 1.185934
C	 3.580890	 -0.659131	 0.322722
H	 2.166869	 -0.852443	 -1.289387
H	 1.762857	 -1.776509	 0.128956
C	 4.324889	 0.564933	 -0.213704
H	 4.142010	 -1.551473	 0.056605
H	 3.564836	 -0.624694	 1.410140
H	 4.342616	 0.565491	 -1.300421
H	 3.866655	 1.493402	 0.110242
H	 5.353900	 0.572371	 0.132816

	symmetry c1
}
set optking {
	frozen_dihedral = ("
		8 11 14 18
	")
}

ee = optimize('scf')
oeprop('DIPOLE', 'QUADRUPOLE', 'MULLIKEN_CHARGES')
f=open( 'psi4out.xyz', 'w' )
f.write( "25  " )
f.write( str(ee) + "\n" )
f.write( MOL.save_string_xyz() )
f.close()
--------------------------------------------------------------------------

    Molecular point group: c1
  Charge       = 0
  Multiplicity = 1
  Basis Set: 6-31G*
  Basis Set:
  @DF-RHF Final Energy:  -387.11944280615683
    Total Energy =                       -387.1194428061570534
    Molecular point group: c1
  Basis Set: 6-31G*
  Basis Set:
  Basis Set: 6-31G*
  Basis Set:
  @DF-RHF Final Energy:  -387.11939599360579
    Total Energy =                       -387.1193959936056217
  Basis Set: 6-31G*
  Basis Set:
  Basis Set: 6-31G*
  Basis Set:
  @DF-RHF Final Energy:  -387.11703734267650
    Total Energy =                       -387.1170373426760989
  Basis Set: 6-31G*
  Basis Set:
  Basis Set: 6-31G*
  Basis Set:
  @DF-RHF Final Energy:  -387.11971164111708
    Total Energy =                       -387.1197116411169645
  Basis Set: 6-31G*
  Basis Set:
  @DF-RHF Final Energy:  -387.11978694182295
    Total Energy =                       -387.1197869418232358
  Basis Set: 6-31G*
  Basis Set:
  @DF-RHF Final Energy:  -387.11977866433261
    Total Energy =                       -387.1197786643326708
  Basis Set: 6-31G*
  Basis Set:
  Basis Set: 6-31G*
  Basis Set:
  @DF-RHF Final Energy:  -387.11979143431932
    Total Energy =                       -387.1197914343200637
  Basis Set: 6-31G*
  Basis Set:
  Basis Set: 6-31G*
  Basis Set:
  @DF-RHF Final Energy:  -387.11979542720837
    Total Energy =                       -387.1197954272078050
  Basis Set: 6-31G*
  Basis Set:
  Charge       = 0
  Multiplicity = 1
  Basis Set: 6-31G*
  Basis Set:

    Orbital Energies (a.u.)
    -----------------------

    Doubly Occupied:

       1A    -20.562122     2A    -11.326261     3A    -11.235335
       4A    -11.234707     5A    -11.224222     6A    -11.220090
       7A    -11.217695     8A    -11.216756     9A    -11.210597
      10A     -1.402058    11A     -1.103664    12A     -1.069637
      13A     -1.012838    14A     -0.941489    15A     -0.875428
      16A     -0.821710    17A     -0.788123    18A     -0.780599
      19A     -0.665210    20A     -0.660246    21A     -0.634609
      22A     -0.624601    23A     -0.602463    24A     -0.593272
      25A     -0.574712    26A     -0.552120    27A     -0.533597
      28A     -0.524417    29A     -0.510749    30A     -0.494063
      31A     -0.490996    32A     -0.480948    33A     -0.461734
      34A     -0.459213    35A     -0.440866    36A     -0.409656

  @DF-RHF Final Energy:  -387.11979556729466

   => Energetics <=

    Nuclear Repulsion Energy =            439.6868697926624918
    One-Electron Energy =               -1395.6997214610580613
    Two-Electron Energy =                 568.8930561011009104
    DFT Exchange-Correlation Energy =       0.0000000000000000
    Empirical Dispersion Energy =           0.0000000000000000
    PCM Polarization Energy =               0.0000000000000000
    EFP Energy =                            0.0000000000000000
    Total Energy =                       -387.1197955672946591
    Molecular point group: c1
  Basis Set: 6-31G*
  Basis Set:

  -Total Gradient:
     Atom            X                  Y                   Z
    ------   -----------------  -----------------  -----------------
       1        0.000001223182     0.000003091830    -0.000004710130
       2       -0.000002889210    -0.000011791066     0.000002702018
       3        0.000005054295    -0.000007967947     0.000024156189
       4        0.000000343411     0.000002635465    -0.000003278783
       5        0.000006727570     0.000000659590     0.000007536375
       6        0.000003234287     0.000003868827     0.000001368410
       7        0.000003749531     0.000000411402     0.000004212944
       8        0.000543700943    -0.000673752396     0.002648616247
       9       -0.000006345343    -0.000010332238    -0.000008338404
      10        0.000005130358     0.000013921269    -0.000004033289
      11       -0.000074833592     0.001519952286    -0.003726887839
      12        0.000004818229     0.000008500893    -0.000010550908
      13       -0.000010463409    -0.000007685480    -0.000003911788
      14       -0.003417739131    -0.003395392063     0.001048462260
      15        0.000005515434    -0.000005319268    -0.000009148425
      16        0.000016379258    -0.000000147931    -0.000003893345
      17        0.000008651220    -0.000000817446    -0.000002955105
      18        0.002909400472     0.002554363863     0.000036579147
      19       -0.000012439958    -0.000001231900     0.000002175204
      20        0.000000269211     0.000007759420     0.000014290165
      21       -0.000007275420    -0.000003603030    -0.000007661688
      22        0.000016570537     0.000000359301    -0.000000545933
      23        0.000012846937    -0.000005890408    -0.000001163330
      24       -0.000009268522     0.000000389230    -0.000011380852
      25       -0.000002360292     0.000008017800     0.000008360861

  **** Optimization is complete! (in 9 steps) ****
    Final optimized geometry and variables:
    Molecular point group: c1

    Geometry (in Angstrom), charge = 0, multiplicity = 1:

    H           -2.524718916394     0.025665818912     2.398700445519
    C           -2.923606248482    -0.347945519397     1.447318974558
    C           -2.774081723870     0.594132300536     0.279890881822
    O           -3.433123946877    -1.420030199270     1.393595300271
    C           -1.329038072323     1.078709303651     0.096044489822
    H           -3.143837684436     0.097555966051    -0.609766521905
    H           -3.417213895223     1.451135799955     0.475811778340
    C           -0.362092652335    -0.030092072390    -0.325839811523
    H           -1.322550711841     1.866894275324    -0.651172327871
    H           -0.981180673086     1.536173480830     1.020926617487
    C            1.075522450247     0.464852297921    -0.499481937597
    H           -0.712923964271    -0.472643046024    -1.256390700591
    H           -0.372145099970    -0.831198719192     0.410481266000
    C            2.039527860489    -0.637465744256    -0.971514394828
    H            1.094050138462     1.301518787878    -1.192871636116
    H            1.417694484531     0.858033426136     0.456704704102
    C            3.478348178028    -0.464711609015    -0.469987487783
    H            2.064475823517    -0.654061161291    -2.059149408225
    H            1.672203686706    -1.607277316499    -0.646841769742
    C            4.165913811036     0.802251540054    -0.981092756564
    H            4.061100429709    -1.329751497982    -0.776930635433
    H            3.482213664826    -0.465066256392     0.618161365297
    H            4.190999975521     0.820450861956    -2.067433754678
    H            3.655596002203     1.700472578770    -0.647711083651
    H            5.190515225448     0.858245801108    -0.626680193660

  Mulliken Charges: (a.u.)
   Center  Symbol    Alpha    Beta     Spin     Total
       1     H     0.43261  0.43261  0.00000  0.13477
       2     C     2.83088  2.83088  0.00000  0.33824
       3     C     3.20810  3.20810  0.00000 -0.41621
       4     O     4.23775  4.23775  0.00000 -0.47549
       5     C     3.16701  3.16701  0.00000 -0.33402
       6     H     0.39966  0.39966  0.00000  0.20067
       7     H     0.40664  0.40664  0.00000  0.18672
       8     C     3.15617  3.15617  0.00000 -0.31234
       9     H     0.41276  0.41276  0.00000  0.17448
      10     H     0.41972  0.41972  0.00000  0.16057
      11     C     3.15493  3.15493  0.00000 -0.30985
      12     H     0.41788  0.41788  0.00000  0.16424
      13     H     0.41803  0.41803  0.00000  0.16395
      14     C     3.15459  3.15459  0.00000 -0.30919
      15     H     0.41991  0.41991  0.00000  0.16019
      16     H     0.42307  0.42307  0.00000  0.15386
      17     C     3.15359  3.15359  0.00000 -0.30719
      18     H     0.42181  0.42181  0.00000  0.15639
      19     H     0.41842  0.41842  0.00000  0.16316
      20     C     3.24143  3.24143  0.00000 -0.48286
      21     H     0.42061  0.42061  0.00000  0.15878
      22     H     0.42344  0.42344  0.00000  0.15312
      23     H     0.42211  0.42211  0.00000  0.15577
      24     H     0.42017  0.42017  0.00000  0.15965
      25     H     0.41870  0.41870  0.00000  0.16260

   Total alpha = 36.00000, Total beta = 36.00000, Total charge =  0.00000
