                              Psi4 1.0.54 Driver

  ==> Input File <==

--------------------------------------------------------------------------
set {
	reference rhf
	basis cc-pvtz
}

set_num_threads( 4 )
memory 2 gb

molecule MOL {
0 1

H	 -2.761569	 -0.652433	 1.144073
C	 -2.713957	 -0.472132	 0.072574
O	 -1.403028	 -0.325740	 -0.360524
H	 -3.139339	 -1.321335	 -0.442006
H	 -3.311111	 0.409154	 -0.154641
C	 -0.725167	 0.743127	 0.213639
C	 0.710939	 0.743291	 -0.246733
H	 -1.189453	 1.685034	 -0.078287
H	 -0.752637	 0.677953	 1.299193
O	 1.401606	 -0.295166	 0.366636
H	 0.739445	 0.638121	 -1.329118
H	 1.163681	 1.700977	 0.009851
C	 2.714315	 -0.441627	 -0.061017
H	 2.765292	 -0.641548	 -1.128869
H	 3.305661	 0.447341	 0.150952
H	 3.143725	 -1.278506	 0.470147

	symmetry c1
}
set optking {
	frozen_dihedral = ("
		7 10 13 14
	")
}

ee,wfn = optimize('scf', return_wfn=True)
oeprop( wfn, 'DIPOLE', 'QUADRUPOLE', 'MULLIKEN_CHARGES')
f=open( 'psi4out.xyz', 'w' )
f.write( "16  " )
f.write( str(ee) + "\n" )
f.write( MOL.save_string_xyz() )
f.close()
--------------------------------------------------------------------------

    Molecular point group: c1
  Charge       = 0
  Multiplicity = 1
  Basis Set: CC-PVTZ
  Basis Set:
  @DF-RHF Final Energy:  -307.09795221055651
    Total Energy =                       -307.0979522105564001
    Molecular point group: c1
  Basis Set: CC-PVTZ
  Basis Set:
  Charge       = 0
  Multiplicity = 1
  Basis Set: CC-PVTZ
  Basis Set:

    Orbital Energies (a.u.)
    -----------------------

    Doubly Occupied:

       1A    -20.547856     2A    -20.547851     3A    -11.267609
       4A    -11.266931     5A    -11.261646     6A    -11.261639
       7A     -1.391830     8A     -1.374623     9A     -1.032117
      10A     -0.937235    11A     -0.892239    12A     -0.824460
      13A     -0.686516    14A     -0.682875    15A     -0.659557
      16A     -0.638233    17A     -0.632310    18A     -0.598677
      19A     -0.550719    20A     -0.536073    21A     -0.510003
      22A     -0.479844    23A     -0.464832    24A     -0.423344
      25A     -0.413761

  @DF-RHF Final Energy:  -307.09795235059346

   => Energetics <=

    Nuclear Repulsion Energy =            258.9166624184261991
    One-Electron Energy =                -932.2636744389064916
    Two-Electron Energy =                 366.2490596698868330
    DFT Exchange-Correlation Energy =       0.0000000000000000
    Empirical Dispersion Energy =           0.0000000000000000
    PCM Polarization Energy =               0.0000000000000000
    EFP Energy =                            0.0000000000000000
    Total Energy =                       -307.0979523505934594
    Molecular point group: c1
  Basis Set: CC-PVTZ
  Basis Set:

  -Total Gradient:
     Atom            X                  Y                   Z
    ------   -----------------  -----------------  -----------------
       1        0.000000082410     0.000000023480     0.000000487442
       2        0.000003918951    -0.000000024793    -0.000001776897
       3       -0.000001110970    -0.000004000613     0.000000253768
       4       -0.000001424283    -0.000000592014    -0.000000021130
       5        0.000000952381    -0.000000081509     0.000000219207
       6        0.000000705645     0.000012987179    -0.000003942385
       7       -0.000055320767    -0.000051414081    -0.000080294250
       8       -0.000002384756    -0.000001123086     0.000001008568
       9       -0.000000165259    -0.000002214753    -0.000002034259
      10        0.000071579430     0.000172455467     0.000108622469
      11        0.000003447071    -0.000010656760     0.000007018401
      12       -0.000007398286     0.000006097358    -0.000007116133
      13       -0.000019589486    -0.000262607700    -0.000001877716
      14        0.000008293560     0.000162182537    -0.000024584286
      15       -0.000032151904    -0.000006015209     0.000003923096
      16        0.000030566262    -0.000015015503     0.000000114106

  **** Optimization is complete! (in 2 steps) ****
    Final optimized geometry and variables:
    Molecular point group: c1

    Geometry (in Angstrom), charge = 0, multiplicity = 1:

    H           -2.759071087039    -0.636177104833     1.147114143752
    C           -2.711567091738    -0.455984740158     0.075603548062
    O           -1.400648643218    -0.309937372583    -0.357668776578
    H           -3.137238791329    -1.305097161581    -0.438875144347
    H           -3.308501314357     0.425458789131    -0.151606107521
    C           -0.722400357503     0.758652299713     0.216497062167
    C            0.713567512408     0.758513337564    -0.244307212443
    H           -1.186551064140     1.700747380270    -0.075102357193
    H           -0.749566992956     0.693233690757     1.302016790838
    O            1.403982267426    -0.280583584657     0.368221441215
    H            0.741725909076     0.653629093481    -1.326674544274
    H            1.166626883117     1.716056267841     0.012434942229
    C            2.716816929306    -0.426983874944    -0.059108380385
    H            2.768219732118    -0.625965218203    -1.127091031586
    H            3.307493308230     0.462442783768     0.152910519295
    H            3.146618638740    -1.263607693477     0.472119902499

  Mulliken Charges: (a.u.)
   Center  Symbol    Alpha    Beta     Spin     Total
       1     H     0.47019  0.47019  0.00000  0.05963
       2     C     3.03198  3.03198  0.00000 -0.06397
       3     O     4.17047  4.17047  0.00000 -0.34094
       4     H     0.44634  0.44634  0.00000  0.10732
       5     H     0.47368  0.47368  0.00000  0.05263
       6     C     2.96053  2.96053  0.00000  0.07894
       7     C     2.96053  2.96053  0.00000  0.07894
       8     H     0.47609  0.47609  0.00000  0.04781
       9     H     0.47071  0.47071  0.00000  0.05859
      10     O     4.17048  4.17048  0.00000 -0.34097
      11     H     0.47062  0.47062  0.00000  0.05876
      12     H     0.47618  0.47618  0.00000  0.04763
      13     C     3.03196  3.03196  0.00000 -0.06392
      14     H     0.47044  0.47044  0.00000  0.05912
      15     H     0.47350  0.47350  0.00000  0.05300
      16     H     0.44629  0.44629  0.00000  0.10742

   Total alpha = 25.00000, Total beta = 25.00000, Total charge = -0.00000

*** Psi4 exiting successfully. Buy a developer a beer!
