                              Psi4 1.0.54 Driver

  ==> Input File <==

--------------------------------------------------------------------------
set {
	reference rhf
	basis cc-pvtz
}

set_num_threads( 4 )
memory 2 gb

molecule MOL {
0 1

O	 -2.071633	 -1.227563	 -0.223463
C	 -1.652164	 -0.152425	 0.058082
C	 -0.327811	 0.006324	 0.778296
C	 -2.402515	 1.108629	 -0.298924
C	 0.120193	 1.472783	 0.792904
H	 -0.406338	 -0.364308	 1.794952
H	 0.404815	 -0.592652	 0.252630
C	 1.460498	 1.672333	 1.494325
H	 -0.634011	 2.082987	 1.283334
H	 0.187089	 1.825527	 -0.230552
C	 1.916149	 3.127500	 1.500260
H	 1.389423	 1.311779	 2.516808
H	 2.212886	 1.060135	 1.005790
H	 1.199937	 3.760472	 2.013505
H	 2.026847	 3.506449	 0.490056
H	 2.871122	 3.235906	 2.000937
H	 -3.240910	 0.874416	 -0.936711
H	 -1.747554	 1.818823	 -0.790984
H	 -2.760419	 1.579708	 0.610998

	symmetry c1
}
set optking {
	frozen_dihedral = ("
		5 3 2 4
	")
}

ee,wfn = optimize('scf', return_wfn=True)
oeprop( wfn, 'DIPOLE', 'QUADRUPOLE', 'MULLIKEN_CHARGES')
f=open( 'psi4out.xyz', 'w' )
f.write( "19  " )
f.write( str(ee) + "\n" )
f.write( MOL.save_string_xyz() )
f.close()
--------------------------------------------------------------------------

    Molecular point group: c1
  Charge       = 0
  Multiplicity = 1
  Basis Set: CC-PVTZ
  Basis Set:
  @DF-RHF Final Energy:  -309.16933173197799
    Total Energy =                       -309.1693317319781045
    Molecular point group: c1
  Basis Set: CC-PVTZ
  Basis Set:
  Basis Set: CC-PVTZ
  Basis Set:
  @DF-RHF Final Energy:  -309.12208517509936
    Total Energy =                       -309.1220851750989596
  Basis Set: CC-PVTZ
  Basis Set:
  Basis Set: CC-PVTZ
  Basis Set:
  @DF-RHF Final Energy:  -309.17111349441876
    Total Energy =                       -309.1711134944187052
  Basis Set: CC-PVTZ
  Basis Set:
  Basis Set: CC-PVTZ
  Basis Set:
  @DF-RHF Final Energy:  -309.17436709211950
    Total Energy =                       -309.1743670921194962
  Basis Set: CC-PVTZ
  Basis Set:
  @DF-RHF Final Energy:  -309.17450247564597
    Total Energy =                       -309.1745024756462499
  @DF-RHF Final Energy:  -309.17358601738681
    Total Energy =                       -309.1735860173868105
  @DF-RHF Final Energy:  -309.17472080904560
    Total Energy =                       -309.1747208090451977
  Basis Set: CC-PVTZ
  Basis Set:
  @DF-RHF Final Energy:  -309.17467036002506
    Total Energy =                       -309.1746703600251180
  Basis Set: CC-PVTZ
  Basis Set:
  Basis Set: CC-PVTZ
  Basis Set:
  @DF-RHF Final Energy:  -309.17473241430440
    Total Energy =                       -309.1747324143044580
  Basis Set: CC-PVTZ
  Basis Set:
  Basis Set: CC-PVTZ
  Basis Set:
  @DF-RHF Final Energy:  -309.17473379895785
    Total Energy =                       -309.1747337989574476
  Basis Set: CC-PVTZ
  Basis Set:
  Charge       = 0
  Multiplicity = 1
  Basis Set: CC-PVTZ
  Basis Set:

    Orbital Energies (a.u.)
    -----------------------

    Doubly Occupied:

       1A    -20.534586     2A    -11.320982     3A    -11.229446
       4A    -11.228610     5A    -11.226556     6A    -11.224781
       7A    -11.215406     8A     -1.396274     9A     -1.095171
      10A     -1.028548    11A     -0.984017    12A     -0.896384
      13A     -0.810716    14A     -0.732675    15A     -0.663908
      16A     -0.649992    17A     -0.630111    18A     -0.613194
      19A     -0.587439    20A     -0.572784    21A     -0.553975
      22A     -0.530295    23A     -0.527287    24A     -0.491596
      25A     -0.487403    26A     -0.482655    27A     -0.469595
      28A     -0.398974

  @DF-RHF Final Energy:  -309.17473399180562

   => Energetics <=

    Nuclear Repulsion Energy =            301.3261360994633833
    One-Electron Energy =               -1015.8350210711174668
    Two-Electron Energy =                 405.3341509798486300
    DFT Exchange-Correlation Energy =       0.0000000000000000
    Empirical Dispersion Energy =           0.0000000000000000
    PCM Polarization Energy =               0.0000000000000000
    EFP Energy =                            0.0000000000000000
    Total Energy =                       -309.1747339918054536
    Molecular point group: c1
  Basis Set: CC-PVTZ
  Basis Set:

  -Total Gradient:
     Atom            X                  Y                   Z
    ------   -----------------  -----------------  -----------------
       1        0.000026234379     0.000042789670     0.000013035332
       2       -0.000908556864     0.000086578321     0.001292075641
       3        0.000842907628    -0.000268629092    -0.001274066724
       4        0.000465488052    -0.000040754503    -0.000663116550
       5       -0.000415720777     0.000178383179     0.000637929620
       6       -0.000002910704    -0.000002487353     0.000009440479
       7        0.000006507041    -0.000005486648     0.000001184700
       8       -0.000002929873    -0.000000063244    -0.000014226366
       9       -0.000005903237     0.000001897073     0.000000192466
      10        0.000000331276    -0.000001025295    -0.000002802495
      11       -0.000000558322    -0.000002567424     0.000012957834
      12       -0.000000196504    -0.000003201638     0.000004662880
      13        0.000006093084    -0.000004343510    -0.000001895649
      14       -0.000000380315     0.000003634324    -0.000000818565
      15        0.000001788573     0.000000444013    -0.000003713195
      16       -0.000000729037     0.000002859896     0.000000116301
      17       -0.000021605047     0.000006104302    -0.000010224134
      18        0.000008654062     0.000011657911    -0.000004586864
      19        0.000001486587    -0.000005789984     0.000003855289

  **** Optimization is complete! (in 11 steps) ****
    Final optimized geometry and variables:
    Molecular point group: c1

    Geometry (in Angstrom), charge = 0, multiplicity = 1:

    O           -2.006493360951    -1.589336284368    -1.075331375933
    C           -1.412172815294    -0.611344836881    -0.756011417688
    C           -0.157078737908    -0.746280381224     0.096337838783
    C           -1.893128126875     0.757662576117    -1.175623429782
    C            0.709916889239     0.491168138999     0.309769199274
    H           -0.497495610871    -1.125635427078     1.056004343367
    H            0.422789511272    -1.546963788144    -0.347723106846
    C            1.924591920393     0.199129084164     1.187502307014
    H            0.126384413781     1.283419720439     0.768329490481
    H            1.051655956738     0.875243098170    -0.647252845103
    C            2.806606063855     1.422560334985     1.411170075056
    H            1.589119972466    -0.184490800089     2.146916389252
    H            2.513352642676    -0.592249510005     0.732639264394
    H            2.254474947750     2.220416448676     1.896552465933
    H            3.186537545593     1.808759162373     0.471253331204
    H            3.657671887900     1.181848958052     2.037215675805
    H           -2.795825543583     0.653029440508    -1.757100393593
    H           -1.135619285611     1.262962556714    -1.763033289191
    H           -2.089001681798     1.373799743085    -0.305260620357

  Mulliken Charges: (a.u.)
   Center  Symbol    Alpha    Beta     Spin     Total
       1     O     4.17659  4.17659  0.00000 -0.35318
       2     C     2.86109  2.86109  0.00000  0.27783
       3     C     3.09899  3.09899  0.00000 -0.19798
       4     C     3.16331  3.16331  0.00000 -0.32661
       5     C     3.09882  3.09882  0.00000 -0.19765
       6     H     0.43976  0.43976  0.00000  0.12049
       7     H     0.43666  0.43666  0.00000  0.12669
       8     C     3.08592  3.08592  0.00000 -0.17183
       9     H     0.45126  0.45126  0.00000  0.09747
      10     H     0.45041  0.45041  0.00000  0.09918
      11     C     3.14948  3.14948  0.00000 -0.29896
      12     H     0.45249  0.45249  0.00000  0.09503
      13     H     0.45153  0.45153  0.00000  0.09695
      14     H     0.45482  0.45482  0.00000  0.09035
      15     H     0.45451  0.45451  0.00000  0.09099
      16     H     0.44637  0.44637  0.00000  0.10725
      17     H     0.43196  0.43196  0.00000  0.13607
      18     H     0.44821  0.44821  0.00000  0.10358
      19     H     0.44783  0.44783  0.00000  0.10434

   Total alpha = 28.00000, Total beta = 28.00000, Total charge = -0.00000

*** Psi4 exiting successfully. Buy a developer a beer!
