  ==> Input File <==

--------------------------------------------------------------------------
set {
	reference rhf
	basis cc-pvtz
}

set_num_threads( 4 )
memory 2 gb

molecule MOL {
0 1

H	 -1.484589	 -0.271923	 -0.297566
N	 -0.625934	 -0.663929	 -0.000707
C	 -0.608552	 -2.048847	 0.407698
C	 0.468494	 0.129045	 -0.002160
H	 -1.270109	 -2.213383	 1.249873
H	 0.395994	 -2.304014	 0.699023
H	 -0.912990	 -2.697511	 -0.405069
C	 1.785715	 -0.615093	 0.000603
O	 0.413285	 1.323206	 0.000532
H	 1.866994	 -1.243310	 -0.878792
H	 2.591506	 0.100263	 0.006422
H	 1.860358	 -1.250360	 0.875522

	symmetry c1
}
set optking {
	frozen_dihedral = ("
		3 2 4 9
	")
}

ee = optimize('scf')
oeprop('DIPOLE', 'QUADRUPOLE', 'MULLIKEN_CHARGES')
f=open( 'psi4out.xyz', 'w' )
f.write( "12  " )
f.write( str(ee) + "\n" )
f.write( MOL.save_string_xyz() )
f.close()
--------------------------------------------------------------------------

    Molecular point group: c1
  Charge       = 0
  Multiplicity = 1
  Basis Set: CC-PVTZ
  Basis Set:
  @DF-RHF Final Energy:  -247.08804040267776
    Total Energy =                       -247.0880404026777910
    Molecular point group: c1
  Basis Set: CC-PVTZ
  Basis Set:
  Basis Set: CC-PVTZ
  Basis Set:
  @DF-RHF Final Energy:  -247.09100966865230
    Total Energy =                       -247.0910096686520774
  Basis Set: CC-PVTZ
  Basis Set:
  Basis Set: CC-PVTZ
  Basis Set:
  @DF-RHF Final Energy:  -247.09393672062703
    Total Energy =                       -247.0939367206268571
  Basis Set: CC-PVTZ
  Basis Set:
  Basis Set: CC-PVTZ
  Basis Set:
  @DF-RHF Final Energy:  -247.09557747287869
    Total Energy =                       -247.0955774728785741
  Basis Set: CC-PVTZ
  Basis Set:
  @DF-RHF Final Energy:  -247.09562050928122
    Total Energy =                       -247.0956205092813320
  @DF-RHF Final Energy:  -247.09596288939935
    Total Energy =                       -247.0959628893993454
  @DF-RHF Final Energy:  -247.09617090049471
    Total Energy =                       -247.0961709004946556
  @DF-RHF Final Energy:  -247.09642317132673
    Total Energy =                       -247.0964231713268191
  @DF-RHF Final Energy:  -247.09686634995759
    Total Energy =                       -247.0968663499577360
  @DF-RHF Final Energy:  -247.09700515778360
    Total Energy =                       -247.0970051577835989
  Basis Set: CC-PVTZ
  Basis Set:
  @DF-RHF Final Energy:  -247.09705572801198
    Total Energy =                       -247.0970557280118669
  Basis Set: CC-PVTZ
  Basis Set:
  Basis Set: CC-PVTZ
  Basis Set:
  @DF-RHF Final Energy:  -247.09707304619886
    Total Energy =                       -247.0970730461988296
  Basis Set: CC-PVTZ
  Basis Set:
  Basis Set: CC-PVTZ
  Basis Set:
  @DF-RHF Final Energy:  -247.09707658249272
    Total Energy =                       -247.0970765824926048
  Basis Set: CC-PVTZ
  Basis Set:
  Charge       = 0
  Multiplicity = 1
  Basis Set: CC-PVTZ
  Basis Set:

    Orbital Energies (a.u.)
    -----------------------

    Doubly Occupied:

       1A    -20.509108     2A    -15.573041     3A    -11.338049
       4A    -11.268580     5A    -11.228717     6A     -1.390680
       7A     -1.231224     8A     -1.006916     9A     -0.956660
      10A     -0.781962    11A     -0.676317    12A     -0.669852
      13A     -0.642171    14A     -0.588790    15A     -0.579086
      16A     -0.562379    17A     -0.556407    18A     -0.517876
      19A     -0.418753    20A     -0.390418

  @DF-RHF Final Energy:  -247.09707715877212

   => Energetics <=

    Nuclear Repulsion Energy =            181.7463735538730987
    One-Electron Energy =                -695.9129272074400205
    Two-Electron Energy =                 267.0694764947949125
    DFT Exchange-Correlation Energy =       0.0000000000000000
    Empirical Dispersion Energy =           0.0000000000000000
    PCM Polarization Energy =               0.0000000000000000
    EFP Energy =                            0.0000000000000000
    Total Energy =                       -247.0970771587719810
    Molecular point group: c1
  Basis Set: CC-PVTZ
  Basis Set:

  -Total Gradient:
     Atom            X                  Y                   Z
    ------   -----------------  -----------------  -----------------
       1        0.000003857881    -0.000001842901    -0.000010912064
       2        0.000687848937    -0.000691281426    -0.001197045337
       3       -0.000507283608     0.000455856525     0.001184169017
       4        0.000059129109     0.000114445351    -0.001538128823
       5       -0.000003259912     0.000011773209    -0.000013728609
       6        0.000012019169    -0.000009962001     0.000007975744
       7       -0.000001413955    -0.000020630986     0.000007070761
       8       -0.000002664239    -0.000000779525    -0.000002028535
       9       -0.000247203046     0.000152843289     0.001559159339
      10       -0.000007489479     0.000000184033     0.000003361995
      11       -0.000000646493    -0.000002625153     0.000000034934
      12        0.000007105636    -0.000007980414     0.000000071577

  **** Optimization is complete! (in 14 steps) ****
    Final optimized geometry and variables:
    Molecular point group: c1

    Geometry (in Angstrom), charge = 0, multiplicity = 1:

    H           -1.725841754155     0.156927976747    -0.264508961074
    N           -0.863622771388    -0.332032030494    -0.197706756093
    C           -0.925269716376    -1.681797592142     0.313306599618
    C            0.200658135516     0.508610257621    -0.094133131770
    H           -0.911205070251    -1.725574438596     1.398276535533
    H           -0.107488264778    -2.278103604659    -0.064707243404
    H           -1.843307082011    -2.136531887861    -0.030067212371
    C            1.551048817562    -0.120768422411     0.155485229235
    O            0.069401122733     1.689930363462    -0.214753281727
    H            1.779018573170    -0.859377265131    -0.602986718146
    H            2.295104691248     0.658322777196     0.138998416895
    H            1.571503415990    -0.615805924023     1.119295604749

  Mulliken Charges: (a.u.)
   Center  Symbol    Alpha    Beta     Spin     Total
       1     H     0.41503  0.41503  0.00000  0.16994
       2     N     3.60665  3.60665  0.00000 -0.21330
       3     C     3.08750  3.08750  0.00000 -0.17501
       4     C     2.84489  2.84489  0.00000  0.31021
       5     H     0.45626  0.45626  0.00000  0.08747
       6     H     0.45220  0.45220  0.00000  0.09559
       7     H     0.44341  0.44341  0.00000  0.11319
       8     C     3.16148  3.16148  0.00000 -0.32297
       9     O     4.20752  4.20752  0.00000 -0.41505
      10     H     0.44608  0.44608  0.00000  0.10785
      11     H     0.42938  0.42938  0.00000  0.14124
      12     H     0.44958  0.44958  0.00000  0.10084

   Total alpha = 20.00000, Total beta = 20.00000, Total charge = -0.00000
