                              Psi4 1.0.54 Driver

  ==> Input File <==

--------------------------------------------------------------------------
set {
	reference rhf
	basis cc-pvtz
}

set_num_threads( 4 )
memory 2 gb

molecule MOL {
0 1

H	 -3.976242	 -0.342756	 -1.388381
O	 -3.458596	 0.315260	 -0.960865
C	 -3.176635	 -0.080824	 0.355601
C	 -1.763371	 0.265266	 0.799691
H	 -3.321825	 -1.153438	 0.379502
H	 -3.895468	 0.357385	 1.043382
C	 -0.673390	 -0.426948	 -0.013392
H	 -1.631049	 1.344913	 0.747560
H	 -1.664587	 -0.001624	 1.849167
C	 0.737842	 -0.043159	 0.423759
H	 -0.806103	 -0.190518	 -1.063345
H	 -0.797221	 -1.503753	 0.074146
C	 1.824000	 -0.743224	 -0.390623
H	 0.850588	 1.033777	 0.343840
H	 0.868587	 -0.286314	 1.476203
C	 3.255957	 -0.453067	 0.062319
H	 1.718250	 -0.470599	 -1.438164
H	 1.658105	 -1.815850	 -0.339904
C	 3.707029	 0.992337	 -0.133857
H	 3.928201	 -1.104096	 -0.488158
H	 3.362667	 -0.724561	 1.109374
H	 3.605811	 1.294044	 -1.171549
H	 4.748333	 1.111029	 0.143343
H	 3.129882	 1.683078	 0.468956

	symmetry c1
}
set optking {
	frozen_dihedral = ("
		1 2 3 5
	")
}

ee,wfn = optimize('scf', return_wfn=True)
oeprop( wfn, 'DIPOLE', 'QUADRUPOLE', 'MULLIKEN_CHARGES')
f=open( 'psi4out.xyz', 'w' )
f.write( "24  " )
f.write( str(ee) + "\n" )
f.write( MOL.save_string_xyz() )
f.close()
--------------------------------------------------------------------------

    Molecular point group: c1
  Charge       = 0
  Multiplicity = 1
  Basis Set: CC-PVTZ
  Basis Set:
  @DF-RHF Final Energy:  -349.37829180106701
    Total Energy =                       -349.3782918010672915
    Molecular point group: c1
  Basis Set: CC-PVTZ
  Basis Set:
  Basis Set: CC-PVTZ
  Basis Set:
  @DF-RHF Final Energy:  -349.37944040286624
    Total Energy =                       -349.3794404028656118
  Basis Set: CC-PVTZ
  Basis Set:
  Basis Set: CC-PVTZ
  Basis Set:
  @DF-RHF Final Energy:  -349.37974806784496
    Total Energy =                       -349.3797480678448437
  Basis Set: CC-PVTZ
  Basis Set:
  Basis Set: CC-PVTZ
  Basis Set:
  @DF-RHF Final Energy:  -349.37975212588788
    Total Energy =                       -349.3797521258873644
  Basis Set: CC-PVTZ
  Basis Set:
  Charge       = 0
  Multiplicity = 1
  Basis Set: CC-PVTZ
  Basis Set:

    Orbital Energies (a.u.)
    -----------------------

    Doubly Occupied:

       1A    -20.545365     2A    -11.265992     3A    -11.210581
       4A    -11.210080     5A    -11.208084     6A    -11.207318
       7A    -11.206424     8A    -11.203392     9A     -1.362875
      10A     -1.087726    11A     -1.047942    12A     -0.985946
      13A     -0.914422    14A     -0.845840    15A     -0.789946
      16A     -0.774665    17A     -0.709004    18A     -0.641573
      19A     -0.635350    20A     -0.609525    21A     -0.593909
      22A     -0.578670    23A     -0.558473    24A     -0.537258
      25A     -0.514259    26A     -0.505993    27A     -0.497469
      28A     -0.472211    29A     -0.466245    30A     -0.460265
      31A     -0.452639    32A     -0.450187    33A     -0.420882

  @DF-RHF Final Energy:  -349.37975276590760

   => Energetics <=

    Nuclear Repulsion Energy =            385.0002744693399563
    One-Electron Energy =               -1236.8190404902761657
    Two-Electron Energy =                 502.4390132550286125
    DFT Exchange-Correlation Energy =       0.0000000000000000
    Empirical Dispersion Energy =           0.0000000000000000
    PCM Polarization Energy =               0.0000000000000000
    EFP Energy =                            0.0000000000000000
    Total Energy =                       -349.3797527659075968
    Molecular point group: c1
  Basis Set: CC-PVTZ
  Basis Set:

  -Total Gradient:
     Atom            X                  Y                   Z
    ------   -----------------  -----------------  -----------------
       1        0.001043212151    -0.000565961569    -0.000428280336
       2       -0.001537895065     0.000720244340     0.000595111153
       3        0.001577456590    -0.000307082808    -0.000413059027
       4       -0.000038803307    -0.000002011527     0.000042957507
       5       -0.001052215850     0.000141397304     0.000246194731
       6        0.000033688449     0.000011706059    -0.000009250251
       7       -0.000037752284     0.000002182972    -0.000001599672
       8       -0.000010105960    -0.000009046847    -0.000003963609
       9        0.000006448860     0.000001256212     0.000017653021
      10       -0.000002287182     0.000013042688    -0.000009311865
      11        0.000002140430    -0.000008155174    -0.000031154176
      12        0.000009092999     0.000007988780    -0.000005723055
      13        0.000003376656    -0.000009104546     0.000006635201
      14        0.000010917284     0.000011511413     0.000003994177
      15       -0.000005712737    -0.000000752753    -0.000008033897
      16        0.000006563911    -0.000005894159    -0.000012076325
      17        0.000000945565    -0.000003728038     0.000003236004
      18       -0.000002477532    -0.000001875146     0.000001643401
      19       -0.000003866057     0.000000079771     0.000004073238
      20        0.000003419797     0.000002411904    -0.000001685482
      21        0.000001779975    -0.000002464411    -0.000002227263
      22        0.000001683167    -0.000002415190     0.000000628408
      23       -0.000001029598     0.000001703244     0.000002583088
      24       -0.000008580267     0.000004967483     0.000001655029

  **** Optimization is complete! (in 5 steps) ****
    Final optimized geometry and variables:
    Molecular point group: c1

    Geometry (in Angstrom), charge = 0, multiplicity = 1:

    H           -3.948772469830    -0.209776092305    -1.372708645991
    O           -3.427130991474     0.397269255385    -0.883992396214
    C           -3.168907517702    -0.099138432422     0.406610580649
    C           -1.754346594854     0.254655377759     0.825366253382
    H           -3.312037358362    -1.176281028737     0.436568451861
    H           -3.875605938896     0.337040204961     1.106736765160
    C           -0.674198279540    -0.435139125601    -0.002144116486
    H           -1.639591070501     1.332287197996     0.755083453709
    H           -1.637212745493    -0.005082830986     1.874629325960
    C            0.741272307239    -0.041915470296     0.412379489865
    H           -0.824123408008    -0.196730435923    -1.049230411917
    H           -0.787914824367    -1.513527240331     0.089831120075
    C            1.819623726749    -0.737115717508    -0.416436810184
    H            0.844688651301     1.035210379494     0.327361739441
    H            0.889589573048    -0.281309382762     1.463407834785
    C            3.256471496228    -0.435030357452     0.012857890056
    H            1.695539580165    -0.468629227371    -1.463068308242
    H            1.662741002666    -1.810988094768    -0.359524774741
    C            3.692733767981     1.013613049531    -0.192771732319
    H            3.925116719534    -1.081688172099    -0.547250781086
    H            3.382067182571    -0.703892658237     1.058531146086
    H            3.571547658224     1.313075840833    -1.228937060944
    H            4.737614630822     1.140907145717     0.066740197584
    H            3.120168435101     1.700552315443     0.418536411861

  Mulliken Charges: (a.u.)
   Center  Symbol    Alpha    Beta     Spin     Total
       1     H     0.39236  0.39236  0.00000  0.21527
       2     O     4.20490  4.20490  0.00000 -0.40981
       3     C     2.97828  2.97828  0.00000  0.04345
       4     C     3.08650  3.08650  0.00000 -0.17301
       5     H     0.47216  0.47216  0.00000  0.05568
       6     H     0.46027  0.46027  0.00000  0.07946
       7     C     3.09203  3.09203  0.00000 -0.18406
       8     H     0.45155  0.45155  0.00000  0.09689
       9     H     0.45427  0.45427  0.00000  0.09145
      10     C     3.09229  3.09229  0.00000 -0.18459
      11     H     0.44656  0.44656  0.00000  0.10688
      12     H     0.45909  0.45909  0.00000  0.08182
      13     C     3.09427  3.09427  0.00000 -0.18853
      14     H     0.45148  0.45148  0.00000  0.09704
      15     H     0.45662  0.45662  0.00000  0.08676
      16     C     3.09016  3.09016  0.00000 -0.18032
      17     H     0.45391  0.45391  0.00000  0.09217
      18     H     0.45098  0.45098  0.00000  0.09805
      19     C     3.15229  3.15229  0.00000 -0.30457
      20     H     0.44913  0.44913  0.00000  0.10173
      21     H     0.45545  0.45545  0.00000  0.08909
      22     H     0.45475  0.45475  0.00000  0.09050
      23     H     0.44707  0.44707  0.00000  0.10586
      24     H     0.45361  0.45361  0.00000  0.09278

   Total alpha = 33.00000, Total beta = 33.00000, Total charge = -0.00000

*** Psi4 exiting successfully. Buy a developer a beer!
