                              Psi4 1.0.54 Driver

  ==> Input File <==

--------------------------------------------------------------------------
set {
	reference rhf
	basis cc-pvtz
}

set_num_threads( 4 )
memory 2 gb

molecule MOL {
0 1

O	 -1.723662	 -2.492646	 0.103312
C	 -1.144500	 -1.940164	 -0.774620
C	 -0.881910	 -0.448129	 -0.720509
C	 -0.624357	 -2.692408	 -1.976430
C	 0.376695	 -0.140025	 0.100361
H	 -1.741398	 0.019242	 -0.256876
H	 -0.775342	 -0.048195	 -1.723285
C	 1.630207	 -0.772146	 -0.501001
H	 0.486632	 0.935267	 0.162725
H	 0.248225	 -0.501310	 1.117842
C	 2.907848	 -0.545876	 0.309149
H	 1.772784	 -0.391628	 -1.509394
H	 1.468529	 -1.842059	 -0.599744
C	 3.373802	 0.906639	 0.372125
H	 3.699140	 -1.146831	 -0.127906
H	 2.764321	 -0.923458	 1.318191
H	 3.519798	 1.311927	 -0.623875
H	 4.316899	 0.983758	 0.900700
H	 2.661122	 1.540651	 0.885346
H	 -1.181137	 -2.387244	 -2.856697
H	 -0.738958	 -3.755186	 -1.828309
H	 0.417324	 -2.452011	 -2.157258

	symmetry c1
}
set optking {
	frozen_dihedral = ("
		6 3 5 8
	")
}

ee,wfn = optimize('scf', return_wfn=True)
oeprop( wfn, 'DIPOLE', 'QUADRUPOLE', 'MULLIKEN_CHARGES')
f=open( 'psi4out.xyz', 'w' )
f.write( "22  " )
f.write( str(ee) + "\n" )
f.write( MOL.save_string_xyz() )
f.close()
--------------------------------------------------------------------------

    Molecular point group: c1
  Charge       = 0
  Multiplicity = 1
  Basis Set: CC-PVTZ
  Basis Set:
  @DF-RHF Final Energy:  -348.21810707862613
    Total Energy =                       -348.2181070786264172
    Molecular point group: c1
  Basis Set: CC-PVTZ
  Basis Set:
  Basis Set: CC-PVTZ
  Basis Set:
  @DF-RHF Final Energy:  -348.22092446520139
    Total Energy =                       -348.2209244652015627
  Basis Set: CC-PVTZ
  Basis Set:
  Basis Set: CC-PVTZ
  Basis Set:
  @DF-RHF Final Energy:  -348.21961845457685
    Total Energy =                       -348.2196184545770166
  Basis Set: CC-PVTZ
  Basis Set:
  Basis Set: CC-PVTZ
  Basis Set:
  @DF-RHF Final Energy:  -348.22169277251112
    Total Energy =                       -348.2216927725112328
  Basis Set: CC-PVTZ
  Basis Set:
  @DF-RHF Final Energy:  -348.22205859507670
    Total Energy =                       -348.2220585950768168
  @DF-RHF Final Energy:  -348.22234676907220
    Total Energy =                       -348.2223467690721463
  @DF-RHF Final Energy:  -348.22255358258735
    Total Energy =                       -348.2225535825873521
  @DF-RHF Final Energy:  -348.22274416450097
    Total Energy =                       -348.2227441645007957
  @DF-RHF Final Energy:  -348.22292403830687
    Total Energy =                       -348.2229240383069282
  @DF-RHF Final Energy:  -348.22311557614341
    Total Energy =                       -348.2231155761435843
  @DF-RHF Final Energy:  -348.22330400782619
    Total Energy =                       -348.2233040078261865
  @DF-RHF Final Energy:  -348.22249221369140
    Total Energy =                       -348.2224922136915097
  @DF-RHF Final Energy:  -348.22363040278697
    Total Energy =                       -348.2236304027870801
  @DF-RHF Final Energy:  -348.22350189153627
    Total Energy =                       -348.2235018915362161
  @DF-RHF Final Energy:  -348.22375489965225
    Total Energy =                       -348.2237548996520218
  @DF-RHF Final Energy:  -348.22378109544570
    Total Energy =                       -348.2237810954453607
  @DF-RHF Final Energy:  -348.22383343357137
    Total Energy =                       -348.2238334335712580
  Basis Set: CC-PVTZ
  Basis Set:
  @DF-RHF Final Energy:  -348.22385014435457
    Total Energy =                       -348.2238501443543441
  Basis Set: CC-PVTZ
  Basis Set:
  Basis Set: CC-PVTZ
  Basis Set:
  @DF-RHF Final Energy:  -348.22385395897851
    Total Energy =                       -348.2238539589783386
  Basis Set: CC-PVTZ
  Basis Set:
  Basis Set: CC-PVTZ
  Basis Set:
  @DF-RHF Final Energy:  -348.22385575422408
    Total Energy =                       -348.2238557542242461
  Basis Set: CC-PVTZ
  Basis Set:
  Charge       = 0
  Multiplicity = 1
  Basis Set: CC-PVTZ
  Basis Set:

    Orbital Energies (a.u.)
    -----------------------

    Doubly Occupied:

       1A    -20.538342     2A    -11.321436     3A    -11.231068
       4A    -11.227258     5A    -11.216765     6A    -11.211198
       7A    -11.209120     8A    -11.205239     9A     -1.399214
      10A     -1.089510    11A     -1.043032    12A     -1.001315
      13A     -0.934438    14A     -0.855644    15A     -0.782573
      16A     -0.727623    17A     -0.667027    18A     -0.633616
      19A     -0.631140    20A     -0.612749    21A     -0.603647
      22A     -0.582443    23A     -0.560987    24A     -0.549340
      25A     -0.524758    26A     -0.518216    27A     -0.498949
      28A     -0.487960    29A     -0.462595    30A     -0.459275
      31A     -0.450142    32A     -0.400896

  @DF-RHF Final Energy:  -348.22385598013710

   => Energetics <=

    Nuclear Repulsion Energy =            379.6374527751148094
    One-Electron Energy =               -1224.4475865343833902
    Two-Electron Energy =                 496.5862777791318763
    DFT Exchange-Correlation Energy =       0.0000000000000000
    Empirical Dispersion Energy =           0.0000000000000000
    PCM Polarization Energy =               0.0000000000000000
    EFP Energy =                            0.0000000000000000
    Total Energy =                       -348.2238559801367614
    Molecular point group: c1
  Basis Set: CC-PVTZ
  Basis Set:

  -Total Gradient:
     Atom            X                  Y                   Z
    ------   -----------------  -----------------  -----------------
       1       -0.000018268002    -0.000005723886    -0.000010147075
       2        0.000067222559    -0.000006486411     0.000065746070
       3        0.000437028553     0.002310307638    -0.001790985899
       4       -0.000026300849     0.000040277284    -0.000052659536
       5        0.000366194724     0.001928507531    -0.001492642806
       6       -0.000468210583    -0.002437035267     0.001884612421
       7       -0.000002511154    -0.000007985875     0.000004347236
       8       -0.000336546521    -0.001795824563     0.001383904581
       9       -0.000005782396    -0.000008591812    -0.000006066692
      10        0.000002737490     0.000002470812     0.000001627557
      11       -0.000014008064    -0.000008562806     0.000006967761
      12       -0.000004813778     0.000000670134    -0.000008930591
      13       -0.000006416391     0.000008879889    -0.000008718167
      14        0.000008347699     0.000015029705     0.000005157660
      15       -0.000003287334     0.000002561158    -0.000001516002
      16        0.000004835294    -0.000000653835     0.000005156251
      17       -0.000001350644    -0.000002599996     0.000000551279
      18       -0.000000129888     0.000006921772    -0.000001270183
      19        0.000009479534    -0.000005023265     0.000000501247
      20       -0.000013748445     0.000009521844    -0.000008318461
      21        0.000000548402    -0.000036546561     0.000008332544
      22        0.000004979792    -0.000010113489     0.000014350808

  **** Optimization is complete! (in 21 steps) ****
    Final optimized geometry and variables:
    Molecular point group: c1

    Geometry (in Angstrom), charge = 0, multiplicity = 1:

    O           -1.118016513024    -1.843971419669     0.376514975093
    C           -1.441290284588    -1.180813711144    -0.554207627109
    C           -1.246924775568     0.324289697248    -0.584344693972
    C           -2.113879010235    -1.791225418745    -1.761595056722
    C           -0.188179493112     0.864606860353     0.373022308968
    H           -2.223549821670     0.720544687002    -0.310461586487
    H           -1.059602247287     0.643806038137    -1.604402221658
    C            1.227556814201     0.368784853852     0.077644687574
    H           -0.223222738828     1.947045479201     0.327742272412
    H           -0.457106098078     0.582536250086     1.384548842046
    C            2.287853279794     0.877126133144     1.056373993146
    H            1.508622486510     0.661614206840    -0.933040382724
    H            1.231646402152    -0.713178818997     0.101909956727
    C            2.542215901777     2.381765440372     1.004330139597
    H            3.219357149961     0.360445638400     0.847318431107
    H            2.005254104363     0.592574721182     2.066084793575
    H            2.818931326301     2.695913284500     0.002746732082
    H            3.351635934622     2.657523526175     1.670592539512
    H            1.670637695385     2.952845139515     1.300994573955
    H           -2.997693291552    -1.226727689240    -2.036599243635
    H           -2.377466509899    -2.817878148755    -1.558425218417
    H           -1.432493561867    -1.754448360513    -2.605483186012

  Mulliken Charges: (a.u.)
   Center  Symbol    Alpha    Beta     Spin     Total
       1     O     4.17511  4.17511  0.00000 -0.35021
       2     C     2.85751  2.85751  0.00000  0.28497
       3     C     3.12189  3.12189  0.00000 -0.24378
       4     C     3.15183  3.15183  0.00000 -0.30366
       5     C     3.09184  3.09184  0.00000 -0.18369
       6     H     0.43610  0.43610  0.00000  0.12780
       7     H     0.44257  0.44257  0.00000  0.11487
       8     C     3.09973  3.09973  0.00000 -0.19945
       9     H     0.44439  0.44439  0.00000  0.11122
      10     H     0.44645  0.44645  0.00000  0.10710
      11     C     3.09232  3.09232  0.00000 -0.18464
      12     H     0.45823  0.45823  0.00000  0.08353
      13     H     0.43689  0.43689  0.00000  0.12623
      14     C     3.15234  3.15234  0.00000 -0.30468
      15     H     0.44829  0.44829  0.00000  0.10342
      16     H     0.45149  0.45149  0.00000  0.09701
      17     H     0.45598  0.45598  0.00000  0.08803
      18     H     0.44623  0.44623  0.00000  0.10754
      19     H     0.45477  0.45477  0.00000  0.09047
      20     H     0.45045  0.45045  0.00000  0.09909
      21     H     0.43607  0.43607  0.00000  0.12786
      22     H     0.44952  0.44952  0.00000  0.10097

   Total alpha = 32.00000, Total beta = 32.00000, Total charge =  0.00000

*** Psi4 exiting successfully. Buy a developer a beer!
