  ==> Input File <==

--------------------------------------------------------------------------
set {
	reference rhf
	basis 6-31G*
}

set_num_threads( 4 )
memory 2 gb

molecule MOL {
0 1

O	 3.678856	 -2.320370	 2.084526
C	 2.942916	 -1.701192	 1.385904
C	 1.455159	 -1.548334	 1.590847
O	 3.347903	 -1.046386	 0.304773
C	 0.942776	 -2.275458	 2.832164
H	 1.246631	 -0.484212	 1.627623
H	 0.965865	 -1.915816	 0.692378
C	 -0.579751	 -2.217794	 2.996731
H	 1.423932	 -1.862666	 3.713760
H	 1.255228	 -3.312739	 2.778829
C	 -1.146843	 -0.821946	 3.270816
H	 -0.854465	 -2.872265	 3.820700
H	 -1.056257	 -2.633413	 2.110045
C	 -2.653644	 -0.833505	 3.536179
H	 -0.634054	 -0.389661	 4.128717
H	 -0.943597	 -0.163138	 2.429605
C	 -3.232225	 0.556629	 3.806181
H	 -2.864340	 -1.480731	 4.385850
H	 -3.166133	 -1.275505	 2.683131
C	 -4.736735	 0.535871	 4.073988
H	 -2.720529	 1.000164	 4.657701
H	 -3.026425	 1.203809	 2.956131
H	 -5.117116	 1.535222	 4.261647
H	 -4.972275	 -0.075670	 4.940437
H	 -5.280370	 0.128963	 3.225955
C	 4.728119	 -1.109107	 -0.004993
H	 4.882018	 -1.033965	 -1.071845
H	 5.068212	 -2.067527	 0.355250
H	 5.265056	 -0.311663	 0.488280

	symmetry c1
}
set optking {
	frozen_dihedral = ("
		2 4 26 27
	")
}

ee = optimize('scf')
oeprop('DIPOLE', 'QUADRUPOLE', 'MULLIKEN_CHARGES')
f=open( 'psi4out.xyz', 'w' )
f.write( "29  " )
f.write( str(ee) + "\n" )
f.write( MOL.save_string_xyz() )
f.close()
--------------------------------------------------------------------------

    Molecular point group: c1
  Charge       = 0
  Multiplicity = 1
  Basis Set: 6-31G*
  Basis Set:
  @DF-RHF Final Energy:  -501.04114932007644
    Total Energy =                       -501.0411493200764426
    Molecular point group: c1
  Basis Set: 6-31G*
  Basis Set:
  Basis Set: 6-31G*
  Basis Set:
  @DF-RHF Final Energy:  -501.04241932889249
    Total Energy =                       -501.0424193288931747
  Basis Set: 6-31G*
  Basis Set:
  Basis Set: 6-31G*
  Basis Set:
  @DF-RHF Final Energy:  -501.04284969346349
    Total Energy =                       -501.0428496934632676
  Basis Set: 6-31G*
  Basis Set:
  Basis Set: 6-31G*
  Basis Set:
  @DF-RHF Final Energy:  -501.04274246712794
    Total Energy =                       -501.0427424671288463
  Basis Set: 6-31G*
  Basis Set:
  Basis Set: 6-31G*
  Basis Set:
  @DF-RHF Final Energy:  -501.04293529513632
    Total Energy =                       -501.0429352951366582
  Basis Set: 6-31G*
  Basis Set:
  Charge       = 0
  Multiplicity = 1
  Basis Set: 6-31G*
  Basis Set:

    Orbital Energies (a.u.)
    -----------------------

    Doubly Occupied:

       1A    -20.602773     2A    -20.544744     3A    -11.372739
       4A    -11.279885     5A    -11.234367     6A    -11.218781
       7A    -11.217441     8A    -11.215846     9A    -11.215730
      10A    -11.214332    11A    -11.208985    12A     -1.467491
      13A     -1.362785    14A     -1.097850    15A     -1.066619
      16A     -1.019522    17A     -0.977582    18A     -0.928492
      19A     -0.861400    20A     -0.799073    21A     -0.790319
      22A     -0.763312    23A     -0.701091    24A     -0.681217
      25A     -0.672155    26A     -0.650778    27A     -0.628959
      28A     -0.604819    29A     -0.594410    30A     -0.580807
      31A     -0.567975    32A     -0.549699    33A     -0.533270
      34A     -0.528313    35A     -0.514654    36A     -0.511943
      37A     -0.496184    38A     -0.477635    39A     -0.470038
      40A     -0.462199    41A     -0.458404    42A     -0.454624
      43A     -0.440576    44A     -0.435411

  @DF-RHF Final Energy:  -501.04293598085508

   => Energetics <=

    Nuclear Repulsion Energy =            609.9116572971187225
    One-Electron Energy =               -1890.9587305559716697
    Two-Electron Energy =                 780.0041372779977564
    DFT Exchange-Correlation Energy =       0.0000000000000000
    Empirical Dispersion Energy =           0.0000000000000000
    PCM Polarization Energy =               0.0000000000000000
    EFP Energy =                            0.0000000000000000
    Total Energy =                       -501.0429359808550771
    Molecular point group: c1
  Basis Set: 6-31G*
  Basis Set:

  -Total Gradient:
     Atom            X                  Y                   Z
    ------   -----------------  -----------------  -----------------
       1        0.000046105137     0.000062412874    -0.000077492164
       2       -0.000250009833    -0.001225405949    -0.000839249386
       3       -0.000021940627     0.000008829632    -0.000000222971
       4        0.000420956913     0.001379812928     0.001126677907
       5       -0.000005214360     0.000002541138    -0.000005186843
       6       -0.000006131239    -0.000000158628     0.000006221897
       7       -0.000007761670     0.000007388296     0.000005853773
       8       -0.000001846837    -0.000003625732     0.000007978750
       9        0.000000380249    -0.000003283264    -0.000005085173
      10       -0.000001103129     0.000002172566    -0.000002132807
      11        0.000001621573    -0.000002150414    -0.000002135137
      12       -0.000004838781     0.000002560404     0.000003330271
      13       -0.000001544661    -0.000001099977     0.000002903516
      14       -0.000000520123     0.000000992735    -0.000000955493
      15       -0.000001439219    -0.000002025550    -0.000000122294
      16        0.000005594976     0.000001815830    -0.000002772977
      17       -0.000000901078    -0.000000854894    -0.000000183024
      18        0.000000327049     0.000000467609     0.000000060946
      19       -0.000000501709    -0.000000250898     0.000000363229
      20       -0.000000379434     0.000001086502    -0.000000610326
      21       -0.000000014499    -0.000000301019     0.000000109955
      22       -0.000000048472     0.000000239538     0.000000252166
      23       -0.000000726817     0.000000249339    -0.000000013401
      24        0.000000328316     0.000000135331    -0.000000087990
      25       -0.000000119667    -0.000000177761     0.000000078641
      26       -0.000011992109     0.001431485337    -0.000076525595
      27       -0.000170834753    -0.001630847797    -0.000140665815
      28        0.000034240145    -0.000040072593     0.000012522521
      29       -0.000021685359     0.000008064414    -0.000012912172

  **** Optimization is complete! (in 6 steps) ****
    Final optimized geometry and variables:
    Molecular point group: c1

    Geometry (in Angstrom), charge = 0, multiplicity = 1:

    O            3.206408361361    -1.174103166368    -0.224904859714
    C            2.479274428105    -0.548733553087    -0.926866458787
    C            0.990358100814    -0.393108920554    -0.730129586680
    O            2.886274238792     0.115204723280    -2.002433147825
    C            0.468158409552    -1.124179731430     0.504706579483
    H            0.784864464366     0.671448573917    -0.689577359881
    H            0.505370126829    -0.754702683604    -1.633257306186
    C           -1.055152714253    -1.062105316986     0.660339899153
    H            0.945362691900    -0.717056162925     1.391055958736
    H            0.777374561975    -2.162267558674     0.448543389328
    C           -1.619288526653     0.334520267297     0.936609367559
    H           -1.337063069093    -1.718925834980     1.480008779830
    H           -1.527713277334    -1.472551806983    -0.230865519567
    C           -3.127750959295     0.326961771715     1.192553036000
    H           -1.110413639753     0.761566637421     1.799444575674
    H           -1.408595140386     0.996064235298     0.099395900294
    C           -3.703438562286     1.717964856975     1.464238598664
    H           -3.345883105421    -0.322780888081     2.038415975773
    H           -3.636360081620    -0.110101245681     0.334654080427
    C           -5.209757373430     1.701263364103     1.722001953494
    H           -3.195909760703     2.156407927161     2.320871268660
    H           -3.489833886057     2.367789277007     0.618142233007
    H           -5.588034880598     2.701176843945     1.910938231452
    H           -5.453079276276     1.087241669313     2.584535689747
    H           -5.749115152286     1.299392166943     0.868849499650
    C            4.256494572229     0.047833032367    -2.356181155301
    H            4.298974575802     0.150034303358    -3.429960632607
    H            4.683730885877    -0.895561106868    -2.056462704385
    H            4.796681534788     0.856533178288    -1.882649342314

  Mulliken Charges: (a.u.)
   Center  Symbol    Alpha    Beta     Spin     Total
       1     O     4.28562  4.28562  0.00000 -0.57125
       2     C     2.60467  2.60467  0.00000  0.79066
       3     C     3.20993  3.20993  0.00000 -0.41986
       4     O     4.30864  4.30864  0.00000 -0.61727
       5     C     3.15376  3.15376  0.00000 -0.30751
       6     H     0.39872  0.39872  0.00000  0.20256
       7     H     0.40148  0.40148  0.00000  0.19705
       8     C     3.15660  3.15660  0.00000 -0.31321
       9     H     0.41309  0.41309  0.00000  0.17383
      10     H     0.40886  0.40886  0.00000  0.18229
      11     C     3.15506  3.15506  0.00000 -0.31012
      12     H     0.41828  0.41828  0.00000  0.16343
      13     H     0.42392  0.42392  0.00000  0.15215
      14     C     3.15029  3.15029  0.00000 -0.30057
      15     H     0.42261  0.42261  0.00000  0.15479
      16     H     0.42360  0.42360  0.00000  0.15281
      17     C     3.15145  3.15145  0.00000 -0.30290
      18     H     0.42334  0.42334  0.00000  0.15333
      19     H     0.42400  0.42400  0.00000  0.15200
      20     C     3.23935  3.23935  0.00000 -0.47869
      21     H     0.42280  0.42280  0.00000  0.15440
      22     H     0.42344  0.42344  0.00000  0.15313
      23     H     0.41924  0.41924  0.00000  0.16151
      24     H     0.42155  0.42155  0.00000  0.15689
      25     H     0.42184  0.42184  0.00000  0.15631
      26     C     3.09524  3.09524  0.00000 -0.19047
      27     H     0.40989  0.40989  0.00000  0.18021
      28     H     0.39973  0.39973  0.00000  0.20054
      29     H     0.41301  0.41301  0.00000  0.17397

   Total alpha = 44.00000, Total beta = 44.00000, Total charge = -0.00000
