  ==> Input File <==

--------------------------------------------------------------------------
set {
	reference rhf
	basis 6-31G*
}

set_num_threads( 1 )
memory 2 gb

molecule MOL {
0 1

H	 2.805627	 2.620528	 -4.242413
C	 3.117903	 2.255798	 -3.268771
C	 1.942608	 2.209738	 -2.293201
H	 3.547412	 1.268100	 -3.407753
H	 3.905120	 2.911544	 -2.906713
C	 2.350114	 1.705791	 -0.906915
H	 1.166268	 1.568303	 -2.697500
H	 1.512160	 3.205743	 -2.201658
C	 1.197702	 1.665840	 0.096887
H	 2.777700	 0.713032	 -0.992019
H	 3.128274	 2.352795	 -0.508298
C	 0.169600	 0.576866	 -0.172154
H	 1.587778	 1.483404	 1.097051
H	 0.694134	 2.628585	 0.149025
C	 -1.181045	 0.701995	 0.511084
O	 0.414819	 -0.354397	 -0.878569
C	 -2.285934	 -0.139295	 -0.145128
H	 -1.449051	 1.751551	 0.493206
H	 -1.071135	 0.403303	 1.551943
C	 -3.651768	 0.085446	 0.506485
H	 -2.346596	 0.110469	 -1.202272
H	 -2.034737	 -1.195320	 -0.088721
C	 -4.759797	 -0.746382	 -0.137905
H	 -3.908762	 1.140117	 0.445781
H	 -3.588286	 -0.154158	 1.565709
H	 -4.868882	 -0.505166	 -1.191300
H	 -4.548009	 -1.809175	 -0.062213
H	 -5.715422	 -0.564821	 0.343442

	symmetry c1
}
set optking {
	frozen_dihedral = ("
		10 6 3 2,
		12 15 17 21
	")
}

ee = energy('scf')
oeprop('DIPOLE', 'QUADRUPOLE', 'MULLIKEN_CHARGES')
f=open( 'psi4out.xyz', 'w' )
f.write( "28  " )
f.write( str(ee) + "\n" )
f.write( MOL.save_string_xyz() )
f.close()
--------------------------------------------------------------------------

    Molecular point group: c1

    Geometry (in Angstrom), charge = 0, multiplicity = 1:

       Center              X                  Y                   Z               Mass
    ------------   -----------------  -----------------  -----------------  -----------------
           H          3.080326312047     1.831211238035    -3.554822733733     1.007825032070
           C          3.392602312047     1.466481238035    -2.581180733733    12.000000000000
           C          2.217307312047     1.420421238035    -1.605610733733    12.000000000000
           H          3.822111312047     0.478783238035    -2.720162733733     1.007825032070
           H          4.179819312047     2.122227238035    -2.219122733733     1.007825032070
           C          2.624813312047     0.916474238035    -0.219324733733    12.000000000000
           H          1.440967312047     0.778986238035    -2.009909733733     1.007825032070
           H          1.786859312047     2.416426238035    -1.514067733733     1.007825032070
           C          1.472401312047     0.876523238035     0.784477266267    12.000000000000
           H          3.052399312047    -0.076284761965    -0.304428733733     1.007825032070
           H          3.402973312047     1.563478238035     0.179292266267     1.007825032070
           C          0.444299312047    -0.212450761965     0.515436266267    12.000000000000
           H          1.862477312047     0.694087238035     1.784641266267     1.007825032070
           H          0.968833312047     1.839268238035     0.836615266267     1.007825032070
           C         -0.906345687953    -0.087321761965     1.198674266267    12.000000000000
           O          0.689518312047    -1.143713761965    -0.190978733733    15.994914619560
           C         -2.011234687953    -0.928611761965     0.542462266267    12.000000000000
           H         -1.174351687953     0.962234238035     1.180796266267     1.007825032070
           H         -0.796435687953    -0.386013761965     2.239533266267     1.007825032070
           C         -3.377068687953    -0.703870761965     1.194075266267    12.000000000000
           H         -2.071896687953    -0.678847761965    -0.514681733733     1.007825032070
           H         -1.760037687953    -1.984636761965     0.598869266267     1.007825032070
           C         -4.485097687953    -1.535698761965     0.549685266267    12.000000000000
           H         -3.634062687953     0.350800238035     1.133371266267     1.007825032070
           H         -3.313586687953    -0.943474761965     2.253299266267     1.007825032070
           H         -4.594182687953    -1.294482761965    -0.503709733733     1.007825032070
           H         -4.273309687953    -2.598491761965     0.625377266267     1.007825032070
           H         -5.440722687953    -1.354137761965     1.031032266267     1.007825032070

  Charge       = 0
  Multiplicity = 1
  Basis Set: 6-31G*
  Basis Set:

    Orbital Energies (a.u.)
    -----------------------

    Doubly Occupied:

       1A    -20.548712     2A    -11.323405     3A    -11.231025
       4A    -11.230577     5A    -11.218925     6A    -11.218255
       7A    -11.217274     8A    -11.213106     9A    -11.210117
      10A    -11.206315    11A     -1.394554    12A     -1.087313
      13A     -1.077313    14A     -1.021235    15A     -0.990717
      16A     -0.909942    17A     -0.866293    18A     -0.805631
      19A     -0.791497    20A     -0.723160    21A     -0.667511
      22A     -0.657332    23A     -0.623708    24A     -0.618795
      25A     -0.609606    26A     -0.582726    27A     -0.578955
      28A     -0.575281    29A     -0.533955    30A     -0.529536
      31A     -0.519226    32A     -0.507985    33A     -0.492947
      34A     -0.480782    35A     -0.472653    36A     -0.469709
      37A     -0.467275    38A     -0.465277    39A     -0.457453
      40A     -0.394551

  @DF-RHF Final Energy:  -426.17000310485696

   => Energetics <=

    Nuclear Repulsion Energy =            531.1167974548906159
    One-Electron Energy =               -1630.5922308046347098
    Two-Electron Energy =                 673.3054302448861108
    DFT Exchange-Correlation Energy =       0.0000000000000000
    Empirical Dispersion Energy =           0.0000000000000000
    PCM Polarization Energy =               0.0000000000000000
    EFP Energy =                            0.0000000000000000
    Total Energy =                       -426.1700031048578694

  Mulliken Charges: (a.u.)
   Center  Symbol    Alpha    Beta     Spin     Total
       1     H     0.41928  0.41928  0.00000  0.16143
       2     C     3.24014  3.24014  0.00000 -0.48028
       3     C     3.15644  3.15644  0.00000 -0.31289
       4     H     0.41823  0.41823  0.00000  0.16354
       5     H     0.42347  0.42347  0.00000  0.15306
       6     C     3.14954  3.14954  0.00000 -0.29909
       7     H     0.41075  0.41075  0.00000  0.17851
       8     H     0.42754  0.42754  0.00000  0.14492
       9     C     3.20823  3.20823  0.00000 -0.41647
      10     H     0.40649  0.40649  0.00000  0.18702
      11     H     0.42157  0.42157  0.00000  0.15685
      12     C     2.73553  2.73553  0.00000  0.52894
      13     H     0.40414  0.40414  0.00000  0.19172
      14     H     0.41261  0.41261  0.00000  0.17478
      15     C     3.20485  3.20485  0.00000 -0.40969
      16     O     4.26790  4.26790  0.00000 -0.53579
      17     C     3.14776  3.14776  0.00000 -0.29552
      18     H     0.41351  0.41351  0.00000  0.17298
      19     H     0.40547  0.40547  0.00000  0.18906
      20     C     3.15333  3.15333  0.00000 -0.30667
      21     H     0.41692  0.41692  0.00000  0.16616
      22     H     0.40954  0.40954  0.00000  0.18093
      23     C     3.23933  3.23933  0.00000 -0.47866
      24     H     0.42421  0.42421  0.00000  0.15158
      25     H     0.42386  0.42386  0.00000  0.15228
      26     H     0.42040  0.42040  0.00000  0.15920
      27     H     0.41985  0.41985  0.00000  0.16030
      28     H     0.41909  0.41909  0.00000  0.16181

   Total alpha = 40.00000, Total beta = 40.00000, Total charge =  0.00000
