                              Psi4 1.0.54 Driver

  ==> Input File <==

--------------------------------------------------------------------------
set {
	reference rhf
	basis cc-pvtz
}

set_num_threads( 4 )
memory 2 gb

molecule MOL {
0 1

H	 -4.340537	 -0.784487	 0.000000
O	 -3.958786	 0.074640	 0.000000
C	 -2.613554	 0.009900	 0.000000
C	 -1.928223	 0.918550	 0.789210
C	 -1.912803	 -0.916451	 -0.748137
H	 -2.482023	 1.632757	 1.365470
C	 -0.551696	 0.897028	 0.826694
H	 -2.437468	 -1.624593	 -1.362814
C	 -0.530485	 -0.936698	 -0.709350
H	 -0.023360	 1.600723	 1.437793
C	 0.144462	 -0.031531	 0.076521
H	 0.008707	 -1.656779	 -1.291123
Br	 2.041877	 -0.057045	 0.131670

	symmetry c1
}
set optking {
	frozen_dihedral = ("
		4 3 2 1
	")
}

ee,wfn = optimize('scf', return_wfn=True)
oeprop( wfn, 'DIPOLE', 'QUADRUPOLE', 'MULLIKEN_CHARGES')
f=open( 'psi4out.xyz', 'w' )
f.write( "13  " )
f.write( str(ee) + "\n" )
f.write( MOL.save_string_xyz() )
f.close()
--------------------------------------------------------------------------

    Molecular point group: c1
  Charge       = 0
  Multiplicity = 1
  Basis Set: CC-PVTZ
  Basis Set:
  @DF-RHF Final Energy: -2877.54497810903422
    Total Energy =                      -2877.5449781090351280
    Molecular point group: c1
  Basis Set: CC-PVTZ
  Basis Set:
  Basis Set: CC-PVTZ
  Basis Set:
  @DF-RHF Final Energy: -2877.54508927796405
    Total Energy =                      -2877.5450892779626884
  Basis Set: CC-PVTZ
  Basis Set:
  Basis Set: CC-PVTZ
  Basis Set:
  @DF-RHF Final Energy: -2877.54510563289205
    Total Energy =                      -2877.5451056328925006
  Basis Set: CC-PVTZ
  Basis Set:
  Charge       = 0
  Multiplicity = 1
  Basis Set: CC-PVTZ
  Basis Set:

    Orbital Energies (a.u.)
    -----------------------

    Doubly Occupied:

       1A   -490.019507     2A    -65.159834     3A    -58.515059
       4A    -58.513692     5A    -58.513684     6A    -20.590580
       7A    -11.308200     8A    -11.290397     9A    -11.253433
      10A    -11.252006    11A    -11.242939    12A    -11.238808
      13A     -9.833633    14A     -7.445254    15A     -7.438489
      16A     -7.438438    17A     -3.188945    18A     -3.185394
      19A     -3.185278    20A     -3.176631    21A     -3.176627
      22A     -1.420556    23A     -1.180322    24A     -1.067201
      25A     -1.042076    26A     -0.970561    27A     -0.866450
      28A     -0.827463    29A     -0.756342    30A     -0.685908
      31A     -0.655810    32A     -0.640242    33A     -0.610345
      34A     -0.604130    35A     -0.563828    36A     -0.527379
      37A     -0.504464    38A     -0.501105    39A     -0.430258
      40A     -0.414523    41A     -0.359820    42A     -0.322193

  @DF-RHF Final Energy: -2877.54510739533180

   => Energetics <=

    Nuclear Repulsion Energy =            525.3655220834817783
    One-Electron Energy =               -5041.9856431744992733
    Two-Electron Energy =                1639.0750136956880851
    DFT Exchange-Correlation Energy =       0.0000000000000000
    Empirical Dispersion Energy =           0.0000000000000000
    PCM Polarization Energy =               0.0000000000000000
    EFP Energy =                            0.0000000000000000
    Total Energy =                      -2877.5451073953295236
    Molecular point group: c1
  Basis Set: CC-PVTZ
  Basis Set:

  -Total Gradient:
     Atom            X                  Y                   Z
    ------   -----------------  -----------------  -----------------
       1        0.000035757716     0.000000419349     0.002631645518
       2       -0.000146974708    -0.000509041907    -0.002564194174
       3        0.000301292552     0.001602960718    -0.001568396676
       4        0.000081628485    -0.001195593529     0.001474875586
       5       -0.000199945116     0.000139390540     0.000007139655
       6       -0.000029890598     0.000013485787     0.000022749141
       7       -0.000232516982     0.000155622894     0.000069212838
       8        0.000011043969    -0.000000511899     0.000007371731
       9        0.000256003476     0.000064444690     0.000105446698
      10       -0.000011469379    -0.000019013737    -0.000011177992
      11       -0.000009333581    -0.000261415427    -0.000180896724
      12       -0.000018397268    -0.000011007835     0.000004300134
      13       -0.000037198469     0.000020260373     0.000001924281

  **** Optimization is complete! (in 4 steps) ****
    Final optimized geometry and variables:
    Molecular point group: c1

    Geometry (in Angstrom), charge = 0, multiplicity = 1:

    H           -4.339845822643    -0.761415073702    -0.088399576655
    O           -3.962888139334     0.100166114314    -0.087279842448
    C           -2.609581831529     0.037119290079    -0.068102592075
    C           -1.924961194697     0.942904837453     0.720416841663
    C           -1.911261442002    -0.890260328296    -0.817525795146
    H           -2.478533319007     1.653312465177     1.301755251556
    C           -0.545923214080     0.929466852675     0.748935609575
    H           -2.441732039791    -1.588148000972    -1.437669474790
    C           -0.529932365582    -0.914193545924    -0.778848330430
    H           -0.015919546447     1.634128087799     1.357301081908
    C            0.145805572413    -0.002248513201     0.001389959851
    H            0.009451344741    -1.635099500792    -1.359311102655
    BR           2.043066386808    -0.027027099547     0.050038308766

  Mulliken Charges: (a.u.)
   Center  Symbol    Alpha    Beta     Spin     Total
       1     H     0.38453  0.38453  0.00000  0.23093
       2     O     4.17952  4.17952  0.00000 -0.35905
       3     C     2.87121  2.87121  0.00000  0.25758
       4     C     3.09193  3.09193  0.00000 -0.18385
       5     C     3.11007  3.11007  0.00000 -0.22015
       6     H     0.41406  0.41406  0.00000  0.17188
       7     C     3.08099  3.08099  0.00000 -0.16198
       8     H     0.42310  0.42310  0.00000  0.15381
       9     C     3.08609  3.08609  0.00000 -0.17218
      10     H     0.41042  0.41042  0.00000  0.17916
      11     C     2.97184  2.97184  0.00000  0.05632
      12     H     0.41049  0.41049  0.00000  0.17901
      13    BR    17.56574 17.56574  0.00000 -0.13148

   Total alpha = 42.00000, Total beta = 42.00000, Total charge = -0.00000

*** Psi4 exiting successfully. Buy a developer a beer!
