  ==> Input File <==

--------------------------------------------------------------------------
set {
	reference rhf
	basis cc-pvtz
}

set_num_threads( 4 )
memory 2 gb

molecule MOL {
0 1

H	 -1.082161	 0.917598	 0.035543
N	 -0.712187	 0.000026	 -0.093397
C	 0.734067	 -0.000020	 0.038424
H	 -0.987514	 -0.302741	 -1.003327
H	 1.140372	 -0.872115	 -0.458226
H	 1.140363	 0.872301	 -0.457869
H	 1.095085	 -0.000244	 1.065614

	symmetry c1
}
set optking {
	frozen_dihedral = ("
		1 2 3 7
	")
}

ee = optimize('scf')
oeprop('DIPOLE', 'QUADRUPOLE', 'MULLIKEN_CHARGES')
f=open( 'psi4out.xyz', 'w' )
f.write( "7  " )
f.write( str(ee) + "\n" )
f.write( MOL.save_string_xyz() )
f.close()
--------------------------------------------------------------------------

    Molecular point group: c1
  Charge       = 0
  Multiplicity = 1
  Basis Set: CC-PVTZ
  Basis Set:
  @DF-RHF Final Energy:   -95.25138895138033
    Total Energy =                        -95.2513889513803349
    Molecular point group: c1
  Basis Set: CC-PVTZ
  Basis Set:
  Basis Set: CC-PVTZ
  Basis Set:
  @DF-RHF Final Energy:   -95.25294312678736
    Total Energy =                        -95.2529431267873434
  Basis Set: CC-PVTZ
  Basis Set:
  Basis Set: CC-PVTZ
  Basis Set:
  @DF-RHF Final Energy:   -95.25310369344027
    Total Energy =                        -95.2531036934402664
  Basis Set: CC-PVTZ
  Basis Set:
  Charge       = 0
  Multiplicity = 1
  Basis Set: CC-PVTZ
  Basis Set:

    Orbital Energies (a.u.)
    -----------------------

    Doubly Occupied:

       1A    -15.528933     2A    -11.235604     3A     -1.172335
       4A     -0.897425     5A     -0.664498     6A     -0.603938
       7A     -0.559101     8A     -0.515668     9A     -0.388218

  @DF-RHF Final Energy:   -95.25310545736606

   => Energetics <=

    Nuclear Repulsion Energy =             42.3702780596557460
    One-Electron Energy =                -212.1153283619194099
    Two-Electron Energy =                  74.4919448448976596
    DFT Exchange-Correlation Energy =       0.0000000000000000
    Empirical Dispersion Energy =           0.0000000000000000
    PCM Polarization Energy =               0.0000000000000000
    EFP Energy =                            0.0000000000000000
    Total Energy =                        -95.2531054573660185
    Molecular point group: c1
  Basis Set: CC-PVTZ
  Basis Set:

  -Total Gradient:
     Atom            X                  Y                   Z
    ------   -----------------  -----------------  -----------------
       1        0.000143976372     0.000384861814    -0.002177276234
       2        0.000004486902    -0.000950712738     0.002716223352
       3       -0.000230228569     0.002587779294    -0.000564083643
       4        0.000071867325    -0.000017167089     0.000070989529
       5        0.000006793263    -0.000002316751    -0.000005156299
       6        0.000007723537     0.000044547587    -0.000014309576
       7       -0.000004618828    -0.002046992116    -0.000026387128

  **** Optimization is complete! (in 4 steps) ****
    Final optimized geometry and variables:
    Molecular point group: c1

    Geometry (in Angstrom), charge = 0, multiplicity = 1:

    H           -1.106563034048     0.872058788420     0.129162360173
    N           -0.718308745370    -0.034377124903    -0.024453368700
    C            0.732321223678    -0.002110240249     0.070344497138
    H           -1.001356615999    -0.309310162570    -0.940957312345
    H            1.137490207563    -0.899673868879    -0.380258309924
    H            1.197603210952     0.852302811454    -0.416450280819
    H            1.033636188748    -0.012603484677     1.110687336618

  Mulliken Charges: (a.u.)
   Center  Symbol    Alpha    Beta     Spin     Total
       1     H     0.42979  0.42979  0.00000  0.14042
       2     N     3.68507  3.68507  0.00000 -0.37014
       3     C     3.07094  3.07094  0.00000 -0.14188
       4     H     0.42871  0.42871  0.00000  0.14257
       5     H     0.45737  0.45737  0.00000  0.08526
       6     H     0.47118  0.47118  0.00000  0.05763
       7     H     0.45694  0.45694  0.00000  0.08613

   Total alpha =  9.00000, Total beta =  9.00000, Total charge =  0.00000
