  ==> Input File <==

--------------------------------------------------------------------------
set {
	reference rhf
	basis 6-31G*
}

set_num_threads( 4 )
memory 2 gb

molecule MOL {
0 1

O	 0.182608	 -4.503900	 -2.584464
C	 0.417374	 -3.439248	 -3.070093
C	 0.374212	 -2.174271	 -2.230881
C	 0.798878	 -3.297820	 -4.526742
C	 1.656059	 -2.026929	 -1.395237
H	 -0.482373	 -2.247362	 -1.569653
H	 0.240357	 -1.300793	 -2.862661
C	 1.631333	 -0.777471	 -0.511575
H	 1.770214	 -2.919766	 -0.790923
H	 2.520724	 -1.981567	 -2.055573
C	 2.915987	 -0.544314	 0.291766
H	 0.786532	 -0.839154	 0.171970
H	 1.452551	 0.092818	 -1.139653
C	 3.373361	 0.914346	 0.347591
H	 3.708709	 -1.142521	 -0.150311
H	 2.780642	 -0.921148	 1.303579
H	 3.506512	 1.320010	 -0.651625
H	 4.322697	 0.999599	 0.867103
H	 2.660624	 1.545032	 0.868198
H	 0.021556	 -2.753639	 -5.056745
H	 0.921844	 -4.274452	 -4.973792
H	 1.716806	 -2.726376	 -4.630009

	symmetry c1
}
set optking {
	frozen_dihedral = ("
		12 8 11 15
	")
}

ee = optimize('scf')
oeprop('DIPOLE', 'QUADRUPOLE', 'MULLIKEN_CHARGES')
f=open( 'psi4out.xyz', 'w' )
f.write( "22  " )
f.write( str(ee) + "\n" )
f.write( MOL.save_string_xyz() )
f.close()
--------------------------------------------------------------------------

    Molecular point group: c1
  Charge       = 0
  Multiplicity = 1
  Basis Set: 6-31G*
  Basis Set:
  @DF-RHF Final Energy:  -348.09509837224357
    Total Energy =                       -348.0950983722433421
    Molecular point group: c1
  Basis Set: 6-31G*
  Basis Set:
  Basis Set: 6-31G*
  Basis Set:
  @DF-RHF Final Energy:  -348.09572932221329
    Total Energy =                       -348.0957293222131170
  Basis Set: 6-31G*
  Basis Set:
  Basis Set: 6-31G*
  Basis Set:
  @DF-RHF Final Energy:  -348.09357775762663
    Total Energy =                       -348.0935777576266332
  Basis Set: 6-31G*
  Basis Set:
  Basis Set: 6-31G*
  Basis Set:
  @DF-RHF Final Energy:  -348.09583363603770
    Total Energy =                       -348.0958336360376393
  Basis Set: 6-31G*
  Basis Set:
  @DF-RHF Final Energy:  -348.09548228119365
    Total Energy =                       -348.0954822811937674
  @DF-RHF Final Energy:  -348.09552526234239
    Total Energy =                       -348.0955252623425622
  Basis Set: 6-31G*
  Basis Set:
  @DF-RHF Final Energy:  -348.09583649477463
    Total Energy =                       -348.0958364947746304
  Basis Set: 6-31G*
  Basis Set:
  Basis Set: 6-31G*
  Basis Set:
  @DF-RHF Final Energy:  -348.09584996980641
    Total Energy =                       -348.0958499698062951
  Basis Set: 6-31G*
  Basis Set:
  Basis Set: 6-31G*
  Basis Set:
  @DF-RHF Final Energy:  -348.09588179291273
    Total Energy =                       -348.0958817929128486
  Basis Set: 6-31G*
  Basis Set:
  Charge       = 0
  Multiplicity = 1
  Basis Set: 6-31G*
  Basis Set:

    Orbital Energies (a.u.)
    -----------------------

    Doubly Occupied:

       1A    -20.547279     2A    -11.324419     3A    -11.230189
       4A    -11.228952     5A    -11.228138     6A    -11.222264
       7A    -11.220235     8A    -11.213379     9A     -1.393029
      10A     -1.094920    11A     -1.044743    12A     -1.000778
      13A     -0.939049    14A     -0.846091    15A     -0.798902
      16A     -0.732553    17A     -0.663189    18A     -0.647005
      19A     -0.628671    20A     -0.610271    21A     -0.592834
      22A     -0.587246    23A     -0.560815    24A     -0.548479
      25A     -0.536141    26A     -0.511867    27A     -0.497709
      28A     -0.488863    29A     -0.474370    30A     -0.464925
      31A     -0.458557    32A     -0.395910

  @DF-RHF Final Energy:  -348.09588157835708

   => Energetics <=

    Nuclear Repulsion Energy =            368.7531941995542866
    One-Electron Energy =               -1202.2346115441414440
    Two-Electron Energy =                 485.3855357662303049
    DFT Exchange-Correlation Energy =       0.0000000000000000
    Empirical Dispersion Energy =           0.0000000000000000
    PCM Polarization Energy =               0.0000000000000000
    EFP Energy =                            0.0000000000000000
    Total Energy =                       -348.0958815783568525
    Molecular point group: c1
  Basis Set: 6-31G*
  Basis Set:

  -Total Gradient:
     Atom            X                  Y                   Z
    ------   -----------------  -----------------  -----------------
       1        0.000027767986    -0.000009598510     0.000031608903
       2       -0.000018084199     0.000006980571    -0.000045751198
       3        0.000047259215     0.000010744748    -0.000000115842
       4       -0.000031212995    -0.000016269877    -0.000010164594
       5       -0.000034494652    -0.000010279445     0.000022200227
       6       -0.000012854145     0.000006050424     0.000003412129
       7       -0.000004247826     0.000006504661     0.000004490223
       8       -0.000817812703     0.004150845917     0.000358433959
       9       -0.000022199854     0.000006175690    -0.000017670316
      10        0.000025651267    -0.000009006884     0.000020212117
      11        0.001499364279     0.002919311202    -0.002869938270
      12        0.000398898533    -0.003978335818     0.000169375201
      13       -0.000027724847    -0.000017618180     0.000001810648
      14        0.000002048735     0.000005335566     0.000050370470
      15       -0.001077067166    -0.003098763794     0.002281842623
      16        0.000016466062     0.000012411026    -0.000012268013
      17        0.000019779136    -0.000020134400     0.000004793195
      18       -0.000006484602     0.000009111585     0.000022369037
      19       -0.000002205472     0.000012617564    -0.000021111431
      20        0.000008940038     0.000011093802    -0.000015299372
      21        0.000003298981     0.000002462974     0.000005602218
      22        0.000004914229     0.000000361184     0.000015798087

  **** Optimization is complete! (in 10 steps) ****
    Final optimized geometry and variables:
    Molecular point group: c1

    Geometry (in Angstrom), charge = 0, multiplicity = 1:

    O           -1.232711008103    -2.543428637967    -0.838740542675
    C           -1.018576196494    -1.481349972180    -1.339095343096
    C           -1.069744233417    -0.207100699430    -0.514609609475
    C           -0.662587544182    -1.350815349306    -2.803455098821
    C            0.236457973550    -0.008017270908     0.269755503906
    H           -1.899281605671    -0.296756939030     0.178148615039
    H           -1.252826608482     0.653082561673    -1.152658749990
    C            0.218899387683     1.255758882777     1.134087535374
    H            0.400245587465    -0.880101475960     0.895920263093
    H            1.076575316556     0.042051986093    -0.420595120084
    C            1.501049617791     1.424062850278     1.972065793170
    H           -0.641862845109     1.194537040918     1.795089117574
    H            0.069920974564     2.122995810855     0.495090546712
    C            1.948022452416     2.876616508589     2.123533573801
    H            2.302934650062     0.827525960939     1.543813336232
    H            1.335098276177     0.999424312557     2.958999882424
    H            2.191142842863     3.313812224193     1.159178881733
    H            2.827522958395     2.954554182116     2.754989862213
    H            1.164449812245     3.481549222528     2.571234894809
    H           -1.459503523342    -0.830045224550    -3.327814181419
    H           -0.526601791087    -2.330557084172    -3.239749996018
    H            0.241421834698    -0.762092501288    -2.929137983657

  Mulliken Charges: (a.u.)
   Center  Symbol    Alpha    Beta     Spin     Total
       1     O     4.26221  4.26221  0.00000 -0.52442
       2     C     2.73710  2.73710  0.00000  0.52580
       3     C     3.20046  3.20046  0.00000 -0.40092
       4     C     3.28953  3.28953  0.00000 -0.57906
       5     C     3.16439  3.16439  0.00000 -0.32879
       6     H     0.40121  0.40121  0.00000  0.19757
       7     H     0.41692  0.41692  0.00000  0.16617
       8     C     3.15278  3.15278  0.00000 -0.30556
       9     H     0.40595  0.40595  0.00000  0.18810
      10     H     0.42063  0.42063  0.00000  0.15874
      11     C     3.15530  3.15530  0.00000 -0.31061
      12     H     0.41831  0.41831  0.00000  0.16337
      13     H     0.42148  0.42148  0.00000  0.15703
      14     C     3.23993  3.23993  0.00000 -0.47987
      15     H     0.42004  0.42004  0.00000  0.15993
      16     H     0.41871  0.41871  0.00000  0.16259
      17     H     0.42198  0.42198  0.00000  0.15603
      18     H     0.41868  0.41868  0.00000  0.16263
      19     H     0.42063  0.42063  0.00000  0.15873
      20     H     0.40682  0.40682  0.00000  0.18635
      21     H     0.39707  0.39707  0.00000  0.20586
      22     H     0.40984  0.40984  0.00000  0.18032

   Total alpha = 32.00000, Total beta = 32.00000, Total charge =  0.00000
