  ==> Input File <==

--------------------------------------------------------------------------
set {
	reference rhf
	basis cc-pvtz
}

set_num_threads( 4 )
memory 2 gb

molecule MOL {
0 1

H	 -2.498963	 -0.741158	 -0.729149
O	 -2.346257	 -0.289210	 0.080372
C	 -1.183935	 0.486039	 -0.009831
C	 0.062853	 -0.375310	 0.027457
H	 -1.178881	 1.094526	 -0.908634
H	 -1.184406	 1.155156	 0.838676
O	 -0.132013	 -1.462676	 -0.815818
H	 0.252290	 -0.711869	 1.048112
H	 0.921563	 0.214400	 -0.286284
C	 0.951344	 -2.328526	 -0.904487
H	 1.195931	 -2.759527	 0.063857
H	 0.683490	 -3.125618	 -1.582413
H	 1.833855	 -1.822585	 -1.288829

	symmetry c1
}
set optking {
	frozen_dihedral = ("
		8 4 3 5
	")
}

ee = optimize('scf')
oeprop('DIPOLE', 'QUADRUPOLE', 'MULLIKEN_CHARGES')
f=open( 'psi4out.xyz', 'w' )
f.write( "13  " )
f.write( str(ee) + "\n" )
f.write( MOL.save_string_xyz() )
f.close()
--------------------------------------------------------------------------

    Molecular point group: c1
  Charge       = 0
  Multiplicity = 1
  Basis Set: CC-PVTZ
  Basis Set:
  @DF-RHF Final Energy:  -268.06169178056854
    Total Energy =                       -268.0616917805687649
    Molecular point group: c1
  Basis Set: CC-PVTZ
  Basis Set:
  Basis Set: CC-PVTZ
  Basis Set:
  @DF-RHF Final Energy:  -268.06330008014640
    Total Energy =                       -268.0633000801463481
  Basis Set: CC-PVTZ
  Basis Set:
  Basis Set: CC-PVTZ
  Basis Set:
  @DF-RHF Final Energy:  -268.06387606307203
    Total Energy =                       -268.0638760630719162
  Basis Set: CC-PVTZ
  Basis Set:
  Basis Set: CC-PVTZ
  Basis Set:
  @DF-RHF Final Energy:  -268.06391276707103
    Total Energy =                       -268.0639127670710309
  Basis Set: CC-PVTZ
  Basis Set:
  Basis Set: CC-PVTZ
  Basis Set:
  @DF-RHF Final Energy:  -268.06391640937755
    Total Energy =                       -268.0639164093772138
  Basis Set: CC-PVTZ
  Basis Set:
  Charge       = 0
  Multiplicity = 1
  Basis Set: CC-PVTZ
  Basis Set:

    Orbital Energies (a.u.)
    -----------------------

    Doubly Occupied:

       1A    -20.563354     2A    -20.541410     3A    -11.273311
       4A    -11.272724     5A    -11.266853     6A     -1.400556
       7A     -1.358817     8A     -1.021241     9A     -0.924764
      10A     -0.836529    11A     -0.704662    12A     -0.684069
      13A     -0.670665    14A     -0.637234    15A     -0.587250
      16A     -0.582958    17A     -0.545749    18A     -0.496440
      19A     -0.482419    20A     -0.439523    21A     -0.426921

  @DF-RHF Final Energy:  -268.06391660421878

   => Energetics <=

    Nuclear Repulsion Energy =            194.9694903938771802
    One-Electron Energy =                -752.6319147203284956
    Two-Electron Energy =                 289.5985077222325117
    DFT Exchange-Correlation Energy =       0.0000000000000000
    Empirical Dispersion Energy =           0.0000000000000000
    PCM Polarization Energy =               0.0000000000000000
    EFP Energy =                            0.0000000000000000
    Total Energy =                       -268.0639166042187753
    Molecular point group: c1
  Basis Set: CC-PVTZ
  Basis Set:

  -Total Gradient:
     Atom            X                  Y                   Z
    ------   -----------------  -----------------  -----------------
       1        0.000013675225     0.000008981897    -0.000000216922
       2        0.000003017778     0.000004543354     0.000019407231
       3       -0.002345082834    -0.003462872361    -0.003040690519
       4       -0.003011441438    -0.004342175656    -0.000649101737
       5        0.002480689046     0.003634623789     0.002639491334
       6       -0.000013975169    -0.000014777111    -0.000000817598
       7        0.000002302140    -0.000004194879     0.000005336522
       8        0.002894056188     0.004153491760     0.001003741723
       9       -0.000006327456     0.000015371291     0.000017877002
      10       -0.000013989742    -0.000002603983     0.000002055980
      11        0.000004325349    -0.000000779108     0.000001321216
      12       -0.000003148957     0.000006092357     0.000000807477
      13       -0.000004100134     0.000004298650     0.000000788293

  **** Optimization is complete! (in 6 steps) ****
    Final optimized geometry and variables:
    Molecular point group: c1

    Geometry (in Angstrom), charge = 0, multiplicity = 1:

    H           -1.766940745276    -0.163089420542    -0.192255082028
    O           -1.817405144943     0.558386107818     0.410231425616
    C           -0.636858194647     1.290354782202     0.323361970807
    C            0.600042949156     0.413508573092     0.371606348243
    H           -0.607961034239     1.916292850677    -0.565298583007
    H           -0.614476041231     1.962632752660     1.172401173070
    O            0.438139798629    -0.638757635039    -0.525032624083
    H            0.773601869709     0.052052307902     1.383314566456
    H            1.468263661431     1.013921314510     0.100387801303
    C            1.492120151241    -1.545888342173    -0.556844790168
    H            1.641582404509    -2.011784549786     0.413741455254
    H            1.248326730060    -2.311465474018    -1.278628144448
    H            2.419478913931    -1.063986737760    -0.856298053341

  Mulliken Charges: (a.u.)
   Center  Symbol    Alpha    Beta     Spin     Total
       1     H     0.38459  0.38459  0.00000  0.23082
       2     O     4.20721  4.20721  0.00000 -0.41442
       3     C     2.95929  2.95929  0.00000  0.08143
       4     C     2.97159  2.97159  0.00000  0.05681
       5     H     0.47310  0.47310  0.00000  0.05381
       6     H     0.46228  0.46228  0.00000  0.07544
       7     O     4.18399  4.18399  0.00000 -0.36799
       8     H     0.47161  0.47161  0.00000  0.05678
       9     H     0.47325  0.47325  0.00000  0.05349
      10     C     3.02989  3.02989  0.00000 -0.05979
      11     H     0.46815  0.46815  0.00000  0.06371
      12     H     0.44628  0.44628  0.00000  0.10744
      13     H     0.46876  0.46876  0.00000  0.06248

   Total alpha = 21.00000, Total beta = 21.00000, Total charge =  0.00000
