  ==> Input File <==

--------------------------------------------------------------------------
set {
	reference rhf
	basis 6-31G*
}

set_num_threads( 1 )
memory 2 gb

molecule MOL {
0 1

H	 3.643279	 -1.045227	 -0.441304
O	 2.773595	 -1.229908	 -0.100279
C	 2.025268	 -0.139181	 -0.263798
C	 0.624473	 -0.343591	 0.253101
O	 2.452802	 0.851042	 -0.761482
C	 -0.265902	 0.883932	 0.072916
H	 0.224177	 -1.216050	 -0.252814
H	 0.705537	 -0.619412	 1.301483
C	 -1.728698	 0.646073	 0.462102
H	 -0.209144	 1.219470	 -0.958188
H	 0.135059	 1.692851	 0.673903
C	 -2.482460	 -0.343073	 -0.431425
H	 -2.245265	 1.602650	 0.432430
H	 -1.779332	 0.308348	 1.496285
C	 -3.960546	 -0.461025	 -0.060175
H	 -2.395034	 -0.026811	 -1.468912
H	 -2.024850	 -1.327147	 -0.371646
H	 -4.472726	 -1.168004	 -0.705284
H	 -4.465146	 0.496508	 -0.151489
H	 -4.081218	 -0.800940	 0.964585

	symmetry c1
}
set optking {
	frozen_dihedral = ("
		16 12 9 6,
		12 9 6 10,
		5 3 4 7,
		1 2 3 5
	")
}

ee = energy('scf')
oeprop('DIPOLE', 'QUADRUPOLE', 'MULLIKEN_CHARGES')
f=open( 'psi4out.xyz', 'w' )
f.write( "20  " )
f.write( str(ee) + "\n" )
f.write( MOL.save_string_xyz() )
f.close()
--------------------------------------------------------------------------

    Molecular point group: c1

    Geometry (in Angstrom), charge = 0, multiplicity = 1:

       Center              X                  Y                   Z               Mass
    ------------   -----------------  -----------------  -----------------  -----------------
           H          3.668743535458    -1.010484932210    -0.330452711158     1.007825032070
           O          2.799059535458    -1.195165932210     0.010572288842    15.994914619560
           C          2.050732535458    -0.104438932210    -0.152946711158    12.000000000000
           C          0.649937535458    -0.308848932210     0.363952288842    12.000000000000
           O          2.478266535458     0.885784067790    -0.650630711158    15.994914619560
           C         -0.240437464542     0.918674067790     0.183767288842    12.000000000000
           H          0.249641535458    -1.181307932210    -0.141962711158     1.007825032070
           H          0.731001535458    -0.584669932210     1.412334288842     1.007825032070
           C         -1.703233464542     0.680815067790     0.572953288842    12.000000000000
           H         -0.183679464542     1.254212067790    -0.847336711158     1.007825032070
           H          0.160523535458     1.727593067790     0.784754288842     1.007825032070
           C         -2.456995464542    -0.308330932210    -0.320573711158    12.000000000000
           H         -2.219800464542     1.637392067790     0.543281288842     1.007825032070
           H         -1.753867464542     0.343090067790     1.607136288842     1.007825032070
           C         -3.935081464542    -0.426282932210     0.050676288842    12.000000000000
           H         -2.369569464542     0.007931067790    -1.358060711158     1.007825032070
           H         -1.999385464542    -1.292404932210    -0.260794711158     1.007825032070
           H         -4.447261464542    -1.133261932210    -0.594432711158     1.007825032070
           H         -4.439681464542     0.531250067790    -0.040637711158     1.007825032070
           H         -4.055753464542    -0.766197932210     1.075436288842     1.007825032070

  Charge       = 0
  Multiplicity = 1
  Basis Set: 6-31G*
  Basis Set:

    Orbital Energies (a.u.)
    -----------------------

    Doubly Occupied:

       1A    -20.612474     2A    -20.551544     3A    -11.381124
       4A    -11.240040     5A    -11.222864     6A    -11.220692
       7A    -11.220103     8A    -11.212416     9A     -1.474533
      10A     -1.365588    11A     -1.096236    12A     -1.040864
      13A     -0.961256    14A     -0.868952    15A     -0.816183
      16A     -0.776705    17A     -0.699469    18A     -0.690194
      19A     -0.663527    20A     -0.635843    21A     -0.603585
      22A     -0.593905    23A     -0.575745    24A     -0.556814
      25A     -0.537540    26A     -0.513997    27A     -0.495196
      28A     -0.479203    29A     -0.470808    30A     -0.467196
      31A     -0.457370    32A     -0.443569

  @DF-RHF Final Energy:  -383.94842058270581

   => Energetics <=

    Nuclear Repulsion Energy =            376.3613715904132278
    One-Electron Energy =               -1268.7285381898184369
    Two-Electron Energy =                 508.4187460166994583
    DFT Exchange-Correlation Energy =       0.0000000000000000
    Empirical Dispersion Energy =           0.0000000000000000
    PCM Polarization Energy =               0.0000000000000000
    EFP Energy =                            0.0000000000000000
    Total Energy =                       -383.9484205827057508

  Mulliken Charges: (a.u.)
   Center  Symbol    Alpha    Beta     Spin     Total
       1     H     0.26787  0.26787  0.00000  0.46425
       2     O     4.35157  4.35157  0.00000 -0.70314
       3     C     2.62230  2.62230  0.00000  0.75540
       4     C     3.21311  3.21311  0.00000 -0.42623
       5     O     4.27927  4.27927  0.00000 -0.55854
       6     C     3.15463  3.15463  0.00000 -0.30926
       7     H     0.39687  0.39687  0.00000  0.20626
       8     H     0.39864  0.39864  0.00000  0.20273
       9     C     3.15542  3.15542  0.00000 -0.31083
      10     H     0.40940  0.40940  0.00000  0.18121
      11     H     0.41072  0.41072  0.00000  0.17856
      12     C     3.15489  3.15489  0.00000 -0.30977
      13     H     0.41782  0.41782  0.00000  0.16436
      14     H     0.42396  0.42396  0.00000  0.15207
      15     C     3.23915  3.23915  0.00000 -0.47829
      16     H     0.42107  0.42107  0.00000  0.15786
      17     H     0.42309  0.42309  0.00000  0.15383
      18     H     0.41829  0.41829  0.00000  0.16342
      19     H     0.42062  0.42062  0.00000  0.15877
      20     H     0.42132  0.42132  0.00000  0.15736

   Total alpha = 32.00000, Total beta = 32.00000, Total charge =  0.00000
