  ==> Input File <==

--------------------------------------------------------------------------
set {
	reference rhf
	basis 6-31G*
}

set_num_threads( 4 )
memory 2 gb

molecule MOL {
0 1

H	 3.729471	 -0.928294	 -0.070608
O	 2.826016	 -1.159218	 0.122261
C	 2.077727	 -0.067559	 -0.035091
C	 0.624473	 -0.343591	 0.253101
O	 2.542965	 0.974826	 -0.363729
C	 -0.265902	 0.883932	 0.072916
H	 0.324016	 -1.163849	 -0.390541
H	 0.565024	 -0.726111	 1.268924
C	 -1.728698	 0.646073	 0.462102
H	 -0.209144	 1.219470	 -0.958188
H	 0.135059	 1.692851	 0.673903
C	 -2.482460	 -0.343073	 -0.431425
H	 -2.245265	 1.602650	 0.432430
H	 -1.779332	 0.308348	 1.496285
C	 -3.999895	 -0.215424	 -0.298864
H	 -2.195690	 -0.179321	 -1.468243
H	 -2.192587	 -1.362626	 -0.190870
H	 -4.511718	 -0.926754	 -0.939458
H	 -4.335034	 0.780134	 -0.575225
H	 -4.320846	 -0.399692	 0.722544

	symmetry c1
}
set optking {
	frozen_dihedral = ("
		16 12 9 6
	")
}

ee = optimize('scf')
oeprop('DIPOLE', 'QUADRUPOLE', 'MULLIKEN_CHARGES')
f=open( 'psi4out.xyz', 'w' )
f.write( "20  " )
f.write( str(ee) + "\n" )
f.write( MOL.save_string_xyz() )
f.close()
--------------------------------------------------------------------------

    Molecular point group: c1
  Charge       = 0
  Multiplicity = 1
  Basis Set: 6-31G*
  Basis Set:
  @DF-RHF Final Energy:  -383.94802489178505
    Total Energy =                       -383.9480248917848826
    Molecular point group: c1
  Basis Set: 6-31G*
  Basis Set:
  Basis Set: 6-31G*
  Basis Set:
  @DF-RHF Final Energy:  -383.94795023857824
    Total Energy =                       -383.9479502385779597
  Basis Set: 6-31G*
  Basis Set:
  Basis Set: 6-31G*
  Basis Set:
  @DF-RHF Final Energy:  -383.94812564263890
    Total Energy =                       -383.9481256426387290
  Basis Set: 6-31G*
  Basis Set:
  Basis Set: 6-31G*
  Basis Set:
  @DF-RHF Final Energy:  -383.94811322261995
    Total Energy =                       -383.9481132226197815
  Basis Set: 6-31G*
  Basis Set:
  Basis Set: 6-31G*
  Basis Set:
  @DF-RHF Final Energy:  -383.94808763179469
    Total Energy =                       -383.9480876317950333
  Basis Set: 6-31G*
  Basis Set:
  Basis Set: 6-31G*
  Basis Set:
  @DF-RHF Final Energy:  -383.94815062437243
    Total Energy =                       -383.9481506243726585
  Basis Set: 6-31G*
  Basis Set:
  Charge       = 0
  Multiplicity = 1
  Basis Set: 6-31G*
  Basis Set:

    Orbital Energies (a.u.)
    -----------------------

    Doubly Occupied:

       1A    -20.612461     2A    -20.551550     3A    -11.381074
       4A    -11.240083     5A    -11.222953     6A    -11.220717
       7A    -11.220058     8A    -11.212619     9A     -1.474515
      10A     -1.365566    11A     -1.096231    12A     -1.040518
      13A     -0.961355    14A     -0.868910    15A     -0.816974
      16A     -0.776195    17A     -0.699491    18A     -0.689503
      19A     -0.664679    20A     -0.635277    21A     -0.600506
      22A     -0.595474    23A     -0.574589    24A     -0.558943
      25A     -0.537766    26A     -0.513884    27A     -0.495672
      28A     -0.479071    29A     -0.471177    30A     -0.466106
      31A     -0.457395    32A     -0.443486

  @DF-RHF Final Energy:  -383.94815111162671

   => Energetics <=

    Nuclear Repulsion Energy =            376.0514787069601539
    One-Electron Energy =               -1268.1096693332367522
    Two-Electron Energy =                 508.1100395146494861
    DFT Exchange-Correlation Energy =       0.0000000000000000
    Empirical Dispersion Energy =           0.0000000000000000
    PCM Polarization Energy =               0.0000000000000000
    EFP Energy =                            0.0000000000000000
    Total Energy =                       -383.9481511116271690
    Molecular point group: c1
  Basis Set: 6-31G*
  Basis Set:

  -Total Gradient:
     Atom            X                  Y                   Z
    ------   -----------------  -----------------  -----------------
       1        0.000000662725     0.000000340370     0.000000437942
       2       -0.000006574381    -0.000001757395    -0.000011051370
       3        0.000004710327     0.000016659688     0.000020887335
       4       -0.000017117451    -0.000004782634    -0.000013786645
       5        0.000000344692    -0.000005585966    -0.000004958583
       6       -0.000515241884     0.001409239219    -0.001118664734
       7       -0.000006778543    -0.000005407742     0.000005095993
       8        0.000004979149     0.000001814458     0.000005116936
       9        0.001183125067    -0.002386945788     0.001693558499
      10        0.000002891711    -0.000000420725    -0.000009131905
      11       -0.000001676441    -0.000002101297    -0.000002780033
      12       -0.002547155443     0.002641473806    -0.000869066467
      13        0.000019390381    -0.000000546182    -0.000005596041
      14       -0.000002160616     0.000007846837     0.000010466564
      15       -0.000005943253    -0.000005486452    -0.000000906294
      16        0.001881427923    -0.001672139253     0.000296884316
      17        0.000010103305     0.000007912128    -0.000000541461
      18       -0.000003124886     0.000001785810    -0.000003076063
      19        0.000001810757     0.000001842952     0.000004982179
      20       -0.000003673143    -0.000003741834     0.000002129831

  **** Optimization is complete! (in 7 steps) ****
    Final optimized geometry and variables:
    Molecular point group: c1

    Geometry (in Angstrom), charge = 0, multiplicity = 1:

    H            3.714157365997    -0.990172752463    -0.065259111329
    O            2.808842509259    -1.211213960507     0.130436557190
    C            2.074328098283    -0.107980141611    -0.009889770059
    C            0.619130335212    -0.367312390061     0.283287428322
    O            2.551501813011     0.931905484777    -0.329323022426
    C           -0.255703289536     0.874501313415     0.127083191465
    H            0.301035495024    -1.172517954573    -0.371403171181
    H            0.559702617751    -0.765136365987     1.293209123309
    C           -1.722553932403     0.639262937449     0.499835401413
    H           -0.192162204877     1.230975133806    -0.896317755826
    H            0.149469769207     1.666217574890     0.747939902729
    C           -2.459985842808    -0.363158556058    -0.396680735602
    H           -2.232904942402     1.598204736633     0.443542150873
    H           -1.795798072566     0.320760910126     1.538203640632
    C           -3.979441655388    -0.267223617997    -0.271845780622
    H           -2.161032927230    -0.213314987057    -1.432277633390
    H           -2.150193179910    -1.375238795682    -0.146198183766
    H           -4.473104428943    -1.009370484564    -0.891345039046
    H           -4.336449721052     0.711802629088    -0.577838563353
    H           -4.297892329728    -0.428433746766     0.754336507710

  Mulliken Charges: (a.u.)
   Center  Symbol    Alpha    Beta     Spin     Total
       1     H     0.26787  0.26787  0.00000  0.46425
       2     O     4.35157  4.35157  0.00000 -0.70314
       3     C     2.62229  2.62229  0.00000  0.75542
       4     C     3.21292  3.21292  0.00000 -0.42583
       5     O     4.27934  4.27934  0.00000 -0.55868
       6     C     3.15469  3.15469  0.00000 -0.30939
       7     H     0.39647  0.39647  0.00000  0.20707
       8     H     0.39914  0.39914  0.00000  0.20173
       9     C     3.15586  3.15586  0.00000 -0.31173
      10     H     0.41187  0.41187  0.00000  0.17626
      11     H     0.40847  0.40847  0.00000  0.18306
      12     C     3.15584  3.15584  0.00000 -0.31169
      13     H     0.41802  0.41802  0.00000  0.16396
      14     H     0.42244  0.42244  0.00000  0.15511
      15     C     3.23915  3.23915  0.00000 -0.47830
      16     H     0.42167  0.42167  0.00000  0.15667
      17     H     0.42247  0.42247  0.00000  0.15507
      18     H     0.41851  0.41851  0.00000  0.16298
      19     H     0.42038  0.42038  0.00000  0.15924
      20     H     0.42103  0.42103  0.00000  0.15793

   Total alpha = 32.00000, Total beta = 32.00000, Total charge =  0.00000
