  ==> Input File <==

--------------------------------------------------------------------------
set {
	reference rhf
	basis 6-31G*
}

set_num_threads( 1 )
memory 2 gb

molecule MOL {
0 1

O	 -1.481115	 -0.515530	 2.214801
C	 -1.958075	 -0.837420	 1.173882
C	 -3.169547	 -1.724371	 1.043795
O	 -1.481751	 -0.454642	 0.000584
H	 -3.996976	 -1.262402	 1.568969
H	 -3.437507	 -1.891591	 0.010996
H	 -2.961408	 -2.670862	 1.528265
C	 -0.334255	 0.388708	 0.000906
C	 0.891947	 -0.504646	 0.000751
H	 -0.365390	 1.025305	 -0.873475
H	 -0.365484	 1.024911	 0.875569
C	 2.191998	 0.301789	 0.000897
H	 0.855148	 -1.151283	 -0.871571
H	 0.855132	 -1.151660	 0.872805
C	 3.441114	 -0.581407	 0.000108
H	 2.215074	 0.954890	 -0.869742
H	 2.215465	 0.953923	 0.872248
C	 4.739576	 0.224112	 -0.001102
H	 3.419457	 -1.233487	 -0.870178
H	 3.420834	 -1.233096	 0.870717
H	 4.804918	 0.861552	 -0.878265
H	 5.606527	 -0.429058	 -0.001824
H	 4.806469	 0.861674	 0.875853

	symmetry c1
}
set optking {
	frozen_dihedral = ("
		13 9 8 10,
		16 12 9 13,
		19 15 12 16,
		1 2 4 8
	")
}

ee = energy('scf')
oeprop('DIPOLE', 'QUADRUPOLE', 'MULLIKEN_CHARGES')
f=open( 'psi4out.xyz', 'w' )
f.write( "23  " )
f.write( str(ee) + "\n" )
f.write( MOL.save_string_xyz() )
f.close()
--------------------------------------------------------------------------

    Molecular point group: c1

    Geometry (in Angstrom), charge = 0, multiplicity = 1:

       Center              X                  Y                   Z               Mass
    ------------   -----------------  -----------------  -----------------  -----------------
           O         -1.784330567742    -0.102771558176     1.713642241194    15.994914619560
           C         -2.261290567742    -0.424661558176     0.672723241194    12.000000000000
           C         -3.472762567742    -1.311612558176     0.542636241194    12.000000000000
           O         -1.784966567742    -0.041883558176    -0.500574758806    15.994914619560
           H         -4.300191567742    -0.849643558176     1.067810241194     1.007825032070
           H         -3.740722567742    -1.478832558176    -0.490162758806     1.007825032070
           H         -3.264623567742    -2.258103558176     1.027106241194     1.007825032070
           C         -0.637470567742     0.801466441824    -0.500252758806    12.000000000000
           C          0.588731432258    -0.091887558176    -0.500407758806    12.000000000000
           H         -0.668605567742     1.438063441824    -1.374633758806     1.007825032070
           H         -0.668699567742     1.437669441824     0.374410241194     1.007825032070
           C          1.888782432258     0.714547441824    -0.500261758806    12.000000000000
           H          0.551932432258    -0.738524558176    -1.372729758806     1.007825032070
           H          0.551916432258    -0.738901558176     0.371646241194     1.007825032070
           C          3.137898432258    -0.168648558176    -0.501050758806    12.000000000000
           H          1.911858432258     1.367648441824    -1.370900758806     1.007825032070
           H          1.912249432258     1.366681441824     0.371089241194     1.007825032070
           C          4.436360432258     0.636870441824    -0.502260758806    12.000000000000
           H          3.116241432258    -0.820728558176    -1.371336758806     1.007825032070
           H          3.117618432258    -0.820337558176     0.369558241194     1.007825032070
           H          4.501702432258     1.274310441824    -1.379423758806     1.007825032070
           H          5.303311432258    -0.016299558176    -0.502982758806     1.007825032070
           H          4.503253432258     1.274432441824     0.374694241194     1.007825032070

  Charge       = 0
  Multiplicity = 1
  Basis Set: 6-31G*
  Basis Set:

    Orbital Energies (a.u.)
    -----------------------

    Doubly Occupied:

       1A    -20.602966     2A    -20.541032     3A    -11.375986
       4A    -11.280313     5A    -11.233251     6A    -11.220038
       7A    -11.218719     8A    -11.218348     9A    -11.210372
      10A     -1.469243    11A     -1.361708    12A     -1.090326
      13A     -1.040728    14A     -1.001823    15A     -0.930040
      16A     -0.848122    17A     -0.798294    18A     -0.768336
      19A     -0.700904    20A     -0.680406    21A     -0.655768
      22A     -0.647832    23A     -0.602553    24A     -0.589229
      25A     -0.584442    26A     -0.572415    27A     -0.550247
      28A     -0.537943    29A     -0.520985    30A     -0.513321
      31A     -0.483951    32A     -0.477205    33A     -0.473373
      34A     -0.467156    35A     -0.438428    36A     -0.434598

  @DF-RHF Final Energy:  -422.97736764697805

   => Energetics <=

    Nuclear Repulsion Energy =            458.3504393172104869
    One-Electron Energy =               -1484.3749361300745022
    Two-Electron Energy =                 603.0471291658869859
    DFT Exchange-Correlation Energy =       0.0000000000000000
    Empirical Dispersion Energy =           0.0000000000000000
    PCM Polarization Energy =               0.0000000000000000
    EFP Energy =                            0.0000000000000000
    Total Energy =                       -422.9773676469770862

  Mulliken Charges: (a.u.)
   Center  Symbol    Alpha    Beta     Spin     Total
       1     O     4.28547  4.28547  0.00000 -0.57094
       2     C     2.61517  2.61517  0.00000  0.76967
       3     C     3.28804  3.28804  0.00000 -0.57607
       4     O     4.31076  4.31076  0.00000 -0.62152
       5     H     0.39714  0.39714  0.00000  0.20572
       6     H     0.39928  0.39928  0.00000  0.20144
       7     H     0.39764  0.39764  0.00000  0.20472
       8     C     3.00783  3.00783  0.00000 -0.01567
       9     C     3.16656  3.16656  0.00000 -0.33312
      10     H     0.40975  0.40975  0.00000  0.18051
      11     H     0.39965  0.39965  0.00000  0.20069
      12     C     3.16121  3.16121  0.00000 -0.32241
      13     H     0.41647  0.41647  0.00000  0.16706
      14     H     0.40749  0.40749  0.00000  0.18502
      15     C     3.15142  3.15142  0.00000 -0.30284
      16     H     0.42396  0.42396  0.00000  0.15209
      17     H     0.41879  0.41879  0.00000  0.16243
      18     C     3.23977  3.23977  0.00000 -0.47954
      19     H     0.42247  0.42247  0.00000  0.15507
      20     H     0.42017  0.42017  0.00000  0.15966
      21     H     0.42190  0.42190  0.00000  0.15619
      22     H     0.41846  0.41846  0.00000  0.16307
      23     H     0.42061  0.42061  0.00000  0.15878

   Total alpha = 36.00000, Total beta = 36.00000, Total charge = -0.00000
