  ==> Input File <==

--------------------------------------------------------------------------
set {
	reference rhf
	basis 6-31G*
}

set_num_threads( 4 )
memory 2 gb

molecule MOL {
0 1

H	 2.274369	 -1.100584	 -0.745087
N	 2.434251	 -0.367735	 -0.081097
C	 1.267428	 0.496480	 0.024474
H	 3.227135	 0.151213	 -0.408119
C	 -0.016086	 -0.325158	 -0.029487
H	 1.288818	 1.183521	 -0.816092
H	 1.267576	 1.109062	 0.929528
C	 -1.282277	 0.529072	 0.046735
H	 -0.012495	 -0.908639	 -0.945788
H	 -0.015903	 -1.041248	 0.791956
C	 -2.563920	 -0.301775	 -0.006060
H	 -1.284084	 1.244622	 -0.773004
H	 -1.271387	 1.115393	 0.963286
H	 -2.621848	 -0.873522	 -0.927727
H	 -3.445135	 0.329952	 0.047812
H	 -2.609542	 -1.004582	 0.821105

	symmetry c1
}
set optking {
	frozen_dihedral = ("
		1 2 3 6
	")
}

ee = optimize('scf')
oeprop('DIPOLE', 'QUADRUPOLE', 'MULLIKEN_CHARGES')
f=open( 'psi4out.xyz', 'w' )
f.write( "16  " )
f.write( str(ee) + "\n" )
f.write( MOL.save_string_xyz() )
f.close()
--------------------------------------------------------------------------

    Molecular point group: c1
  Charge       = 0
  Multiplicity = 1
  Basis Set: 6-31G*
  Basis Set:
  @DF-RHF Final Energy:  -212.31352633617314
    Total Energy =                       -212.3135263361731404
    Molecular point group: c1
  Basis Set: 6-31G*
  Basis Set:
  Basis Set: 6-31G*
  Basis Set:
  @DF-RHF Final Energy:  -212.31557545046459
    Total Energy =                       -212.3155754504647348
  Basis Set: 6-31G*
  Basis Set:
  Basis Set: 6-31G*
  Basis Set:
  @DF-RHF Final Energy:  -212.31583144913870
    Total Energy =                       -212.3158314491387273
  Basis Set: 6-31G*
  Basis Set:
  Basis Set: 6-31G*
  Basis Set:
  @DF-RHF Final Energy:  -212.31583642475576
    Total Energy =                       -212.3158364247557301
  Basis Set: 6-31G*
  Basis Set:
  Charge       = 0
  Multiplicity = 1
  Basis Set: 6-31G*
  Basis Set:

    Orbital Energies (a.u.)
    -----------------------

    Doubly Occupied:

       1A    -15.530316     2A    -11.239288     3A    -11.216936
       4A    -11.213570     5A    -11.209373     6A     -1.175196
       7A     -1.061137     8A     -0.959568     9A     -0.844940
      10A     -0.795496    11A     -0.655600    12A     -0.647064
      13A     -0.601829    14A     -0.575547    15A     -0.571288
      16A     -0.522758    17A     -0.505855    18A     -0.471825
      19A     -0.467051    20A     -0.461596    21A     -0.377458

  @DF-RHF Final Energy:  -212.31583688198344

   => Energetics <=

    Nuclear Repulsion Energy =            186.3725713741104641
    One-Electron Energy =                -655.1694373847514044
    Two-Electron Energy =                 256.4810291286577240
    DFT Exchange-Correlation Energy =       0.0000000000000000
    Empirical Dispersion Energy =           0.0000000000000000
    PCM Polarization Energy =               0.0000000000000000
    EFP Energy =                            0.0000000000000000
    Total Energy =                       -212.3158368819832162
    Molecular point group: c1
  Basis Set: 6-31G*
  Basis Set:

  -Total Gradient:
     Atom            X                  Y                   Z
    ------   -----------------  -----------------  -----------------
       1       -0.001290380767    -0.001732620138     0.002182286403
       2        0.002035542309     0.002726991442    -0.002229570933
       3       -0.002192737743    -0.002898602926    -0.001645174626
       4       -0.000009388194    -0.000008899313    -0.000005138674
       5        0.000077932606     0.000044104306    -0.000008641404
       6        0.001400455722     0.001858345061     0.001639504117
       7       -0.000010735270    -0.000017021602     0.000030805964
       8       -0.000025698250    -0.000003472694     0.000022584099
       9        0.000022559820     0.000014013105     0.000021838629
      10        0.000008769190     0.000028259482     0.000002743599
      11       -0.000022450808     0.000010808750    -0.000017015732
      12        0.000011118806    -0.000007005365     0.000005859083
      13        0.000004735780    -0.000011441792     0.000001984092
      14        0.000001495906    -0.000006924791     0.000002458267
      15       -0.000010682077    -0.000004424201    -0.000008651924
      16       -0.000000537032     0.000007890676     0.000004129041

  **** Optimization is complete! (in 5 steps) ****
    Final optimized geometry and variables:
    Molecular point group: c1

    Geometry (in Angstrom), charge = 0, multiplicity = 1:

    H            2.332290023635    -1.103963352120    -0.689772834432
    N            2.439466122893    -0.366094062028    -0.021410308074
    C            1.268468918096     0.498594509091    -0.004020339025
    H            3.270652945542     0.140546568725    -0.252493778159
    C           -0.014990385633    -0.322552904516    -0.029739149251
    H            1.262734357307     1.225248699308    -0.819723562290
    H            1.298413881508     1.080275588002     0.913475981072
    C           -1.279311715289     0.531526314110     0.073741926786
    H           -0.049557307681    -0.904429365332    -0.950613688658
    H            0.017075589345    -1.037877190131     0.788036976648
    C           -2.561738072931    -0.299128065344     0.040477807309
    H           -1.296891124476     1.253563859398    -0.739863402835
    H           -1.248600196658     1.109217057456     0.994818416849
    H           -2.639107832203    -0.864295661591    -0.884089477680
    H           -3.441306941899     0.332590664041     0.116269544389
    H           -2.590732524489    -1.007461100103     0.863411782012

  Mulliken Charges: (a.u.)
   Center  Symbol    Alpha    Beta     Spin     Total
       1     H     0.33453  0.33453  0.00000  0.33093
       2     N     3.92679  3.92679  0.00000 -0.85358
       3     C     3.05163  3.05163  0.00000 -0.10326
       4     H     0.33201  0.33201  0.00000  0.33598
       5     C     3.15907  3.15907  0.00000 -0.31815
       6     H     0.43479  0.43479  0.00000  0.13042
       7     H     0.42087  0.42087  0.00000  0.15827
       8     C     3.15476  3.15476  0.00000 -0.30952
       9     H     0.42764  0.42764  0.00000  0.14472
      10     H     0.41327  0.41327  0.00000  0.17345
      11     C     3.23910  3.23910  0.00000 -0.47820
      12     H     0.42297  0.42297  0.00000  0.15407
      13     H     0.42114  0.42114  0.00000  0.15772
      14     H     0.42193  0.42193  0.00000  0.15615
      15     H     0.41905  0.41905  0.00000  0.16189
      16     H     0.42045  0.42045  0.00000  0.15910

   Total alpha = 21.00000, Total beta = 21.00000, Total charge =  0.00000
