  ==> Input File <==

--------------------------------------------------------------------------
set {
	reference rhf
	basis 6-31G*
}

set_num_threads( 4 )
memory 2 gb

molecule MOL {
0 1

H	 -3.650283	 0.221984	 0.000000
C	 -2.577024	 0.154109	 0.000000
C	 -1.960329	 -1.089307	 0.000000
C	 -1.811733	 1.307557	 0.000000
H	 -2.554473	 -1.985285	 0.000000
C	 -0.581547	 -1.175855	 0.000000
H	 -2.287118	 2.271701	 0.000000
C	 -0.428719	 1.219221	 0.000000
H	 -0.090826	 -2.129898	 0.000000
C	 0.198341	 -0.021559	 0.000000
H	 0.149947	 2.124040	 0.000000
C	 1.691355	 -0.173192	 0.000000
C	 2.447288	 -0.018995	 -1.303200
O	 2.277754	 -0.412469	 1.014030
H	 2.115540	 -0.750936	 -2.032574
H	 3.500512	 -0.160585	 -1.107849
H	 2.290035	 0.967181	 -1.728065

	symmetry c1
}
set optking {
	frozen_dihedral = ("
		13 12 10 8
	")
}

ee = optimize('scf')
oeprop('DIPOLE', 'QUADRUPOLE', 'MULLIKEN_CHARGES')
f=open( 'psi4out.xyz', 'w' )
f.write( "17  " )
f.write( str(ee) + "\n" )
f.write( MOL.save_string_xyz() )
f.close()
--------------------------------------------------------------------------

    Molecular point group: c1
  Charge       = 0
  Multiplicity = 1
  Basis Set: 6-31G*
  Basis Set:
  @DF-RHF Final Energy:  -382.46555838368272
    Total Energy =                       -382.4655583836822643
    Molecular point group: c1
  Basis Set: 6-31G*
  Basis Set:
  Basis Set: 6-31G*
  Basis Set:
  @DF-RHF Final Energy:  -382.46517929792657
    Total Energy =                       -382.4651792979267384
  Basis Set: 6-31G*
  Basis Set:
  Basis Set: 6-31G*
  Basis Set:
  @DF-RHF Final Energy:  -382.46610129532661
    Total Energy =                       -382.4661012953265526
  Basis Set: 6-31G*
  Basis Set:
  Basis Set: 6-31G*
  Basis Set:
  @DF-RHF Final Energy:  -382.46644007955234
    Total Energy =                       -382.4664400795525125
  Basis Set: 6-31G*
  Basis Set:
  Basis Set: 6-31G*
  Basis Set:
  @DF-RHF Final Energy:  -382.46644639186718
    Total Energy =                       -382.4664463918675210
  Basis Set: 6-31G*
  Basis Set:
  Basis Set: 6-31G*
  Basis Set:
  @DF-RHF Final Energy:  -382.46644879779484
    Total Energy =                       -382.4664487977947829
  Basis Set: 6-31G*
  Basis Set:
  Charge       = 0
  Multiplicity = 1
  Basis Set: 6-31G*
  Basis Set:

    Orbital Energies (a.u.)
    -----------------------

    Doubly Occupied:

       1A    -20.557901     2A    -11.334332     3A    -11.247412
       4A    -11.244061     5A    -11.242690     6A    -11.241126
       7A    -11.240429     8A    -11.239023     9A    -11.231504
      10A     -1.402764    11A     -1.165580    12A     -1.050228
      13A     -1.025514    14A     -0.998696    15A     -0.858757
      16A     -0.837366    17A     -0.761613    18A     -0.702272
      19A     -0.663298    20A     -0.642409    21A     -0.627397
      22A     -0.620103    23A     -0.598843    24A     -0.589996
      25A     -0.562220    26A     -0.522041    27A     -0.511885
      28A     -0.505811    29A     -0.491899    30A     -0.409619
      31A     -0.343546    32A     -0.341198

  @DF-RHF Final Energy:  -382.46644906985631

   => Energetics <=

    Nuclear Repulsion Energy =            402.5470950633811640
    One-Electron Energy =               -1316.4040195137081355
    Two-Electron Energy =                 531.3904753804704342
    DFT Exchange-Correlation Energy =       0.0000000000000000
    Empirical Dispersion Energy =           0.0000000000000000
    PCM Polarization Energy =               0.0000000000000000
    EFP Energy =                            0.0000000000000000
    Total Energy =                       -382.4664490698564805
    Molecular point group: c1
  Basis Set: 6-31G*
  Basis Set:

  -Total Gradient:
     Atom            X                  Y                   Z
    ------   -----------------  -----------------  -----------------
       1       -0.000001228961    -0.000001970715    -0.000001778826
       2       -0.000000344677    -0.000011332119    -0.000019245575
       3       -0.000007760469     0.000005961695     0.000010619251
       4        0.000017724682     0.000018770811     0.000030297444
       5       -0.000000449817     0.000001533233     0.000004276002
       6       -0.000012967686     0.000014908150    -0.000020019575
       7       -0.000000142220    -0.000000422730    -0.000000281045
       8       -0.000081977260    -0.000006773907     0.002401770752
       9        0.000010192115    -0.000001357944     0.000000781280
      10        0.000027147933    -0.000981673031    -0.003760918027
      11       -0.000006081985     0.000004010862     0.000007677838
      12        0.000223058621     0.003074931106     0.001791458507
      13       -0.000201014587    -0.002135924426    -0.000423172827
      14        0.000000568628     0.000007436276    -0.000021656380
      15        0.000010802418     0.000007957313     0.000000757342
      16        0.000016337594     0.000001849036    -0.000009974187
      17        0.000006135665     0.000002096393     0.000009408024

  **** Optimization is complete! (in 7 steps) ****
    Final optimized geometry and variables:
    Molecular point group: c1

    Geometry (in Angstrom), charge = 0, multiplicity = 1:

    H           -3.642101477147     0.279820033494     0.030794976827
    C           -2.569961987443     0.198954986376     0.028210587105
    C           -1.967562294796    -1.048973794155     0.036554908249
    C           -1.787537160635     1.342065917485     0.022858187244
    H           -2.571010869568    -1.938792310243     0.048690076595
    C           -0.586685310028    -1.154216358101     0.040439591076
    H           -2.250195198635     2.312628579574     0.027355768024
    C           -0.406081848479     1.237930384218     0.014646714278
    H           -0.121703490451    -2.123788538570     0.067426006079
    C            0.200095942771    -0.010702532592     0.017533150039
    H            0.195880725894     2.130137934376     0.013347952962
    C            1.703425507436    -0.136506039437     0.056328992600
    C            2.435405406644     0.054615981348    -1.252293893870
    O            2.271361676944    -0.422375168850     1.064099580989
    H            2.111362465480    -0.703639797587    -1.959324719508
    H            3.502301779653    -0.024942577989    -1.094071539882
    H            2.196580702804     1.018972024348    -1.690089470100

  Mulliken Charges: (a.u.)
   Center  Symbol    Alpha    Beta     Spin     Total
       1     H     0.39676  0.39676  0.00000  0.20647
       2     C     3.09919  3.09919  0.00000 -0.19838
       3     C     3.09823  3.09823  0.00000 -0.19647
       4     C     3.09798  3.09798  0.00000 -0.19596
       5     H     0.39607  0.39607  0.00000  0.20787
       6     C     3.10190  3.10190  0.00000 -0.20380
       7     H     0.39632  0.39632  0.00000  0.20735
       8     C     3.10422  3.10422  0.00000 -0.20843
       9     H     0.39174  0.39174  0.00000  0.21653
      10     C     3.02843  3.02843  0.00000 -0.05686
      11     H     0.39523  0.39523  0.00000  0.20954
      12     C     2.75299  2.75299  0.00000  0.49402
      13     C     3.28674  3.28674  0.00000 -0.57348
      14     O     4.24627  4.24627  0.00000 -0.49254
      15     H     0.40373  0.40373  0.00000  0.19254
      16     H     0.39752  0.39752  0.00000  0.20495
      17     H     0.40668  0.40668  0.00000  0.18664

   Total alpha = 32.00000, Total beta = 32.00000, Total charge = -0.00000
