  ==> Input File <==

--------------------------------------------------------------------------
set {
	reference rhf
	basis cc-pvtz
}

set_num_threads( 4 )
memory 2 gb

molecule MOL {
0 1

H	 2.084253	 -0.462233	 -0.964951
O	 2.063695	 -0.083403	 -0.105237
C	 0.742924	 0.005675	 0.350750
H	 0.731380	 0.039219	 1.440080
C	 -0.064076	 -1.193495	 -0.124425
C	 -0.047832	 1.190568	 -0.194462
H	 0.194729	 -1.376165	 -1.161308
H	 0.163013	 -2.094508	 0.429933
C	 -1.533112	 -0.752002	 0.006102
H	 0.148003	 1.266545	 -1.259275
H	 0.226235	 2.136493	 0.259722
C	 -1.506634	 0.799189	 0.067162
H	 -2.124360	 -1.110499	 -0.826089
H	 -1.983103	 -1.158030	 0.903403
H	 -2.183808	 1.252169	 -0.644677
H	 -1.813926	 1.138698	 1.049457

	symmetry c1
}
set optking {
	frozen_dihedral = ("
		1 2 3 6
	")
}

ee = optimize('scf')
oeprop('DIPOLE', 'QUADRUPOLE', 'MULLIKEN_CHARGES')
f=open( 'psi4out.xyz', 'w' )
f.write( "16  " )
f.write( str(ee) + "\n" )
f.write( MOL.save_string_xyz() )
f.close()
--------------------------------------------------------------------------

    Molecular point group: c1
  Charge       = 0
  Multiplicity = 1
  Basis Set: CC-PVTZ
  Basis Set:
  @DF-RHF Final Energy:  -270.11408650086236
    Total Energy =                       -270.1140865008622427
    Molecular point group: c1
  Basis Set: CC-PVTZ
  Basis Set:
  Basis Set: CC-PVTZ
  Basis Set:
  @DF-RHF Final Energy:  -270.11586588684094
    Total Energy =                       -270.1158658868407656
  Basis Set: CC-PVTZ
  Basis Set:
  Basis Set: CC-PVTZ
  Basis Set:
  @DF-RHF Final Energy:  -270.11610274162547
    Total Energy =                       -270.1161027416254683
  Basis Set: CC-PVTZ
  Basis Set:
  Basis Set: CC-PVTZ
  Basis Set:
  @DF-RHF Final Energy:  -270.11610771183854
    Total Energy =                       -270.1161077118381399
  Basis Set: CC-PVTZ
  Basis Set:
  Charge       = 0
  Multiplicity = 1
  Basis Set: CC-PVTZ
  Basis Set:

    Orbital Energies (a.u.)
    -----------------------

    Doubly Occupied:

       1A    -20.545038     2A    -11.267524     3A    -11.217773
       4A    -11.215914     5A    -11.215634     6A    -11.209415
       7A     -1.365760     8A     -1.116730     9A     -0.969814
      10A     -0.949880    11A     -0.804817    12A     -0.783880
      13A     -0.683401    14A     -0.663927    15A     -0.609395
      16A     -0.590864    17A     -0.579361    18A     -0.547020
      19A     -0.506143    20A     -0.484809    21A     -0.473792
      22A     -0.459519    23A     -0.454917    24A     -0.415528

  @DF-RHF Final Energy:  -270.11610808217551

   => Energetics <=

    Nuclear Repulsion Energy =            255.4689344438586431
    One-Electron Energy =                -872.9083783355697506
    Two-Electron Energy =                 347.3233358095355356
    DFT Exchange-Correlation Energy =       0.0000000000000000
    Empirical Dispersion Energy =           0.0000000000000000
    PCM Polarization Energy =               0.0000000000000000
    EFP Energy =                            0.0000000000000000
    Total Energy =                       -270.1161080821755718
    Molecular point group: c1
  Basis Set: CC-PVTZ
  Basis Set:

  -Total Gradient:
     Atom            X                  Y                   Z
    ------   -----------------  -----------------  -----------------
       1        0.000080618093    -0.001331344332     0.000527364329
       2       -0.000038215544     0.001860755520    -0.000282527126
       3       -0.000294082387    -0.000981788673    -0.000963295472
       4        0.000009780348    -0.000000689005     0.000009119549
       5        0.000023164812     0.000026868339    -0.000038151698
       6        0.000246203744     0.000451779038     0.000708864940
       7       -0.000003203303    -0.000007298214     0.000005711104
       8        0.000005893727     0.000018317204     0.000002527934
       9       -0.000018699473     0.000009588810    -0.000002572958
      10        0.000014912100     0.000000442557    -0.000003391609
      11        0.000009056254    -0.000009339632    -0.000000013016
      12       -0.000007589335    -0.000019716798     0.000030409435
      13       -0.000014072708    -0.000002748357    -0.000003064920
      14       -0.000005928842    -0.000000087871    -0.000003348876
      15        0.000004711377    -0.000010135421     0.000006305555
      16       -0.000012548862    -0.000004603165     0.000006062831

  **** Optimization is complete! (in 5 steps) ****
    Final optimized geometry and variables:
    Molecular point group: c1

    Geometry (in Angstrom), charge = 0, multiplicity = 1:

    H            2.182636408707    -0.363201794369    -0.910232683561
    O            2.095197115272    -0.030976474452    -0.035036134538
    C            0.746378947834    -0.000828919528     0.333540568090
    H            0.745329064143     0.039134041329     1.417765678162
    C           -0.080227031840    -1.198363643437    -0.126599208498
    C           -0.040668897808     1.190121345200    -0.202655904096
    H            0.146772634363    -1.394963635399    -1.172398444638
    H            0.145878982838    -2.101072033977     0.425726931367
    C           -1.542422478993    -0.740868832714     0.022639013686
    H            0.135739658080     1.272348215024    -1.272418821488
    H            0.257241565251     2.127414141771     0.248723135183
    C           -1.498677642014     0.811043660008     0.078049225755
    H           -2.150485264803    -1.096507115920    -0.798646973802
    H           -1.980820551239    -1.140503153878     0.928198158531
    H           -2.183891052878     1.266319837691    -0.624476448562
    H           -1.788361102220     1.155100415735     1.063904547104

  Mulliken Charges: (a.u.)
   Center  Symbol    Alpha    Beta     Spin     Total
       1     H     0.39433  0.39433  0.00000  0.21135
       2     O     4.20723  4.20723  0.00000 -0.41446
       3     C     2.93171  2.93171  0.00000  0.13658
       4     H     0.44609  0.44609  0.00000  0.10783
       5     C     3.11023  3.11023  0.00000 -0.22045
       6     C     3.09557  3.09557  0.00000 -0.19113
       7     H     0.46083  0.46083  0.00000  0.07834
       8     H     0.44125  0.44125  0.00000  0.11749
       9     C     3.10976  3.10976  0.00000 -0.21952
      10     H     0.46118  0.46118  0.00000  0.07764
      11     H     0.44399  0.44399  0.00000  0.11202
      12     C     3.11377  3.11377  0.00000 -0.22754
      13     H     0.44523  0.44523  0.00000  0.10953
      14     H     0.44642  0.44642  0.00000  0.10716
      15     H     0.44351  0.44351  0.00000  0.11297
      16     H     0.44890  0.44890  0.00000  0.10220

   Total alpha = 24.00000, Total beta = 24.00000, Total charge = -0.00000
