  ==> Input File <==

--------------------------------------------------------------------------
set {
	reference rhf
	basis 6-31G*
}

set_num_threads( 4 )
memory 2 gb

molecule MOL {
0 1

H	 -3.301617	 0.570527	 0.000000
C	 -2.250981	 0.344174	 0.000000
C	 -1.813665	 -0.976045	 0.000000
C	 -1.315303	 1.358057	 0.000000
H	 -2.528860	 -1.779366	 0.000000
C	 -0.467298	 -1.270142	 0.000000
H	 -1.635074	 2.385107	 0.000000
C	 0.047081	 1.078114	 0.000000
H	 -0.115948	 -2.285222	 0.000000
C	 0.472063	 -0.241155	 0.000000
H	 0.749976	 1.888426	 0.000000
O	 1.765256	 -0.628444	 0.000000
C	 2.311091	 -1.225268	 1.140586
H	 2.276838	 -0.556202	 1.994113
H	 3.341542	 -1.443767	 0.903435
H	 1.799674	 -2.149496	 1.388754

	symmetry c1
}
set optking {
	frozen_dihedral = ("
		13 12 10 8
	")
}

ee = optimize('scf')
oeprop('DIPOLE', 'QUADRUPOLE', 'MULLIKEN_CHARGES')
f=open( 'psi4out.xyz', 'w' )
f.write( "16  " )
f.write( str(ee) + "\n" )
f.write( MOL.save_string_xyz() )
f.close()
--------------------------------------------------------------------------

    Molecular point group: c1
  Charge       = 0
  Multiplicity = 1
  Basis Set: 6-31G*
  Basis Set:
  @DF-RHF Final Energy:  -344.57715782683448
    Total Energy =                       -344.5771578268343092
    Molecular point group: c1
  Basis Set: 6-31G*
  Basis Set:
  Basis Set: 6-31G*
  Basis Set:
  @DF-RHF Final Energy:  -344.58008698919036
    Total Energy =                       -344.5800869891903631
  Basis Set: 6-31G*
  Basis Set:
  Basis Set: 6-31G*
  Basis Set:
  @DF-RHF Final Energy:  -344.58036814779234
    Total Energy =                       -344.5803681477923419
  Basis Set: 6-31G*
  Basis Set:
  Basis Set: 6-31G*
  Basis Set:
  @DF-RHF Final Energy:  -344.58041114857843
    Total Energy =                       -344.5804111485783210
  Basis Set: 6-31G*
  Basis Set:
  Charge       = 0
  Multiplicity = 1
  Basis Set: 6-31G*
  Basis Set:

    Orbital Energies (a.u.)
    -----------------------

    Doubly Occupied:

       1A    -20.572445     2A    -11.286184     3A    -11.275484
       4A    -11.233652     5A    -11.232903     6A    -11.226301
       7A    -11.225857     8A    -11.224201     9A     -1.400659
      10A     -1.147564    11A     -1.017469    12A     -1.014721
      13A     -0.933653    14A     -0.834342    15A     -0.806225
      16A     -0.714274    17A     -0.666241    18A     -0.662460
      19A     -0.636376    20A     -0.612549    21A     -0.596572
      22A     -0.584675    23A     -0.529946    24A     -0.506612
      25A     -0.504724    26A     -0.483086    27A     -0.437828
      28A     -0.335148    29A     -0.319550

  @DF-RHF Final Energy:  -344.58041694586126

   => Energetics <=

    Nuclear Repulsion Energy =            348.0143365597221532
    One-Electron Energy =               -1157.1461105250386936
    Two-Electron Energy =                 464.5513570194552813
    DFT Exchange-Correlation Energy =       0.0000000000000000
    Empirical Dispersion Energy =           0.0000000000000000
    PCM Polarization Energy =               0.0000000000000000
    EFP Energy =                            0.0000000000000000
    Total Energy =                       -344.5804169458613160
    Molecular point group: c1
  Basis Set: 6-31G*
  Basis Set:

  -Total Gradient:
     Atom            X                  Y                   Z
    ------   -----------------  -----------------  -----------------
       1       -0.000035416290    -0.000100277419    -0.000011018736
       2        0.000117295598     0.000282248679    -0.000071906541
       3        0.000252421615    -0.000149911063     0.000091567848
       4       -0.000340174956    -0.000065062816     0.000078341466
       5       -0.000056689717     0.000027769531    -0.000016062463
       6       -0.000168218769    -0.000160948860    -0.000041267294
       7        0.000038189428    -0.000037273787    -0.000008467573
       8        0.000156878494    -0.000148438461    -0.000421196695
       9       -0.000042639983     0.000017336410    -0.000009386096
      10       -0.000195972212     0.000399951035     0.000581074834
      11        0.000047896859    -0.000055576947    -0.000017783480
      12        0.000270752330     0.000367622892    -0.000137625420
      13       -0.000062310837    -0.000376123080     0.000025600525
      14        0.000008430970     0.000001957444    -0.000001078115
      15        0.000003697790    -0.000004386643    -0.000007379050
      16        0.000005859680     0.000001113085    -0.000033413210

  **** Optimization is complete! (in 5 steps) ****
    Final optimized geometry and variables:
    Molecular point group: c1

    Geometry (in Angstrom), charge = 0, multiplicity = 1:

    H           -3.219923672475     0.840408925717    -0.154344838677
    C           -2.175225534459     0.586680751978    -0.154787251638
    C           -1.781046462271    -0.742570851595    -0.172436220595
    C           -1.213645402918     1.583515679817    -0.145384349093
    H           -2.521522095990    -1.522402414581    -0.190536186405
    C           -0.437392007103    -1.076180351975    -0.178493311925
    H           -1.509502011368     2.617412667318    -0.138233648852
    C            0.133618218757     1.257839494099    -0.145314259590
    H           -0.127709934867    -2.104903751648    -0.213560709057
    C            0.519327246953    -0.071792235341    -0.158815747585
    H            0.891729274802     2.019344238302    -0.143859667124
    O            1.848416765459    -0.370309012930    -0.198135740297
    C            2.392924475079    -0.928817481435     0.970378126582
    H            2.276067329276    -0.254978871543     1.813314529771
    H            3.444611586016    -1.086177237347     0.779297021495
    H            1.929154998648    -1.879019809476     1.212128911692

  Mulliken Charges: (a.u.)
   Center  Symbol    Alpha    Beta     Spin     Total
       1     H     0.39996  0.39996  0.00000  0.20008
       2     C     3.10623  3.10623  0.00000 -0.21247
       3     C     3.09629  3.09629  0.00000 -0.19259
       4     C     3.09661  3.09661  0.00000 -0.19321
       5     H     0.39857  0.39857  0.00000  0.20286
       6     C     3.12260  3.12260  0.00000 -0.24520
       7     H     0.39832  0.39832  0.00000  0.20337
       8     C     3.12111  3.12111  0.00000 -0.24222
       9     H     0.39595  0.39595  0.00000  0.20809
      10     C     2.79978  2.79978  0.00000  0.40044
      11     H     0.39366  0.39366  0.00000  0.21269
      12     O     4.33208  4.33208  0.00000 -0.66416
      13     C     3.08277  3.08277  0.00000 -0.16553
      14     H     0.42199  0.42199  0.00000  0.15602
      15     H     0.40997  0.40997  0.00000  0.18006
      16     H     0.42412  0.42412  0.00000  0.15177

   Total alpha = 29.00000, Total beta = 29.00000, Total charge =  0.00000
