  ==> Input File <==

--------------------------------------------------------------------------
set {
	reference rhf
	basis 6-31G*
}

set_num_threads( 4 )
memory 2 gb

molecule MOL {
0 1

O	 1.776178	 0.059333	 -0.793932
C	 2.701189	 0.057885	 -0.047330
C	 3.295834	 1.274490	 0.619796
O	 3.347903	 -1.046386	 0.304773
C	 2.576073	 2.570894	 0.254564
H	 3.283145	 1.089401	 1.688801
H	 4.344963	 1.316872	 0.338320
C	 3.231308	 3.826544	 0.839803
H	 1.541626	 2.510470	 0.579200
H	 2.545914	 2.656888	 -0.826231
C	 3.177592	 3.930559	 2.366697
H	 2.733902	 4.695249	 0.414761
H	 4.267865	 3.881664	 0.510378
C	 3.745147	 5.250179	 2.893465
H	 2.144928	 3.826371	 2.696195
H	 3.726757	 3.107258	 2.817880
C	 3.701409	 5.363025	 4.418419
H	 3.191740	 6.079702	 2.456581
H	 4.774374	 5.360007	 2.555340
C	 4.266479	 6.685298	 4.936097
H	 2.673760	 5.252494	 4.758070
H	 4.257712	 4.537147	 4.856863
H	 4.221821	 6.735284	 6.019662
H	 3.708859	 7.530644	 4.542848
H	 5.304813	 6.809967	 4.641830
C	 4.728119	 -1.109107	 -0.004993
H	 4.882018	 -1.033965	 -1.071845
H	 5.068212	 -2.067527	 0.355250
H	 5.265056	 -0.311663	 0.488280

	symmetry c1
}
set optking {
	frozen_dihedral = ("
		1 2 4 26
	")
}

ee = optimize('scf')
oeprop('DIPOLE', 'QUADRUPOLE', 'MULLIKEN_CHARGES')
f=open( 'psi4out.xyz', 'w' )
f.write( "29  " )
f.write( str(ee) + "\n" )
f.write( MOL.save_string_xyz() )
f.close()
--------------------------------------------------------------------------

    Molecular point group: c1
  Charge       = 0
  Multiplicity = 1
  Basis Set: 6-31G*
  Basis Set:
  @DF-RHF Final Energy:  -501.01870154742687
    Total Energy =                       -501.0187015474272130
    Molecular point group: c1
  Basis Set: 6-31G*
  Basis Set:
  Basis Set: 6-31G*
  Basis Set:
  @DF-RHF Final Energy:  -501.01862446373241
    Total Energy =                       -501.0186244637324080
  Basis Set: 6-31G*
  Basis Set:
  Basis Set: 6-31G*
  Basis Set:
  @DF-RHF Final Energy:  -501.02242398935823
    Total Energy =                       -501.0224239893586855
  Basis Set: 6-31G*
  Basis Set:
  Basis Set: 6-31G*
  Basis Set:
  @DF-RHF Final Energy:  -501.02336570138050
    Total Energy =                       -501.0233657013802713
  Basis Set: 6-31G*
  Basis Set:
  @DF-RHF Final Energy:  -501.02354956436727
    Total Energy =                       -501.0235495643671584
  @DF-RHF Final Energy:  -501.02358718926769
    Total Energy =                       -501.0235871892675732
  Basis Set: 6-31G*
  Basis Set:
  @DF-RHF Final Energy:  -501.02357641409003
    Total Energy =                       -501.0235764140907122
  Basis Set: 6-31G*
  Basis Set:
  Basis Set: 6-31G*
  Basis Set:
  @DF-RHF Final Energy:  -501.02359354785710
    Total Energy =                       -501.0235935478567626
  Basis Set: 6-31G*
  Basis Set:
  Basis Set: 6-31G*
  Basis Set:
  @DF-RHF Final Energy:  -501.02359474044010
    Total Energy =                       -501.0235947404391936
  Basis Set: 6-31G*
  Basis Set:
  Charge       = 0
  Multiplicity = 1
  Basis Set: 6-31G*
  Basis Set:

    Orbital Energies (a.u.)
    -----------------------

    Doubly Occupied:

       1A    -20.588837     2A    -20.552711     3A    -11.374396
       4A    -11.294387     5A    -11.241278     6A    -11.222973
       7A    -11.220975     8A    -11.218971     9A    -11.218043
      10A    -11.216971    11A    -11.210892    12A     -1.458735
      13A     -1.367241    14A     -1.100701    15A     -1.067672
      16A     -1.014496    17A     -0.978523    18A     -0.942228
      19A     -0.868465    20A     -0.804147    21A     -0.793822
      22A     -0.762218    23A     -0.700742    24A     -0.680084
      25A     -0.672511    26A     -0.653835    27A     -0.631028
      28A     -0.615705    29A     -0.601553    30A     -0.588416
      31A     -0.565666    32A     -0.559324    33A     -0.541583
      34A     -0.533032    35A     -0.519916    36A     -0.501989
      37A     -0.495361    38A     -0.481495    39A     -0.473255
      40A     -0.466310    41A     -0.464525    42A     -0.452023
      43A     -0.441989    44A     -0.432858

  @DF-RHF Final Energy:  -501.02359488000286

   => Energetics <=

    Nuclear Repulsion Energy =            612.9395263622194534
    One-Electron Energy =               -1896.7424746529090953
    Two-Electron Energy =                 782.7793534106867810
    DFT Exchange-Correlation Energy =       0.0000000000000000
    Empirical Dispersion Energy =           0.0000000000000000
    PCM Polarization Energy =               0.0000000000000000
    EFP Energy =                            0.0000000000000000
    Total Energy =                       -501.0235948800027472
    Molecular point group: c1
  Basis Set: 6-31G*
  Basis Set:

  -Total Gradient:
     Atom            X                  Y                   Z
    ------   -----------------  -----------------  -----------------
       1        0.001941919592     0.000174875385    -0.002058168963
       2       -0.003022889132    -0.000606822538     0.001806496485
       3       -0.000005862432    -0.000026159232     0.000047614371
       4        0.001551229462     0.001419278681     0.002372797363
       5       -0.000020544138     0.000014775819    -0.000009374671
       6        0.000000980307    -0.000004164141     0.000002628044
       7       -0.000028301823    -0.000013567825    -0.000014583658
       8       -0.000005782866     0.000011812352     0.000006082841
       9       -0.000010899765    -0.000000998623    -0.000003245692
      10        0.000009921595    -0.000003593491     0.000005924467
      11        0.000024968387    -0.000017122936    -0.000005468193
      12        0.000004936787     0.000009194340     0.000009919660
      13        0.000002840819    -0.000005248178    -0.000005780446
      14       -0.000014691923     0.000007282490    -0.000006643822
      15        0.000009902084    -0.000006926204    -0.000007120157
      16        0.000003276717    -0.000006501902     0.000003148135
      17       -0.000013698848     0.000003379847    -0.000000286117
      18       -0.000001191578     0.000005173332    -0.000003064789
      19       -0.000002772566     0.000000412902     0.000003990875
      20        0.000006637558    -0.000002202483    -0.000000828608
      21       -0.000001157220     0.000003490271     0.000001584850
      22       -0.000003781972    -0.000001883866    -0.000001905995
      23        0.000002475140    -0.000001369390    -0.000000264853
      24       -0.000000819397    -0.000002532931     0.000001000987
      25        0.000001094355     0.000002563103    -0.000000906587
      26       -0.000452024627    -0.000946070365    -0.002143041008
      27        0.000001253191    -0.000001513979     0.000013364413
      28        0.000013789621     0.000000778219    -0.000005688275
      29        0.000009192677    -0.000006338654    -0.000008180652

  **** Optimization is complete! (in 10 steps) ****
    Final optimized geometry and variables:
    Molecular point group: c1

    Geometry (in Angstrom), charge = 0, multiplicity = 1:

    O           -1.436048285962    -2.289369484833    -2.326487108984
    C           -0.560452690526    -2.307601817213    -1.533521715248
    C            0.010202766923    -1.074440524652    -0.864942069771
    O           -0.025176733278    -3.480697670893    -1.134901145573
    C           -0.794644551002     0.191232581468    -1.157140668629
    H            0.069713493376    -1.282919620021     0.198307833763
    H            1.036333245486    -0.948125811732    -1.204485953982
    C           -0.177918284604     1.465156611610    -0.569845391844
    H           -1.805968267269     0.065521338634    -0.782179281111
    H           -0.884700109336     0.300917302070    -2.231828743271
    C           -0.158152369145     1.527710348720     0.960136599828
    H           -0.742732721360     2.315418025126    -0.944766573348
    H            0.835682472493     1.586427483384    -0.949781527014
    C            0.359156310084     2.864903152065     1.494295314162
    H           -1.164538706646     1.354657843654     1.337983039645
    H            0.459807482294     0.726996670097     1.360454672315
    C            0.387408000732     2.937154727050     3.022071409615
    H           -0.262750954192     3.670902326003     1.108693044679
    H            1.361615030487     3.043561966253     1.108341370364
    C            0.903345473020     4.276416499273     3.547285407526
    H           -0.613613681889     2.759449987468     3.409220942077
    H            1.010837214543     2.133897052255     3.409348922226
    H            0.911945315888     4.296616387387     4.632659701945
    H            0.279500310174     5.097766331608     3.206243179201
    H            1.916447720165     4.467987970452     3.204905931455
    C            1.348395940964    -3.717001743309    -1.348103648400
    H            1.615403558893    -3.536891394821    -2.383121159807
    H            1.514693277903    -4.757490386178    -1.117035651461
    H            1.967677959233    -3.107634308047    -0.700259036904

  Mulliken Charges: (a.u.)
   Center  Symbol    Alpha    Beta     Spin     Total
       1     O     4.25259  4.25259  0.00000 -0.50517
       2     C     2.60916  2.60916  0.00000  0.78169
       3     C     3.22486  3.22486  0.00000 -0.44973
       4     O     4.31180  4.31180  0.00000 -0.62360
       5     C     3.15266  3.15266  0.00000 -0.30531
       6     H     0.39874  0.39874  0.00000  0.20251
       7     H     0.40668  0.40668  0.00000  0.18664
       8     C     3.15698  3.15698  0.00000 -0.31395
       9     H     0.41212  0.41212  0.00000  0.17576
      10     H     0.40626  0.40626  0.00000  0.18748
      11     C     3.15478  3.15478  0.00000 -0.30957
      12     H     0.41726  0.41726  0.00000  0.16548
      13     H     0.42484  0.42484  0.00000  0.15032
      14     C     3.15037  3.15037  0.00000 -0.30073
      15     H     0.42165  0.42165  0.00000  0.15670
      16     H     0.42488  0.42488  0.00000  0.15025
      17     C     3.15150  3.15150  0.00000 -0.30300
      18     H     0.42279  0.42279  0.00000  0.15441
      19     H     0.42433  0.42433  0.00000  0.15134
      20     C     3.23941  3.23941  0.00000 -0.47882
      21     H     0.42228  0.42228  0.00000  0.15543
      22     H     0.42379  0.42379  0.00000  0.15242
      23     H     0.41891  0.41891  0.00000  0.16218
      24     H     0.42124  0.42124  0.00000  0.15752
      25     H     0.42195  0.42195  0.00000  0.15609
      26     C     3.09333  3.09333  0.00000 -0.18667
      27     H     0.41479  0.41479  0.00000  0.17042
      28     H     0.40028  0.40028  0.00000  0.19943
      29     H     0.41975  0.41975  0.00000  0.16050

   Total alpha = 44.00000, Total beta = 44.00000, Total charge =  0.00000
