                              Psi4 1.0.54 Driver

  ==> Input File <==

--------------------------------------------------------------------------
set {
	reference rhf
	basis cc-pvtz
}

set_num_threads( 4 )
memory 2 gb

molecule MOL {
0 1

H	 3.995267	 -0.290780	 2.741821
C	 3.296312	 -0.775689	 2.070677
C	 2.007636	 0.029461	 1.945377
H	 3.785153	 -0.884474	 1.108264
H	 3.104325	 -1.770998	 2.457353
C	 0.995610	 -0.616965	 1.011083
H	 2.225580	 1.028097	 1.583450
H	 1.560375	 0.148104	 2.929480
N	 -0.205257	 0.181941	 0.895309
H	 1.432162	 -0.713493	 0.021500
H	 0.783291	 -1.633814	 1.354624
C	 -1.215959	 -0.382435	 0.027143
H	 -0.591581	 0.343004	 1.802023
C	 -2.451944	 0.502410	 -0.038737
H	 -0.790181	 -0.477818	 -0.967237
H	 -1.508295	 -1.390798	 0.335075
C	 -3.752217	 -0.292550	 0.005776
H	 -2.407325	 1.093801	 -0.946480
H	 -2.431979	 1.206234	 0.790023
H	 -3.817783	 -0.982946	 -0.828547
H	 -4.612613	 0.364348	 -0.042306
H	 -3.830160	 -0.871666	 0.919868

	symmetry c1
}
set optking {
	frozen_dihedral = ("
		15 12 14 18
	")
}

ee,wfn = optimize('scf', return_wfn=True)
oeprop( wfn, 'DIPOLE', 'QUADRUPOLE', 'MULLIKEN_CHARGES')
f=open( 'psi4out.xyz', 'w' )
f.write( "22  " )
f.write( str(ee) + "\n" )
f.write( MOL.save_string_xyz() )
f.close()
--------------------------------------------------------------------------

    Molecular point group: c1
  Charge       = 0
  Multiplicity = 1
  Basis Set: CC-PVTZ
  Basis Set:
  @DF-RHF Final Energy:  -290.48491143732610
    Total Energy =                       -290.4849114373265593
    Molecular point group: c1
  Basis Set: CC-PVTZ
  Basis Set:
  Basis Set: CC-PVTZ
  Basis Set:
  @DF-RHF Final Energy:  -290.48526201532718
    Total Energy =                       -290.4852620153273506
  Basis Set: CC-PVTZ
  Basis Set:
  Basis Set: CC-PVTZ
  Basis Set:
  @DF-RHF Final Energy:  -290.48535500480426
    Total Energy =                       -290.4853550048045463
  Basis Set: CC-PVTZ
  Basis Set:
  Basis Set: CC-PVTZ
  Basis Set:
  @DF-RHF Final Energy:  -290.48535707695856
    Total Energy =                       -290.4853570769589055
  Basis Set: CC-PVTZ
  Basis Set:
  Charge       = 0
  Multiplicity = 1
  Basis Set: CC-PVTZ
  Basis Set:

    Orbital Energies (a.u.)
    -----------------------

    Doubly Occupied:

       1A    -15.528143     2A    -11.236489     3A    -11.235832
       4A    -11.211864     5A    -11.211793     6A    -11.207519
       7A    -11.207424     8A     -1.206729     9A     -1.058967
      10A     -1.026155    11A     -0.928241    12A     -0.869466
      13A     -0.811315    14A     -0.794338    15A     -0.668824
      16A     -0.630209    17A     -0.618158    18A     -0.604301
      19A     -0.576292    20A     -0.563202    21A     -0.539740
      22A     -0.528254    23A     -0.508763    24A     -0.487289
      25A     -0.482087    26A     -0.473054    27A     -0.465213
      28A     -0.451290    29A     -0.360849

  @DF-RHF Final Energy:  -290.48535740686214

   => Energetics <=

    Nuclear Repulsion Energy =            313.8048498230491532
    One-Electron Energy =               -1013.5968162904553083
    Two-Electron Energy =                 409.3066090605437921
    DFT Exchange-Correlation Energy =       0.0000000000000000
    Empirical Dispersion Energy =           0.0000000000000000
    PCM Polarization Energy =               0.0000000000000000
    EFP Energy =                            0.0000000000000000
    Total Energy =                       -290.4853574068623630
    Molecular point group: c1
  Basis Set: CC-PVTZ
  Basis Set:

  -Total Gradient:
     Atom            X                  Y                   Z
    ------   -----------------  -----------------  -----------------
       1       -0.000000453513     0.000000213698    -0.000000956335
       2       -0.000000756604     0.000002519117     0.000000772223
       3        0.000005469590    -0.000008795954     0.000000641319
       4       -0.000000035486    -0.000000347067     0.000000006086
       5       -0.000001031903     0.000002037259    -0.000000598877
       6       -0.000007839876     0.000019488608     0.000007298959
       7        0.000000926641     0.000000437460     0.000000895122
       8        0.000000688170     0.000000353158     0.000001003630
       9       -0.000013532803    -0.000030739377    -0.000022955577
      10        0.000002975580    -0.000003045002     0.000000035780
      11        0.000005911465    -0.000006126709     0.000001457380
      12       -0.003325340131    -0.004711053134    -0.001304960237
      13       -0.000001421895    -0.000007473888    -0.000018067629
      14        0.003000764190     0.004381942010     0.002633322835
      15        0.002328961136     0.003274146306     0.000691721715
      16       -0.000005407747     0.000031280888    -0.000001531792
      17        0.000001774263     0.000012830348     0.000019698440
      18       -0.001987022992    -0.002939258539    -0.002003061863
      19       -0.000001870299    -0.000020960956     0.000003320359
      20        0.000013645308    -0.000002838179     0.000000021255
      21       -0.000007210954     0.000001217358    -0.000003929273
      22       -0.000009192143     0.000004172592    -0.000004133519

  **** Optimization is complete! (in 5 steps) ****
    Final optimized geometry and variables:
    Molecular point group: c1

    Geometry (in Angstrom), charge = 0, multiplicity = 1:

    H            4.232090239748    -0.043748112140     1.815971199242
    C            3.524992297213    -0.536026598559     1.158835400705
    C            2.222237311321     0.250664420808     1.066813220265
    H            3.993015975552    -0.633600385259     0.184945455727
    H            3.356319407611    -1.535621660507     1.545327743588
    C            1.198772007319    -0.406014644237     0.152179983226
    H            2.417464384636     1.254038974715     0.705031454702
    H            1.795833524070     0.357942709090     2.061429002771
    N           -0.014115280332     0.377655766125     0.064472620267
    H            1.615817259113    -0.494368337327    -0.846638353419
    H            1.007112396351    -1.426699629383     0.496967205403
    C           -1.041129557000    -0.206688517178    -0.776322589042
    H           -0.379326605151     0.535616520984     0.980496290079
    C           -2.281863547618     0.694041842652    -0.852572356038
    H           -0.606609910330    -0.313299742882    -1.764023216488
    H           -1.324133367956    -1.205908122197    -0.438069305640
    C           -3.590628277025    -0.092410403930    -0.856669068065
    H           -2.241317334105     1.287155319376    -1.758864188130
    H           -2.276445349453     1.386870784277    -0.019061586675
    H           -3.625685477960    -0.791010000714    -1.686446676524
    H           -4.444495239473     0.569096913087    -0.947997260263
    H           -3.709063155071    -0.664159057895     0.057914124431

  Mulliken Charges: (a.u.)
   Center  Symbol    Alpha    Beta     Spin     Total
       1     H     0.44772  0.44772  0.00000  0.10455
       2     C     3.15360  3.15360  0.00000 -0.30719
       3     C     3.08038  3.08038  0.00000 -0.16077
       4     H     0.45474  0.45474  0.00000  0.09052
       5     H     0.45614  0.45614  0.00000  0.08772
       6     C     3.02037  3.02037  0.00000 -0.04074
       7     H     0.44905  0.44905  0.00000  0.10190
       8     H     0.45973  0.45973  0.00000  0.08053
       9     N     3.63906  3.63906  0.00000 -0.27812
      10     H     0.45947  0.45947  0.00000  0.08106
      11     H     0.47570  0.47570  0.00000  0.04860
      12     C     3.03132  3.03132  0.00000 -0.06265
      13     H     0.44492  0.44492  0.00000  0.11016
      14     C     3.08418  3.08418  0.00000 -0.16837
      15     H     0.45758  0.45758  0.00000  0.08484
      16     H     0.47011  0.47011  0.00000  0.05977
      17     C     3.15169  3.15169  0.00000 -0.30337
      18     H     0.45061  0.45061  0.00000  0.09877
      19     H     0.45303  0.45303  0.00000  0.09395
      20     H     0.45503  0.45503  0.00000  0.08994
      21     H     0.44885  0.44885  0.00000  0.10229
      22     H     0.45670  0.45670  0.00000  0.08659

   Total alpha = 29.00000, Total beta = 29.00000, Total charge =  0.00000

*** Psi4 exiting successfully. Buy a developer a beer!
