  ==> Input File <==

--------------------------------------------------------------------------
set {
	reference rhf
	basis 6-31G*
}

set_num_threads( 4 )
memory 2 gb

molecule MOL {
0 1

H	 2.566487	 -0.820676	 -0.302244
O	 1.654024	 -0.625927	 -0.460906
C	 1.135793	 0.118896	 0.612333
C	 0.031547	 1.023609	 0.088541
H	 1.915668	 0.729681	 1.063582
H	 0.754543	 -0.542641	 1.387006
C	 -1.134819	 0.293262	 -0.585751
H	 0.474374	 1.714721	 -0.623187
H	 -0.338529	 1.620940	 0.920081
C	 -1.917817	 -0.639439	 0.339494
H	 -0.758119	 -0.268455	 -1.433105
H	 -1.813832	 1.041889	 -0.986690
H	 -2.777680	 -1.057197	 -0.174994
H	 -1.310268	 -1.471279	 0.680599
H	 -2.283753	 -0.111424	 1.216626

	symmetry c1
}
set optking {
	frozen_dihedral = ("
		1 2 3 4
	")
}

ee = optimize('scf')
oeprop('DIPOLE', 'QUADRUPOLE', 'MULLIKEN_CHARGES')
f=open( 'psi4out.xyz', 'w' )
f.write( "15  " )
f.write( str(ee) + "\n" )
f.write( MOL.save_string_xyz() )
f.close()
--------------------------------------------------------------------------

    Molecular point group: c1
  Charge       = 0
  Multiplicity = 1
  Basis Set: 6-31G*
  Basis Set:
  @DF-RHF Final Energy:  -232.14275846446645
    Total Energy =                       -232.1427584644665103
    Molecular point group: c1
  Basis Set: 6-31G*
  Basis Set:
  Basis Set: 6-31G*
  Basis Set:
  @DF-RHF Final Energy:  -232.14278088299181
    Total Energy =                       -232.1427808829919854
  Basis Set: 6-31G*
  Basis Set:
  Basis Set: 6-31G*
  Basis Set:
  @DF-RHF Final Energy:  -232.14278320932547
    Total Energy =                       -232.1427832093256143
  Basis Set: 6-31G*
  Basis Set:
  Basis Set: 6-31G*
  Basis Set:
  @DF-RHF Final Energy:  -232.14282050792144
    Total Energy =                       -232.1428205079213285
  Basis Set: 6-31G*
  Basis Set:
  Charge       = 0
  Multiplicity = 1
  Basis Set: 6-31G*
  Basis Set:

    Orbital Energies (a.u.)
    -----------------------

    Doubly Occupied:

       1A    -20.552435     2A    -11.267592     3A    -11.212020
       4A    -11.207873     5A    -11.203056     6A     -1.358936
       7A     -1.063028     8A     -0.969101     9A     -0.868080
      10A     -0.774935    11A     -0.702338    12A     -0.646741
      13A     -0.608709    14A     -0.570062    15A     -0.563568
      16A     -0.530796    17A     -0.508389    18A     -0.476535
      19A     -0.465567    20A     -0.450979    21A     -0.428173

  @DF-RHF Final Energy:  -232.14282053002668

   => Energetics <=

    Nuclear Repulsion Energy =            191.8291160120515713
    One-Electron Energy =                -695.0860469831493447
    Two-Electron Energy =                 271.1141104410709204
    DFT Exchange-Correlation Energy =       0.0000000000000000
    Empirical Dispersion Energy =           0.0000000000000000
    PCM Polarization Energy =               0.0000000000000000
    EFP Energy =                            0.0000000000000000
    Total Energy =                       -232.1428205300268246
    Molecular point group: c1
  Basis Set: 6-31G*
  Basis Set:

  -Total Gradient:
     Atom            X                  Y                   Z
    ------   -----------------  -----------------  -----------------
       1        0.000494376533     0.001594988470    -0.000904854217
       2       -0.000357339062    -0.001622959546     0.001039666143
       3       -0.000938550925    -0.000806405885     0.000085206831
       4        0.000801604972     0.000799131022    -0.000258556793
       5        0.000006153987     0.000010703931     0.000005087951
       6       -0.000030476506     0.000005232613     0.000011417509
       7        0.000002371873     0.000017595517     0.000012848705
       8       -0.000013831326     0.000008884301    -0.000007819495
       9        0.000006948262    -0.000021124347     0.000002358417
      10        0.000010861438    -0.000011482380     0.000003309187
      11       -0.000000865459    -0.000008628573     0.000011005481
      12        0.000010909956     0.000021488956    -0.000004826671
      13        0.000003657455     0.000000567929    -0.000006199674
      14        0.000021498726     0.000011003966     0.000008620252
      15       -0.000017319926     0.000001004025     0.000002736375

  **** Optimization is complete! (in 5 steps) ****
    Final optimized geometry and variables:
    Molecular point group: c1

    Geometry (in Angstrom), charge = 0, multiplicity = 1:

    H            2.553425355926    -0.846073063157    -0.306111772426
    O            1.641032515733    -0.647906989580    -0.454778027669
    C            1.135791604297     0.119695309773     0.611385964480
    C            0.027689366908     1.025630140445     0.095731037580
    H            1.921454385944     0.735836135411     1.043287007907
    H            0.770031198322    -0.532875309411     1.399976945268
    C           -1.134219270377     0.293395375341    -0.584634435750
    H            0.466801791754     1.724096980334    -0.611047720154
    H           -0.347501867175     1.612972767249     0.932416116907
    C           -1.916882141661    -0.643422069097     0.336762818929
    H           -0.751450936644    -0.266515878769    -1.430874426977
    H           -1.813705348407     1.040195649848    -0.988167781578
    H           -2.769130383275    -1.069324972703    -0.183741459684
    H           -1.304580374086    -1.468944411224     0.684275130511
    H           -2.294147506161    -0.116099843984     1.209489157804

  Mulliken Charges: (a.u.)
   Center  Symbol    Alpha    Beta     Spin     Total
       1     H     0.27971  0.27971  0.00000  0.44059
       2     O     4.37150  4.37150  0.00000 -0.74300
       3     C     2.99988  2.99988  0.00000  0.00025
       4     C     3.15873  3.15873  0.00000 -0.31746
       5     H     0.43012  0.43012  0.00000  0.13975
       6     H     0.42733  0.42733  0.00000  0.14534
       7     C     3.15421  3.15421  0.00000 -0.30843
       8     H     0.41718  0.41718  0.00000  0.16563
       9     H     0.42566  0.42566  0.00000  0.14868
      10     C     3.24346  3.24346  0.00000 -0.48692
      11     H     0.40716  0.40716  0.00000  0.18569
      12     H     0.42313  0.42313  0.00000  0.15375
      13     H     0.41930  0.41930  0.00000  0.16141
      14     H     0.41732  0.41732  0.00000  0.16535
      15     H     0.42531  0.42531  0.00000  0.14937

   Total alpha = 21.00000, Total beta = 21.00000, Total charge =  0.00000
