  ==> Input File <==

--------------------------------------------------------------------------
set {
	reference rhf
	basis cc-pvtz
}

set_num_threads( 4 )
memory 2 gb

molecule MOL {
0 1

H	 2.231388	 -0.953875	 0.792813
C	 1.469977	 -0.209670	 0.954816
O	 0.462329	 -0.453336	 -0.000137
H	 1.901296	 0.774738	 0.823961
H	 1.084811	 -0.308322	 1.961867
C	 -0.590565	 0.341382	 0.000062
O	 -1.693898	 -0.053880	 0.000252
H	 -0.340426	 1.403822	 0.000200

	symmetry c1
}
set optking {
	frozen_dihedral = ("
		2 3 6 7
	")
}

ee = optimize('scf')
oeprop('DIPOLE', 'QUADRUPOLE', 'MULLIKEN_CHARGES')
f=open( 'psi4out.xyz', 'w' )
f.write( "8  " )
f.write( str(ee) + "\n" )
f.write( MOL.save_string_xyz() )
f.close()
--------------------------------------------------------------------------

    Molecular point group: c1
  Charge       = 0
  Multiplicity = 1
  Basis Set: CC-PVTZ
  Basis Set:
  @DF-RHF Final Energy:  -227.86379699600968
    Total Energy =                       -227.8637969960096541
    Molecular point group: c1
  Basis Set: CC-PVTZ
  Basis Set:
  Basis Set: CC-PVTZ
  Basis Set:
  @DF-RHF Final Energy:  -227.86385130840205
    Total Energy =                       -227.8638513084020758
  Basis Set: CC-PVTZ
  Basis Set:
  Basis Set: CC-PVTZ
  Basis Set:
  @DF-RHF Final Energy:  -227.86409116843009
    Total Energy =                       -227.8640911684300931
  Basis Set: CC-PVTZ
  Basis Set:
  Basis Set: CC-PVTZ
  Basis Set:
  @DF-RHF Final Energy:  -227.86419730350030
    Total Energy =                       -227.8641973035001911
  Basis Set: CC-PVTZ
  Basis Set:
  Basis Set: CC-PVTZ
  Basis Set:
  @DF-RHF Final Energy:  -227.86420132094952
    Total Energy =                       -227.8642013209494337
  Basis Set: CC-PVTZ
  Basis Set:
  Charge       = 0
  Multiplicity = 1
  Basis Set: CC-PVTZ
  Basis Set:

    Orbital Energies (a.u.)
    -----------------------

    Doubly Occupied:

       1A    -20.600520     2A    -20.556260     3A    -11.375743
       4A    -11.300925     5A     -1.476630     6A     -1.387935
       7A     -0.989832     8A     -0.845223     9A     -0.740544
      10A     -0.689788    11A     -0.679582    12A     -0.619556
      13A     -0.569845    14A     -0.526873    15A     -0.473029
      16A     -0.459738

  @DF-RHF Final Energy:  -227.86420199509774

   => Energetics <=

    Nuclear Repulsion Energy =            121.6739730087901421
    One-Electron Energy =                -552.4923057686289667
    Two-Electron Energy =                 202.9541307647411088
    DFT Exchange-Correlation Energy =       0.0000000000000000
    Empirical Dispersion Energy =           0.0000000000000000
    PCM Polarization Energy =               0.0000000000000000
    EFP Energy =                            0.0000000000000000
    Total Energy =                       -227.8642019950977158
    Molecular point group: c1
  Basis Set: CC-PVTZ
  Basis Set:

  -Total Gradient:
     Atom            X                  Y                   Z
    ------   -----------------  -----------------  -----------------
       1       -0.000018401134    -0.000003307171    -0.000016953242
       2       -0.002236525710    -0.002380872377     0.003430942960
       3        0.003387917678     0.003925411538    -0.002008479665
       4        0.000002232806    -0.000023750524    -0.000001252430
       5       -0.000009642348    -0.000009824178    -0.000003477270
       6       -0.001235285846    -0.002092439146    -0.007535930087
       7        0.000108843696     0.000611494776     0.006132499274
       8        0.000000860856    -0.000026712918     0.000002650460

  **** Optimization is complete! (in 6 steps) ****
    Final optimized geometry and variables:
    Molecular point group: c1

    Geometry (in Angstrom), charge = 0, multiplicity = 1:

    H            2.366988452385    -0.778587624322     0.463183127664
    C            1.539766843209    -0.128038011403     0.693216501766
    O            0.512556425128    -0.427938612004    -0.223717342317
    H            1.861938309394     0.903820204538     0.599969145010
    H            1.204221974095    -0.311527277826     1.705425674328
    C           -0.498532161818     0.432148342572    -0.287583863400
    O           -1.624988123240     0.118893625034    -0.230766179270
    H           -0.175853385889     1.470073295097    -0.385392982390

  Mulliken Charges: (a.u.)
   Center  Symbol    Alpha    Beta     Spin     Total
       1     H     0.44223  0.44223  0.00000  0.11554
       2     C     3.02700  3.02700  0.00000 -0.05400
       3     O     4.13573  4.13573  0.00000 -0.27146
       4     H     0.46601  0.46601  0.00000  0.06799
       5     H     0.45591  0.45591  0.00000  0.08817
       6     C     2.83348  2.83348  0.00000  0.33304
       7     O     4.16524  4.16524  0.00000 -0.33048
       8     H     0.47440  0.47440  0.00000  0.05120

   Total alpha = 16.00000, Total beta = 16.00000, Total charge =  0.00000
