  ==> Input File <==

--------------------------------------------------------------------------
set {
	reference rhf
	basis 6-31G*
}

set_num_threads( 1 )
memory 2 gb

molecule MOL {
0 1

O	 -2.821601	 1.309235	 -0.001213
C	 -2.668563	 0.129746	 -0.000350
C	 -3.801572	 -0.864014	 -0.000442
O	 -1.481751	 -0.454642	 0.000584
H	 -4.417280	 -0.689587	 -0.874708
H	 -3.443784	 -1.883046	 -0.000565
H	 -4.417179	 -0.689832	 0.873954
C	 -0.334255	 0.388708	 0.000906
C	 0.891947	 -0.504646	 0.000751
H	 -0.365390	 1.025305	 -0.873475
H	 -0.365484	 1.024911	 0.875569
C	 2.191998	 0.301789	 0.000897
H	 0.855148	 -1.151283	 -0.871571
H	 0.855132	 -1.151660	 0.872805
C	 3.441114	 -0.581407	 0.000108
H	 2.215074	 0.954890	 -0.869742
H	 2.215465	 0.953923	 0.872248
C	 3.450600	 -1.597886	 -1.140745
H	 3.511689	 -1.104670	 0.951050
H	 4.325782	 0.047622	 -0.068849
H	 2.594775	 -2.264104	 -1.079649
H	 4.347518	 -2.208698	 -1.114605
H	 3.415332	 -1.103166	 -2.107191

	symmetry c1
}
set optking {
	frozen_dihedral = ("
		13 9 8 10,
		2 4 8 10,
		16 12 9 13,
		1 2 4 8
	")
}

ee = energy('scf')
oeprop('DIPOLE', 'QUADRUPOLE', 'MULLIKEN_CHARGES')
f=open( 'psi4out.xyz', 'w' )
f.write( "23  " )
f.write( str(ee) + "\n" )
f.write( MOL.save_string_xyz() )
f.close()
--------------------------------------------------------------------------

    Molecular point group: c1

    Geometry (in Angstrom), charge = 0, multiplicity = 1:

       Center              X                  Y                   Z               Mass
    ------------   -----------------  -----------------  -----------------  -----------------
           O         -2.672783309195     1.519591471539     0.130363416477    15.994914619560
           C         -2.519745309195     0.340102471539     0.131226416477    12.000000000000
           C         -3.652754309195    -0.653657528461     0.131134416477    12.000000000000
           O         -1.332933309195    -0.244285528461     0.132160416477    15.994914619560
           H         -4.268462309195    -0.479230528461    -0.743131583523     1.007825032070
           H         -3.294966309195    -1.672689528461     0.131011416477     1.007825032070
           H         -4.268361309195    -0.479475528461     1.005530416477     1.007825032070
           C         -0.185437309195     0.599064471539     0.132482416477    12.000000000000
           C          1.040764690805    -0.294289528461     0.132327416477    12.000000000000
           H         -0.216572309195     1.235661471539    -0.741898583523     1.007825032070
           H         -0.216666309195     1.235267471539     1.007145416477     1.007825032070
           C          2.340815690805     0.512145471539     0.132473416477    12.000000000000
           H          1.003965690805    -0.940926528461    -0.739994583523     1.007825032070
           H          1.003949690805    -0.941303528461     1.004381416477     1.007825032070
           C          3.589931690805    -0.371050528461     0.131684416477    12.000000000000
           H          2.363891690805     1.165246471539    -0.738165583523     1.007825032070
           H          2.364282690805     1.164279471539     1.003824416477     1.007825032070
           C          3.599417690805    -1.387529528461    -1.009168583523    12.000000000000
           H          3.660506690805    -0.894313528461     1.082626416477     1.007825032070
           H          4.474599690805     0.257978471539     0.062727416477     1.007825032070
           H          2.743592690805    -2.053747528461    -0.948072583523     1.007825032070
           H          4.496335690805    -1.998341528461    -0.983028583523     1.007825032070
           H          3.564149690805    -0.892809528461    -1.975614583523     1.007825032070

  Charge       = 0
  Multiplicity = 1
  Basis Set: 6-31G*
  Basis Set:

    Orbital Energies (a.u.)
    -----------------------

    Doubly Occupied:

       1A    -20.602876     2A    -20.540467     3A    -11.374012
       4A    -11.281278     5A    -11.232369     6A    -11.224089
       7A    -11.223198     8A    -11.221683     9A    -11.212478
      10A     -1.467862    11A     -1.360646    12A     -1.096105
      13A     -1.041131    14A     -1.000963    15A     -0.930563
      16A     -0.856188    17A     -0.791471    18A     -0.771008
      19A     -0.691320    20A     -0.685099    21A     -0.670418
      22A     -0.637634    23A     -0.617627    24A     -0.599965
      25A     -0.575286    26A     -0.570623    27A     -0.548487
      28A     -0.537932    29A     -0.525412    30A     -0.506354
      31A     -0.496825    32A     -0.471143    33A     -0.467328
      34A     -0.466879    35A     -0.450990    36A     -0.435274

  @DF-RHF Final Energy:  -422.97636568697669

   => Energetics <=

    Nuclear Repulsion Energy =            456.0336098841511330
    One-Electron Energy =               -1479.6540708113514029
    Two-Electron Energy =                 600.6440952402178937
    DFT Exchange-Correlation Energy =       0.0000000000000000
    Empirical Dispersion Energy =           0.0000000000000000
    PCM Polarization Energy =               0.0000000000000000
    EFP Energy =                            0.0000000000000000
    Total Energy =                       -422.9763656869823762

  Mulliken Charges: (a.u.)
   Center  Symbol    Alpha    Beta     Spin     Total
       1     O     4.28392  4.28392  0.00000 -0.56784
       2     C     2.61530  2.61530  0.00000  0.76940
       3     C     3.28773  3.28773  0.00000 -0.57545
       4     O     4.31273  4.31273  0.00000 -0.62545
       5     H     0.39750  0.39750  0.00000  0.20499
       6     H     0.39993  0.39993  0.00000  0.20014
       7     H     0.39751  0.39751  0.00000  0.20499
       8     C     2.99454  2.99454  0.00000  0.01092
       9     C     3.16955  3.16955  0.00000 -0.33909
      10     H     0.41073  0.41073  0.00000  0.17854
      11     H     0.41086  0.41086  0.00000  0.17827
      12     C     3.16117  3.16117  0.00000 -0.32235
      13     H     0.41108  0.41108  0.00000  0.17784
      14     H     0.41468  0.41468  0.00000  0.17065
      15     C     3.15179  3.15179  0.00000 -0.30359
      16     H     0.42096  0.42096  0.00000  0.15809
      17     H     0.41863  0.41863  0.00000  0.16275
      18     C     3.24486  3.24486  0.00000 -0.48971
      19     H     0.42142  0.42142  0.00000  0.15716
      20     H     0.41846  0.41846  0.00000  0.16308
      21     H     0.41807  0.41807  0.00000  0.16385
      22     H     0.41734  0.41734  0.00000  0.16533
      23     H     0.42126  0.42126  0.00000  0.15747

   Total alpha = 36.00000, Total beta = 36.00000, Total charge = -0.00000
