                              Psi4 1.0.54 Driver

  ==> Input File <==

--------------------------------------------------------------------------
set {
	reference rhf
	basis cc-pvtz
}

set_num_threads( 4 )
memory 2 gb

molecule MOL {
0 1

H	 3.027639	 0.655998	 1.479431
C	 2.331877	 0.051066	 0.907805
C	 0.992894	 0.765317	 0.783414
H	 2.205039	 -0.898084	 1.413718
H	 2.784260	 -0.143788	 -0.056620
N	 0.000297	 0.000045	 0.046090
H	 0.614930	 0.943563	 1.780654
H	 1.138435	 1.751857	 0.334543
C	 -1.359159	 0.315706	 0.454404
C	 0.183326	 0.094963	 -1.393360
C	 -2.416729	 -0.286720	 -0.460525
H	 -1.478729	 1.390261	 0.442008
H	 -1.539692	 0.003361	 1.486761
C	 -0.327470	 -1.126180	 -2.145911
H	 1.240283	 0.196016	 -1.597539
H	 -0.288644	 0.998837	 -1.788541
H	 -2.285276	 0.073129	 -1.473515
H	 -2.371743	 -1.368476	 -0.483209
H	 -3.408658	 -0.007405	 -0.121593
H	 0.186266	 -2.017400	 -1.807222
H	 -1.389988	 -1.280578	 -2.004511
H	 -0.152283	 -1.010872	 -3.210254

	symmetry c1
}
set optking {
	frozen_dihedral = ("
		3 6 9 11
	")
}

ee,wfn = optimize('scf', return_wfn=True)
oeprop( wfn, 'DIPOLE', 'QUADRUPOLE', 'MULLIKEN_CHARGES')
f=open( 'psi4out.xyz', 'w' )
f.write( "22  " )
f.write( str(ee) + "\n" )
f.write( MOL.save_string_xyz() )
f.close()
--------------------------------------------------------------------------

    Molecular point group: c1
  Charge       = 0
  Multiplicity = 1
  Basis Set: CC-PVTZ
  Basis Set:
  @DF-RHF Final Energy:  -290.45589713481951
    Total Energy =                       -290.4558971348193381
    Molecular point group: c1
  Basis Set: CC-PVTZ
  Basis Set:
  Basis Set: CC-PVTZ
  Basis Set:
  @DF-RHF Final Energy:  -290.46811422320030
    Total Energy =                       -290.4681142232001321
  Basis Set: CC-PVTZ
  Basis Set:
  Basis Set: CC-PVTZ
  Basis Set:
  @DF-RHF Final Energy:  -290.47056520419125
    Total Energy =                       -290.4705652041911890
  Basis Set: CC-PVTZ
  Basis Set:
  Basis Set: CC-PVTZ
  Basis Set:
  @DF-RHF Final Energy:  -290.47112273005092
    Total Energy =                       -290.4711227300507517
  Basis Set: CC-PVTZ
  Basis Set:
  @DF-RHF Final Energy:  -290.47133528342573
    Total Energy =                       -290.4713352834255033
  Basis Set: CC-PVTZ
  Basis Set:
  @DF-RHF Final Energy:  -290.47146311679444
    Total Energy =                       -290.4714631167942684
  Basis Set: CC-PVTZ
  Basis Set:
  Basis Set: CC-PVTZ
  Basis Set:
  @DF-RHF Final Energy:  -290.47147292536721
    Total Energy =                       -290.4714729253671521
  Basis Set: CC-PVTZ
  Basis Set:
  Basis Set: CC-PVTZ
  Basis Set:
  @DF-RHF Final Energy:  -290.47148722609415
    Total Energy =                       -290.4714872260942684
  Basis Set: CC-PVTZ
  Basis Set:
  Charge       = 0
  Multiplicity = 1
  Basis Set: CC-PVTZ
  Basis Set:

    Orbital Energies (a.u.)
    -----------------------

    Doubly Occupied:

       1A    -15.534159     2A    -11.240291     3A    -11.238658
       4A    -11.237425     5A    -11.207811     6A    -11.203880
       7A    -11.200765     8A     -1.223892     9A     -1.028016
      10A     -1.019377    11A     -0.961346    12A     -0.857758
      13A     -0.831065    14A     -0.773810    15A     -0.661991
      16A     -0.639950    17A     -0.617407    18A     -0.596178
      19A     -0.570752    20A     -0.556392    21A     -0.540765
      22A     -0.533142    23A     -0.513376    24A     -0.499450
      25A     -0.485083    26A     -0.480551    27A     -0.466620
      28A     -0.462584    29A     -0.344401

  @DF-RHF Final Energy:  -290.47148906386411

   => Energetics <=

    Nuclear Repulsion Energy =            339.1314216411503253
    One-Electron Energy =               -1064.1520316227135936
    Two-Electron Energy =                 434.5491209176988150
    DFT Exchange-Correlation Energy =       0.0000000000000000
    Empirical Dispersion Energy =           0.0000000000000000
    PCM Polarization Energy =               0.0000000000000000
    EFP Energy =                            0.0000000000000000
    Total Energy =                       -290.4714890638643965
    Molecular point group: c1
  Basis Set: CC-PVTZ
  Basis Set:

  -Total Gradient:
     Atom            X                  Y                   Z
    ------   -----------------  -----------------  -----------------
       1        0.000008848129    -0.000004453808     0.000001802530
       2       -0.000001126761    -0.000004500668     0.000023876832
       3        0.000036075027     0.003806014169    -0.003654813800
       4        0.000005590303     0.000002150167    -0.000002235501
       5       -0.000007012632     0.000003918678     0.000004285530
       6        0.000144265905    -0.003049889498     0.003495071974
       7       -0.000004352243    -0.000006520054    -0.000004119124
       8        0.000001954556     0.000009550170     0.000009435387
       9       -0.000577578061    -0.005195569910     0.003153296537
      10        0.000005374349     0.000002334337    -0.000115966381
      11        0.000409336157     0.004422666204    -0.002992394032
      12       -0.000014599931    -0.000024594931    -0.000019903498
      13        0.000004692011     0.000004449018     0.000014197490
      14       -0.000042943558     0.000037294436     0.000047316991
      15        0.000064893484     0.000042724966    -0.000005681937
      16       -0.000003669429     0.000007389762     0.000019185162
      17       -0.000034294947    -0.000024474588     0.000033309652
      18        0.000006104070     0.000032566402     0.000006697123
      19       -0.000015474593    -0.000010340344    -0.000010814940
      20        0.000014689358    -0.000022395169    -0.000007747438
      21       -0.000014531054    -0.000013489508     0.000003004458
      22        0.000013759861    -0.000014829827     0.000002196986

  **** Optimization is complete! (in 9 steps) ****
    Final optimized geometry and variables:
    Molecular point group: c1

    Geometry (in Angstrom), charge = 0, multiplicity = 1:

    H            3.022469825142     0.623109197891     1.801793728144
    C            2.349867089737     0.044625830747     1.177630493872
    C            0.995734529728     0.734606324528     1.088074224276
    H            2.239327995114    -0.940704604387     1.613393716870
    H            2.821281963750    -0.070195654996     0.209500968834
    N            0.019637075072    -0.004206270482     0.299863401065
    H            0.605543585307     0.830534841384     2.094343893504
    H            1.117273559736     1.753037057084     0.709684476993
    C           -1.326086147649     0.389445523035     0.705344533130
    C            0.289883643272     0.126371112203    -1.131381278774
    C           -2.471362305404    -0.102981539846    -0.167759071429
    H           -1.399510739412     1.481360865621     0.750836995383
    H           -1.480045402407     0.029695324719     1.715774163417
    C            0.145303196404    -1.177599889349    -1.905997005703
    H            1.307772717540     0.468592094745    -1.256536528969
    H           -0.330517194538     0.901201456500    -1.579273886872
    H           -2.423268782385     0.281229923023    -1.176942665690
    H           -2.502070798623    -1.184686312996    -0.213807834143
    H           -3.405731206789     0.236348319626     0.264579551019
    H            0.809878964965    -1.928680378099    -1.496524489528
    H           -0.860832803964    -1.570211109727    -1.866821528671
    H            0.403951610633    -1.024448017706    -2.949160728661

  Mulliken Charges: (a.u.)
   Center  Symbol    Alpha    Beta     Spin     Total
       1     H     0.45212  0.45212  0.00000  0.09576
       2     C     3.14335  3.14335  0.00000 -0.28669
       3     C     3.03712  3.03712  0.00000 -0.07423
       4     H     0.45136  0.45136  0.00000  0.09727
       5     H     0.45612  0.45612  0.00000  0.08775
       6     N     3.62090  3.62090  0.00000 -0.24179
       7     H     0.45359  0.45359  0.00000  0.09283
       8     H     0.46644  0.46644  0.00000  0.06712
       9     C     3.02819  3.02819  0.00000 -0.05637
      10     C     3.06121  3.06121  0.00000 -0.12242
      11     C     3.16150  3.16150  0.00000 -0.32300
      12     H     0.47202  0.47202  0.00000  0.05595
      13     H     0.45570  0.45570  0.00000  0.08860
      14     C     3.13509  3.13509  0.00000 -0.27017
      15     H     0.44440  0.44440  0.00000  0.11119
      16     H     0.45536  0.45536  0.00000  0.08928
      17     H     0.45099  0.45099  0.00000  0.09802
      18     H     0.44988  0.44988  0.00000  0.10024
      19     H     0.44369  0.44369  0.00000  0.11262
      20     H     0.45170  0.45170  0.00000  0.09659
      21     H     0.45257  0.45257  0.00000  0.09485
      22     H     0.45670  0.45670  0.00000  0.08660

   Total alpha = 29.00000, Total beta = 29.00000, Total charge = -0.00000

*** Psi4 exiting successfully. Buy a developer a beer!
