                              Psi4 1.0.54 Driver

  ==> Input File <==

--------------------------------------------------------------------------
set {
	reference rhf
	basis cc-pvtz
}

set_num_threads( 4 )
memory 2 gb

molecule MOL {
0 1

H	 -3.436473	 1.252944	 -1.023892
O	 -3.458596	 0.315260	 -0.960865
C	 -3.176635	 -0.080824	 0.355601
C	 -1.763371	 0.265266	 0.799691
H	 -3.321825	 -1.153438	 0.379502
H	 -3.895468	 0.357385	 1.043382
C	 -0.673390	 -0.426948	 -0.013392
H	 -1.631049	 1.344913	 0.747560
H	 -1.664587	 -0.001624	 1.849167
C	 0.146440	 0.539038	 -0.864698
H	 -1.125725	 -1.179243	 -0.650069
H	 -0.011417	 -0.960194	 0.664802
C	 1.238816	 -0.159469	 -1.672070
H	 -0.522037	 1.075169	 -1.531475
H	 0.602429	 1.289203	 -0.221904
C	 2.140036	 0.775942	 -2.479942
H	 0.781376	 -0.882859	 -2.343118
H	 1.861245	 -0.732268	 -0.990086
C	 1.438307	 1.512775	 -3.618272
H	 2.955654	 0.191988	 -2.895323
H	 2.597294	 1.499822	 -1.810365
H	 0.966126	 0.813880	 -4.301403
H	 2.146704	 2.102796	 -4.188614
H	 0.672805	 2.187364	 -3.254207

	symmetry c1
}
set optking {
	frozen_dihedral = ("
		11 7 4 3
	")
}

ee,wfn = optimize('scf', return_wfn=True)
oeprop( wfn, 'DIPOLE', 'QUADRUPOLE', 'MULLIKEN_CHARGES')
f=open( 'psi4out.xyz', 'w' )
f.write( "24  " )
f.write( str(ee) + "\n" )
f.write( MOL.save_string_xyz() )
f.close()
--------------------------------------------------------------------------

    Molecular point group: c1
  Charge       = 0
  Multiplicity = 1
  Basis Set: CC-PVTZ
  Basis Set:
  @DF-RHF Final Energy:  -349.37554110122176
    Total Energy =                       -349.3755411012218701
    Molecular point group: c1
  Basis Set: CC-PVTZ
  Basis Set:
  Basis Set: CC-PVTZ
  Basis Set:
  @DF-RHF Final Energy:  -349.37579990270899
    Total Energy =                       -349.3757999027088772
  Basis Set: CC-PVTZ
  Basis Set:
  Basis Set: CC-PVTZ
  Basis Set:
  @DF-RHF Final Energy:  -349.37590380757047
    Total Energy =                       -349.3759038075704666
  Basis Set: CC-PVTZ
  Basis Set:
  Basis Set: CC-PVTZ
  Basis Set:
  @DF-RHF Final Energy:  -349.37590580068331
    Total Energy =                       -349.3759058006835403
  Basis Set: CC-PVTZ
  Basis Set:
  Charge       = 0
  Multiplicity = 1
  Basis Set: CC-PVTZ
  Basis Set:

    Orbital Energies (a.u.)
    -----------------------

    Doubly Occupied:

       1A    -20.547311     2A    -11.265896     3A    -11.214823
       4A    -11.211006     5A    -11.209751     6A    -11.208465
       7A    -11.207780     8A    -11.203859     9A     -1.364857
      10A     -1.087714    11A     -1.047273    12A     -0.986141
      13A     -0.915034    14A     -0.851345    15A     -0.801300
      16A     -0.775652    17A     -0.682959    18A     -0.649873
      19A     -0.631816    20A     -0.616378    21A     -0.600929
      22A     -0.579380    23A     -0.558024    24A     -0.533026
      25A     -0.528822    26A     -0.510572    27A     -0.492280
      28A     -0.480628    29A     -0.467105    30A     -0.458522
      31A     -0.452581    32A     -0.444480    33A     -0.422712

  @DF-RHF Final Energy:  -349.37590645834638

   => Energetics <=

    Nuclear Repulsion Energy =            391.5390887839492393
    One-Electron Energy =               -1249.8134011319950787
    Two-Electron Energy =                 508.8984058896996316
    DFT Exchange-Correlation Energy =       0.0000000000000000
    Empirical Dispersion Energy =           0.0000000000000000
    PCM Polarization Energy =               0.0000000000000000
    EFP Energy =                            0.0000000000000000
    Total Energy =                       -349.3759064583462646
    Molecular point group: c1
  Basis Set: CC-PVTZ
  Basis Set:

  -Total Gradient:
     Atom            X                  Y                   Z
    ------   -----------------  -----------------  -----------------
       1       -0.000001925529     0.000005061558    -0.000018919676
       2        0.000001597133     0.000020790660    -0.000046510719
       3       -0.000019574694    -0.000638115635     0.000574301935
       4       -0.000010257109     0.001044631909    -0.000934756082
       5        0.000025924897     0.000007900765     0.000007995428
       6       -0.000004206085    -0.000009371077     0.000019233754
       7        0.000139614718    -0.001212186160     0.001217743760
       8       -0.000005743132    -0.000000114850    -0.000011006345
       9        0.000007151458    -0.000003029191     0.000002144688
      10       -0.000024443892    -0.000011360957     0.000018158248
      11       -0.000121076872     0.000784290798    -0.000817266690
      12       -0.000007794199     0.000012148356     0.000003849862
      13       -0.000005786459    -0.000000202228    -0.000004666247
      14        0.000001322935    -0.000011698195     0.000014249953
      15       -0.000004528847     0.000006064946     0.000000083656
      16        0.000010203319     0.000002228411     0.000003395313
      17       -0.000000773014     0.000003007402    -0.000000142338
      18        0.000004218708    -0.000004190109    -0.000010435360
      19        0.000001880929    -0.000000054393    -0.000006782829
      20        0.000008981126     0.000005621486    -0.000000984086
      21       -0.000003179138     0.000001422333     0.000000356543
      22       -0.000003519653    -0.000000258613    -0.000002569811
      23        0.000000240193    -0.000003944263     0.000000694740
      24        0.000011673204     0.000001357045    -0.000008167700

  **** Optimization is complete! (in 5 steps) ****
    Final optimized geometry and variables:
    Molecular point group: c1

    Geometry (in Angstrom), charge = 0, multiplicity = 1:

    H           -2.841082215824     0.869858573458    -0.001634462409
    O           -2.861208463388    -0.065259595559     0.091885352079
    C           -2.613858819777    -0.416426854636     1.428362262545
    C           -1.204610734982    -0.074962845644     1.887014876582
    H           -2.772088464147    -1.485658520934     1.486423467721
    H           -3.341651578429     0.054346711809     2.084703163543
    C           -0.096556973690    -0.768876305432     1.071435742134
    H           -1.073682006243     1.004173557473     1.852324450429
    H           -1.129200585162    -0.349012850541     2.934934462284
    C            0.721519617069     0.187959324871     0.205440870987
    H           -0.543151670448    -1.516821537725     0.425080989770
    H            0.574196963576    -1.297087731367     1.741013219498
    C            1.801280856232    -0.521575326752    -0.608140580626
    H            0.046980055187     0.720241594076    -0.456659808418
    H            1.187766581844     0.937927349286     0.841322003095
    C            2.703659090634     0.404541634835    -1.425660221578
    H            1.332024851285    -1.242105603913    -1.273936721353
    H            2.424915463277    -1.097927628558     0.070172796137
    C            1.997661320915     1.146585529348    -2.557973708297
    H            3.509824765766    -0.187329482354    -1.848327552811
    H            3.174275897531     1.124789290139    -0.761336043413
    H            1.509589221627     0.451728241139    -3.233782225990
    H            2.706256969301     1.727487711795    -3.137439205475
    H            1.243660792812     1.830182061341    -2.186851999017

  Mulliken Charges: (a.u.)
   Center  Symbol    Alpha    Beta     Spin     Total
       1     H     0.39434  0.39434  0.00000  0.21132
       2     O     4.20444  4.20444  0.00000 -0.40888
       3     C     2.97697  2.97697  0.00000  0.04607
       4     C     3.11189  3.11189  0.00000 -0.22378
       5     H     0.45823  0.45823  0.00000  0.08353
       6     H     0.46014  0.46014  0.00000  0.07971
       7     C     3.08892  3.08892  0.00000 -0.17783
       8     H     0.45707  0.45707  0.00000  0.08587
       9     H     0.44698  0.44698  0.00000  0.10604
      10     C     3.08961  3.08961  0.00000 -0.17922
      11     H     0.45108  0.45108  0.00000  0.09783
      12     H     0.44744  0.44744  0.00000  0.10512
      13     C     3.09664  3.09664  0.00000 -0.19327
      14     H     0.45452  0.45452  0.00000  0.09097
      15     H     0.45603  0.45603  0.00000  0.08794
      16     C     3.09007  3.09007  0.00000 -0.18014
      17     H     0.45224  0.45224  0.00000  0.09552
      18     H     0.45089  0.45089  0.00000  0.09821
      19     C     3.15178  3.15178  0.00000 -0.30356
      20     H     0.44893  0.44893  0.00000  0.10215
      21     H     0.45569  0.45569  0.00000  0.08863
      22     H     0.45386  0.45386  0.00000  0.09229
      23     H     0.44705  0.44705  0.00000  0.10590
      24     H     0.45521  0.45521  0.00000  0.08959

   Total alpha = 33.00000, Total beta = 33.00000, Total charge = -0.00000

*** Psi4 exiting successfully. Buy a developer a beer!
