  ==> Input File <==

--------------------------------------------------------------------------
set {
	reference rhf
	basis cc-pvtz
}

set_num_threads( 4 )
memory 2 gb

molecule MOL {
0 1

H	 -1.988110	 -0.474702	 0.945985
O	 -2.041679	 -0.058866	 0.103463
C	 -0.959304	 0.780994	 -0.094939
C	 0.354905	 0.037902	 -0.006215
H	 -0.985899	 1.279578	 -1.057596
H	 -0.969809	 1.529522	 0.682889
F	 0.412060	 -0.931028	 -0.902708
F	 1.359641	 0.856111	 -0.239961
F	 0.545380	 -0.506387	 1.171682

	symmetry c1
}
set optking {
	frozen_dihedral = ("
		1 2 3 5
	")
}

ee = optimize('scf')
oeprop('DIPOLE', 'QUADRUPOLE', 'MULLIKEN_CHARGES')
f=open( 'psi4out.xyz', 'w' )
f.write( "9  " )
f.write( str(ee) + "\n" )
f.write( MOL.save_string_xyz() )
f.close()
--------------------------------------------------------------------------

    Molecular point group: c1
  Charge       = 0
  Multiplicity = 1
  Basis Set: CC-PVTZ
  Basis Set:
  @DF-RHF Final Energy:  -450.84510281926805
    Total Energy =                       -450.8451028192682202
    Molecular point group: c1
  Basis Set: CC-PVTZ
  Basis Set:
  Basis Set: CC-PVTZ
  Basis Set:
  @DF-RHF Final Energy:  -450.84685283927490
    Total Energy =                       -450.8468528392750727
  Basis Set: CC-PVTZ
  Basis Set:
  Basis Set: CC-PVTZ
  Basis Set:
  @DF-RHF Final Energy:  -450.84719051473218
    Total Energy =                       -450.8471905147322900
  Basis Set: CC-PVTZ
  Basis Set:
  Basis Set: CC-PVTZ
  Basis Set:
  @DF-RHF Final Energy:  -450.84720137708376
    Total Energy =                       -450.8472013770838203
  Basis Set: CC-PVTZ
  Basis Set:
  Charge       = 0
  Multiplicity = 1
  Basis Set: CC-PVTZ
  Basis Set:

    Orbital Energies (a.u.)
    -----------------------

    Doubly Occupied:

       1A    -26.341013     2A    -26.340390     3A    -26.336509
       4A    -20.583616     5A    -11.494688     6A    -11.310052
       7A     -1.748834     8A     -1.646069     9A     -1.643736
      10A     -1.407240    11A     -1.050896    12A     -0.930549
      13A     -0.838860    14A     -0.837172    15A     -0.813449
      16A     -0.731021    17A     -0.719871    18A     -0.702832
      19A     -0.672654    20A     -0.666982    21A     -0.650304
      22A     -0.633125    23A     -0.621866    24A     -0.533560
      25A     -0.484630

  @DF-RHF Final Energy:  -450.84720318784690

   => Energetics <=

    Nuclear Repulsion Energy =            277.8053263717443429
    One-Electron Energy =               -1177.8252216378009507
    Two-Electron Energy =                 449.1726920782099342
    DFT Exchange-Correlation Energy =       0.0000000000000000
    Empirical Dispersion Energy =           0.0000000000000000
    PCM Polarization Energy =               0.0000000000000000
    EFP Energy =                            0.0000000000000000
    Total Energy =                       -450.8472031878467305
    Molecular point group: c1
  Basis Set: CC-PVTZ
  Basis Set:

  -Total Gradient:
     Atom            X                  Y                   Z
    ------   -----------------  -----------------  -----------------
       1        0.000432830671    -0.000532909578    -0.000330681121
       2       -0.000357254354     0.000613292548     0.000299290748
       3       -0.000436951519     0.000446087072     0.000290428201
       4       -0.000074047507    -0.000035989885     0.000179779976
       5        0.000338763752    -0.000508961155    -0.000258262286
       6        0.000011383218    -0.000042937923    -0.000008013353
       7        0.000048434482     0.000061622657     0.000056399833
       8        0.000102477382     0.000020603928    -0.000118418638
       9       -0.000065636126    -0.000020807670    -0.000110523353

  **** Optimization is complete! (in 5 steps) ****
    Final optimized geometry and variables:
    Molecular point group: c1

    Geometry (in Angstrom), charge = 0, multiplicity = 1:

    H           -2.000935178046    -0.454129828717     0.958015360474
    O           -2.042601077752    -0.063958658362     0.102442451275
    C           -0.962688751615     0.777366407146    -0.102220618501
    C            0.353128937994     0.034531757898    -0.038338154096
    H           -1.052329258338     1.200065460372    -1.091494161769
    H           -0.916057534326     1.583591246372     0.621566440357
    F            0.455824351989    -0.886194897276    -0.966854726082
    F            1.359357948660     0.870163647745    -0.186035669538
    F            0.500082257521    -0.566518771694     1.129532646779

  Mulliken Charges: (a.u.)
   Center  Symbol    Alpha    Beta     Spin     Total
       1     H     0.38656  0.38656  0.00000  0.22688
       2     O     4.19260  4.19260  0.00000 -0.38520
       3     C     2.98825  2.98825  0.00000  0.02349
       4     C     2.68507  2.68507  0.00000  0.62986
       5     H     0.44811  0.44811  0.00000  0.10379
       6     H     0.46249  0.46249  0.00000  0.07503
       7     F     4.60745  4.60745  0.00000 -0.21489
       8     F     4.61165  4.61165  0.00000 -0.22330
       9     F     4.61783  4.61783  0.00000 -0.23565

   Total alpha = 25.00000, Total beta = 25.00000, Total charge = -0.00000
