                              Psi4 1.0.54 Driver

  ==> Input File <==

--------------------------------------------------------------------------
set {
	reference rhf
	basis cc-pvtz
}

set_num_threads( 4 )
memory 2 gb

molecule MOL {
0 1

O	 2.868453	 1.353349	 -0.000734
C	 2.841259	 0.166180	 -0.000295
C	 1.542794	 -0.614730	 -0.000853
C	 4.113372	 -0.651103	 0.000743
C	 0.288398	 0.247429	 0.000314
H	 1.557171	 -1.273139	 -0.866508
H	 1.557484	 -1.274998	 0.863344
C	 -0.138577	 0.660000	 1.406226
H	 -0.515598	 -0.294102	 -0.484917
H	 0.462630	 1.129316	 -0.605533
C	 -1.395622	 1.524833	 1.421400
H	 -0.309197	 -0.229418	 2.008804
H	 0.673311	 1.200833	 1.887474
C	 -1.829349	 1.941275	 2.823967
H	 -2.207815	 0.984971	 0.940771
H	 -1.225790	 2.414532	 0.819969
C	 -3.086127	 2.805133	 2.830972
H	 -2.000480	 1.052568	 3.425509
H	 -1.018574	 2.482086	 3.304681
H	 -3.924970	 2.278966	 2.387653
H	 -3.366615	 3.082952	 3.840508
H	 -2.935732	 3.719146	 2.266166
H	 4.145311	 -1.294584	 -0.871587
H	 4.970080	 0.004978	 -0.000091
H	 4.145223	 -1.291980	 0.874988

	symmetry c1
}
set optking {
	frozen_dihedral = ("
		9 5 3 6
	")
}

ee,wfn = optimize('scf', return_wfn=True)
oeprop( wfn, 'DIPOLE', 'QUADRUPOLE', 'MULLIKEN_CHARGES')
f=open( 'psi4out.xyz', 'w' )
f.write( "25  " )
f.write( str(ee) + "\n" )
f.write( MOL.save_string_xyz() )
f.close()
--------------------------------------------------------------------------

    Molecular point group: c1
  Charge       = 0
  Multiplicity = 1
  Basis Set: CC-PVTZ
  Basis Set:
  @DF-RHF Final Energy:  -387.27302493757452
    Total Energy =                       -387.2730249375745188
    Molecular point group: c1
  Basis Set: CC-PVTZ
  Basis Set:
  Basis Set: CC-PVTZ
  Basis Set:
  @DF-RHF Final Energy:  -387.27318082675635
    Total Energy =                       -387.2731808267567430
  Basis Set: CC-PVTZ
  Basis Set:
  Basis Set: CC-PVTZ
  Basis Set:
  @DF-RHF Final Energy:  -387.27304216379122
    Total Energy =                       -387.2730421637908194
  Basis Set: CC-PVTZ
  Basis Set:
  Basis Set: CC-PVTZ
  Basis Set:
  @DF-RHF Final Energy:  -387.27322129804901
    Total Energy =                       -387.2732212980490658
  Basis Set: CC-PVTZ
  Basis Set:
  @DF-RHF Final Energy:  -387.27322448296854
    Total Energy =                       -387.2732244829691126
  @DF-RHF Final Energy:  -387.27322593615452
    Total Energy =                       -387.2732259361544038
  @DF-RHF Final Energy:  -387.27322731158097
    Total Energy =                       -387.2732273115808539
  Basis Set: CC-PVTZ
  Basis Set:
  @DF-RHF Final Energy:  -387.27323108797816
    Total Energy =                       -387.2732310879782744
  Basis Set: CC-PVTZ
  Basis Set:
  Basis Set: CC-PVTZ
  Basis Set:
  @DF-RHF Final Energy:  -387.27323175051720
    Total Energy =                       -387.2732317505173114
  Basis Set: CC-PVTZ
  Basis Set:
  Basis Set: CC-PVTZ
  Basis Set:
  @DF-RHF Final Energy:  -387.27323304689156
    Total Energy =                       -387.2732330468919599
  Basis Set: CC-PVTZ
  Basis Set:
  Charge       = 0
  Multiplicity = 1
  Basis Set: CC-PVTZ
  Basis Set:

    Orbital Energies (a.u.)
    -----------------------

    Doubly Occupied:

       1A    -20.539900     2A    -11.321797     3A    -11.230380
       4A    -11.227162     5A    -11.214481     6A    -11.210354
       7A    -11.210204     8A    -11.208196     9A    -11.203978
      10A     -1.400111    11A     -1.092367    12A     -1.055934
      13A     -1.014882    14A     -0.968402    15A     -0.889847
      16A     -0.815554    17A     -0.788485    18A     -0.730146
      19A     -0.670429    20A     -0.639241    21A     -0.633917
      22A     -0.625172    23A     -0.591968    24A     -0.585393
      25A     -0.575084    26A     -0.557610    27A     -0.533854
      28A     -0.526222    29A     -0.516227    30A     -0.500337
      31A     -0.482694    32A     -0.474257    33A     -0.460992
      34A     -0.459384    35A     -0.442184    36A     -0.404068

  @DF-RHF Final Energy:  -387.27323351550262

   => Energetics <=

    Nuclear Repulsion Energy =            446.8410197263146983
    One-Electron Energy =               -1410.6260762495701329
    Two-Electron Energy =                 576.5118230077526960
    DFT Exchange-Correlation Energy =       0.0000000000000000
    Empirical Dispersion Energy =           0.0000000000000000
    PCM Polarization Energy =               0.0000000000000000
    EFP Energy =                            0.0000000000000000
    Total Energy =                       -387.2732335155027386
    Molecular point group: c1
  Basis Set: CC-PVTZ
  Basis Set:

  -Total Gradient:
     Atom            X                  Y                   Z
    ------   -----------------  -----------------  -----------------
       1        0.000013189626    -0.000006633671    -0.000019723384
       2        0.000034591648    -0.000005504040     0.000001495488
       3        0.001754428739     0.002832707799    -0.002386442587
       4       -0.000035389992     0.000060289070     0.000020938030
       5       -0.001122796243    -0.001961846402     0.003375985859
       6       -0.001245852783    -0.002043196093     0.001464679177
       7       -0.000021006501     0.000001373657    -0.000028967180
       8       -0.000043436962     0.000017634949    -0.000000311808
       9        0.000625583165     0.001175304056    -0.002420689700
      10        0.000005690332    -0.000014499271     0.000002820503
      11        0.000015619900    -0.000002343817     0.000021636342
      12       -0.000002553070    -0.000008112210    -0.000000563161
      13        0.000004174369     0.000000036231    -0.000005502313
      14        0.000005445196    -0.000003642873    -0.000011135326
      15       -0.000006205435    -0.000000268742    -0.000002365638
      16       -0.000001932242     0.000001950365    -0.000002546169
      17       -0.000003062292     0.000002025871     0.000001882742
      18       -0.000000325098    -0.000000245553     0.000001363806
      19       -0.000000003695     0.000000181636     0.000001118337
      20        0.000000278914    -0.000000493795     0.000000993473
      21       -0.000000998027    -0.000000199418    -0.000000426340
      22        0.000001182904     0.000000769917    -0.000000628539
      23        0.000002012866    -0.000015832688    -0.000012115323
      24        0.000008753039    -0.000009981873    -0.000001179326
      25        0.000012611646    -0.000019473108    -0.000000316962

  **** Optimization is complete! (in 11 steps) ****
    Final optimized geometry and variables:
    Molecular point group: c1

    Geometry (in Angstrom), charge = 0, multiplicity = 1:

    O            2.273186159085     0.529206114430    -1.052939486342
    C            2.240567483628    -0.657504406719    -1.027138566132
    C            0.940920090270    -1.438911178125    -1.022507437761
    C            3.509629546570    -1.478605546981    -0.996433514442
    C           -0.326970198700    -0.591120858895    -0.945711298060
    H            0.934145715739    -2.069249569334    -1.907714309503
    H            0.985411167976    -2.139636947543    -0.191515329257
    C           -0.716854799497    -0.199371120542     0.476561700188
    H           -1.140016372376    -1.131638785534    -1.420102631965
    H           -0.177806870484     0.305459115282    -1.534731656929
    C           -1.957201144964     0.686657735919     0.534692946296
    H           -0.891226650094    -1.099517472240     1.062452986491
    H            0.115295974464     0.318848041034     0.943488213897
    C           -2.358565280879     1.075018132325     1.954811664643
    H           -2.788796313425     0.174704062663     0.055288521237
    H           -1.778947819997     1.588073071627    -0.045950924630
    C           -3.596722288810     1.963911575769     2.005989732792
    H           -2.537997654111     0.174726077476     2.536580637934
    H           -1.528426162535     1.586567967510     2.433926647258
    H           -4.454119825876     1.466880883423     1.564144006920
    H           -3.854191342966     2.221201010155     3.027096124146
    H           -3.436477260739     2.888993010206     1.462354478322
    H            3.505134733072    -2.218481363945    -1.788748003556
    H            4.367229424662    -0.832216380499    -1.102215737875
    H            3.574983061825    -2.014112501464    -0.055289403607

  Mulliken Charges: (a.u.)
   Center  Symbol    Alpha    Beta     Spin     Total
       1     O     4.17268  4.17268  0.00000 -0.34535
       2     C     2.85974  2.85974  0.00000  0.28053
       3     C     3.12350  3.12350  0.00000 -0.24700
       4     C     3.15034  3.15034  0.00000 -0.30068
       5     C     3.09571  3.09571  0.00000 -0.19142
       6     H     0.43395  0.43395  0.00000  0.13210
       7     H     0.44543  0.44543  0.00000  0.10914
       8     C     3.08664  3.08664  0.00000 -0.17329
       9     H     0.44647  0.44647  0.00000  0.10705
      10     H     0.44324  0.44324  0.00000  0.11352
      11     C     3.08889  3.08889  0.00000 -0.17777
      12     H     0.45814  0.45814  0.00000  0.08372
      13     H     0.44839  0.44839  0.00000  0.10323
      14     C     3.08375  3.08375  0.00000 -0.16750
      15     H     0.45661  0.45661  0.00000  0.08679
      16     H     0.45145  0.45145  0.00000  0.09709
      17     C     3.15056  3.15056  0.00000 -0.30113
      18     H     0.45618  0.45618  0.00000  0.08764
      19     H     0.45352  0.45352  0.00000  0.09295
      20     H     0.45592  0.45592  0.00000  0.08817
      21     H     0.44884  0.44884  0.00000  0.10232
      22     H     0.45440  0.45440  0.00000  0.09120
      23     H     0.45081  0.45081  0.00000  0.09838
      24     H     0.43541  0.43541  0.00000  0.12919
      25     H     0.44944  0.44944  0.00000  0.10113

   Total alpha = 36.00000, Total beta = 36.00000, Total charge =  0.00000

*** Psi4 exiting successfully. Buy a developer a beer!
