                              Psi4 1.0.54 Driver

  ==> Input File <==

--------------------------------------------------------------------------
set {
	reference rhf
	basis cc-pvtz
}

set_num_threads( 4 )
memory 2 gb

molecule MOL {
0 1

H	 3.273419	 0.176595	 -0.102789
N	 2.433987	 -0.362316	 -0.080024
C	 1.263552	 0.494993	 0.021953
H	 2.497638	 -0.973615	 0.707122
C	 -0.016533	 -0.325589	 -0.026925
H	 1.280915	 1.180773	 -0.818522
H	 1.263064	 1.106893	 0.925038
C	 -1.280353	 0.525521	 0.047747
H	 -0.016686	 -0.912532	 -0.939714
H	 -0.014099	 -1.037598	 0.796369
C	 -2.489456	 -0.245926	 0.566332
H	 -1.504506	 0.922381	 -0.938774
H	 -1.101723	 1.385237	 0.687946
H	 -2.715122	 -1.093593	 -0.071841
H	 -3.370871	 0.383861	 0.604081
H	 -2.311322	 -0.625733	 1.566930

	symmetry c1
}
set optking {
	frozen_dihedral = ("
		12 8 5 9
	")
}

ee,wfn = optimize('scf', return_wfn=True)
oeprop( wfn, 'DIPOLE', 'QUADRUPOLE', 'MULLIKEN_CHARGES')
f=open( 'psi4out.xyz', 'w' )
f.write( "16  " )
f.write( str(ee) + "\n" )
f.write( MOL.save_string_xyz() )
f.close()
--------------------------------------------------------------------------

    Molecular point group: c1
  Charge       = 0
  Multiplicity = 1
  Basis Set: CC-PVTZ
  Basis Set:
  @DF-RHF Final Energy:  -212.39851697679381
    Total Energy =                       -212.3985169767937009
    Molecular point group: c1
  Basis Set: CC-PVTZ
  Basis Set:
  Basis Set: CC-PVTZ
  Basis Set:
  @DF-RHF Final Energy:  -212.39870958751007
    Total Energy =                       -212.3987095875099271
  Basis Set: CC-PVTZ
  Basis Set:
  Basis Set: CC-PVTZ
  Basis Set:
  @DF-RHF Final Energy:  -212.39876157856537
    Total Energy =                       -212.3987615785654839
  Basis Set: CC-PVTZ
  Basis Set:
  Charge       = 0
  Multiplicity = 1
  Basis Set: CC-PVTZ
  Basis Set:

    Orbital Energies (a.u.)
    -----------------------

    Doubly Occupied:

       1A    -15.526484     2A    -11.238026     3A    -11.212969
       4A    -11.207902     5A    -11.205933     6A     -1.178211
       7A     -1.060087     8A     -0.959718     9A     -0.843722
      10A     -0.792296    11A     -0.664278    12A     -0.641236
      13A     -0.600573    14A     -0.583434    15A     -0.565701
      16A     -0.519800    17A     -0.505922    18A     -0.469210
      19A     -0.464958    20A     -0.460908    21A     -0.384072

  @DF-RHF Final Energy:  -212.39876249701621

   => Energetics <=

    Nuclear Repulsion Energy =            186.5666193245214686
    One-Electron Energy =                -655.7598707184752129
    Two-Electron Energy =                 256.7944888969376507
    DFT Exchange-Correlation Energy =       0.0000000000000000
    Empirical Dispersion Energy =           0.0000000000000000
    PCM Polarization Energy =               0.0000000000000000
    EFP Energy =                            0.0000000000000000
    Total Energy =                       -212.3987624970160937
    Molecular point group: c1
  Basis Set: CC-PVTZ
  Basis Set:

  -Total Gradient:
     Atom            X                  Y                   Z
    ------   -----------------  -----------------  -----------------
       1        0.000045597577    -0.000008672674     0.000005711436
       2        0.000100730187    -0.000040620505     0.000017115289
       3       -0.000099697922    -0.000031674133    -0.000057092596
       4        0.000029966340    -0.000004909903     0.000003148766
       5       -0.002649534338    -0.003898878079     0.001987960233
       6       -0.000014666155     0.000006542646     0.000022907274
       7       -0.000005999484     0.000004483825    -0.000013672027
       8        0.002872645450     0.004165502473     0.000468634545
       9        0.001753293858     0.002658840447    -0.001746761085
      10        0.000009209338     0.000026941601    -0.000006396095
      11       -0.000033139623     0.000033308665     0.000007283796
      12       -0.001996836394    -0.002897432703    -0.000682910653
      13       -0.000009083182    -0.000010382579     0.000006879313
      14        0.000005611046     0.000021552555     0.000024800194
      15        0.000006502953    -0.000037540299     0.000005690443
      16       -0.000014599653     0.000012938664    -0.000043298833

  **** Optimization is complete! (in 4 steps) ****
    Final optimized geometry and variables:
    Molecular point group: c1

    Geometry (in Angstrom), charge = 0, multiplicity = 1:

    H            3.257454210268     0.163313164118    -0.300736899499
    N            2.419584333710    -0.376669057822    -0.254643443807
    C            1.253158238380     0.477121188319    -0.095265768586
    H            2.513571367717    -0.999890441407     0.520139639722
    C           -0.029107365157    -0.344772861488    -0.097367847574
    H            1.233294208549     1.171529028047    -0.928998223988
    H            1.289510987780     1.080319077084     0.812827937970
    C           -1.289215394277     0.521090528700    -0.042805943120
    H           -0.029141734212    -0.942909127870    -1.001924532634
    H           -0.012213673847    -1.030809832669     0.746055710167
    C           -2.517447544427    -0.246529201022     0.439865887985
    H           -1.499154234938     0.904401728762    -1.036684986249
    H           -1.126098138840     1.378152961340     0.603631968566
    H           -2.709506047640    -1.109576199294    -0.189106971335
    H           -3.403628335456     0.377649792378     0.423592583666
    H           -2.381921425601    -0.603611871852     1.455239701066

  Mulliken Charges: (a.u.)
   Center  Symbol    Alpha    Beta     Spin     Total
       1     H     0.43015  0.43015  0.00000  0.13971
       2     N     3.68979  3.68979  0.00000 -0.37958
       3     C     3.02458  3.02458  0.00000 -0.04915
       4     H     0.43100  0.43100  0.00000  0.13800
       5     C     3.08173  3.08173  0.00000 -0.16346
       6     H     0.45728  0.45728  0.00000  0.08545
       7     H     0.46902  0.46902  0.00000  0.06197
       8     C     3.08899  3.08899  0.00000 -0.17797
       9     H     0.44854  0.44854  0.00000  0.10292
      10     H     0.46084  0.46084  0.00000  0.07831
      11     C     3.14893  3.14893  0.00000 -0.29785
      12     H     0.45279  0.45279  0.00000  0.09442
      13     H     0.45699  0.45699  0.00000  0.08602
      14     H     0.45398  0.45398  0.00000  0.09205
      15     H     0.44926  0.44926  0.00000  0.10148
      16     H     0.45615  0.45615  0.00000  0.08770

   Total alpha = 21.00000, Total beta = 21.00000, Total charge =  0.00000

*** Psi4 exiting successfully. Buy a developer a beer!
