  ==> Input File <==

--------------------------------------------------------------------------
set {
	reference rhf
	basis 6-31G*
}

set_num_threads( 1 )
memory 2 gb

molecule MOL {
0 1

H	 0.520913	 -3.355335	 -0.750069
O	 0.895837	 -2.618051	 -0.278264
C	 0.102382	 -1.563045	 -0.462125
C	 0.624473	 -0.343591	 0.253101
O	 -0.886133	 -1.623171	 -1.118051
C	 -0.265902	 0.883932	 0.072916
H	 0.740303	 -0.614115	 1.297502
H	 1.628992	 -0.158063	 -0.118751
C	 -1.728698	 0.646073	 0.462102
H	 -0.209144	 1.219470	 -0.958188
H	 0.135059	 1.692851	 0.673903
C	 -2.482460	 -0.343073	 -0.431425
H	 -2.245265	 1.602650	 0.432430
H	 -1.779332	 0.308348	 1.496285
C	 -3.960546	 -0.461025	 -0.060175
H	 -2.395034	 -0.026811	 -1.468912
H	 -2.024850	 -1.327147	 -0.371646
H	 -4.472726	 -1.168004	 -0.705284
H	 -4.465146	 0.496508	 -0.151489
H	 -4.081218	 -0.800940	 0.964585

	symmetry c1
}
set optking {
	frozen_dihedral = ("
		16 12 9 6,
		12 9 6 10,
		5 3 4 7,
		1 2 3 5
	")
}

ee = energy('scf')
oeprop('DIPOLE', 'QUADRUPOLE', 'MULLIKEN_CHARGES')
f=open( 'psi4out.xyz', 'w' )
f.write( "20  " )
f.write( str(ee) + "\n" )
f.write( MOL.save_string_xyz() )
f.close()
--------------------------------------------------------------------------

    Molecular point group: c1

    Geometry (in Angstrom), charge = 0, multiplicity = 1:

       Center              X                  Y                   Z               Mass
    ------------   -----------------  -----------------  -----------------  -----------------
           H          1.478559369455    -2.630392822792    -0.543509631949     1.007825032070
           O          1.853483369455    -1.893108822792    -0.071704631949    15.994914619560
           C          1.060028369455    -0.838102822792    -0.255565631949    12.000000000000
           C          1.582119369455     0.381351177208     0.459660368051    12.000000000000
           O          0.071513369455    -0.898228822792    -0.911491631949    15.994914619560
           C          0.691744369455     1.608874177208     0.279475368051    12.000000000000
           H          1.697949369455     0.110827177208     1.504061368051     1.007825032070
           H          2.586638369455     0.566879177208     0.087808368051     1.007825032070
           C         -0.771051630545     1.371015177208     0.668661368051    12.000000000000
           H          0.748502369455     1.944412177208    -0.751628631949     1.007825032070
           H          1.092705369455     2.417793177208     0.880462368051     1.007825032070
           C         -1.524813630545     0.381869177208    -0.224865631949    12.000000000000
           H         -1.287618630545     2.327592177208     0.638989368051     1.007825032070
           H         -0.821685630545     1.033290177208     1.702844368051     1.007825032070
           C         -3.002899630545     0.263917177208     0.146384368051    12.000000000000
           H         -1.437387630545     0.698131177208    -1.262352631949     1.007825032070
           H         -1.067203630545    -0.602204822792    -0.165086631949     1.007825032070
           H         -3.515079630545    -0.443061822792    -0.498724631949     1.007825032070
           H         -3.507499630545     1.221450177208     0.055070368051     1.007825032070
           H         -3.123571630545    -0.075997822792     1.171144368051     1.007825032070

  Charge       = 0
  Multiplicity = 1
  Basis Set: 6-31G*
  Basis Set:

    Orbital Energies (a.u.)
    -----------------------

    Doubly Occupied:

       1A    -20.619645     2A    -20.557814     3A    -11.389189
       4A    -11.245935     5A    -11.225081     6A    -11.206199
       7A    -11.182184     8A    -11.165809     9A     -1.489382
      10A     -1.387978    11A     -1.090741    12A     -1.029305
      13A     -0.948117    14A     -0.862618    15A     -0.836116
      16A     -0.769544    17A     -0.718257    18A     -0.695367
      19A     -0.680160    20A     -0.616107    21A     -0.603324
      22A     -0.593101    23A     -0.569830    24A     -0.540024
      25A     -0.538737    26A     -0.519262    27A     -0.499463
      28A     -0.484680    29A     -0.472051    30A     -0.440190
      31A     -0.433704    32A     -0.365045

  @DF-RHF Final Energy:  -383.85835089586237

   => Energetics <=

    Nuclear Repulsion Energy =            405.4329073426830519
    One-Electron Energy =               -1327.0325406092908906
    Two-Electron Energy =                 537.7412823707452389
    DFT Exchange-Correlation Energy =       0.0000000000000000
    Empirical Dispersion Energy =           0.0000000000000000
    PCM Polarization Energy =               0.0000000000000000
    EFP Energy =                            0.0000000000000000
    Total Energy =                       -383.8583508958625998

  Mulliken Charges: (a.u.)
   Center  Symbol    Alpha    Beta     Spin     Total
       1     H     0.26767  0.26767  0.00000  0.46467
       2     O     4.34907  4.34907  0.00000 -0.69814
       3     C     2.62129  2.62129  0.00000  0.75743
       4     C     3.21204  3.21204  0.00000 -0.42408
       5     O     4.27985  4.27985  0.00000 -0.55970
       6     C     3.15789  3.15789  0.00000 -0.31578
       7     H     0.39633  0.39633  0.00000  0.20735
       8     H     0.39437  0.39437  0.00000  0.21125
       9     C     3.16009  3.16009  0.00000 -0.32018
      10     H     0.41383  0.41383  0.00000  0.17233
      11     H     0.41436  0.41436  0.00000  0.17129
      12     C     3.14653  3.14653  0.00000 -0.29307
      13     H     0.42127  0.42127  0.00000  0.15746
      14     H     0.42848  0.42848  0.00000  0.14304
      15     C     3.23576  3.23576  0.00000 -0.47152
      16     H     0.42925  0.42925  0.00000  0.14150
      17     H     0.38125  0.38125  0.00000  0.23750
      18     H     0.42514  0.42514  0.00000  0.14972
      19     H     0.43354  0.43354  0.00000  0.13291
      20     H     0.43199  0.43199  0.00000  0.13602

   Total alpha = 32.00000, Total beta = 32.00000, Total charge =  0.00000
