  ==> Input File <==

--------------------------------------------------------------------------
set {
	reference rhf
	basis cc-pvtz
}

set_num_threads( 4 )
memory 2 gb

molecule MOL {
0 1

O	 0.118062	 1.193714	 -0.382436
C	 0.029490	 0.077183	 0.000078
C	 -1.232113	 -0.748027	 0.000015
O	 1.051469	 -0.605569	 0.488587
C	 -2.501422	 0.088592	 -0.000052
H	 -1.188777	 -1.400384	 -0.865133
H	 -1.188857	 -1.400312	 0.865225
H	 -2.548170	 0.725504	 -0.873205
H	 -3.371613	 -0.556398	 -0.000040
H	 -2.548215	 0.725571	 0.873047
C	 2.301849	 0.050779	 0.546880
H	 2.624863	 0.344039	 -0.440994
H	 2.992639	 -0.661323	 0.968241
H	 2.242705	 0.928467	 1.173308

	symmetry c1
}
set optking {
	frozen_dihedral = ("
		4 2 3 6
	")
}

ee = optimize('scf')
oeprop('DIPOLE', 'QUADRUPOLE', 'MULLIKEN_CHARGES')
f=open( 'psi4out.xyz', 'w' )
f.write( "14  " )
f.write( str(ee) + "\n" )
f.write( MOL.save_string_xyz() )
f.close()
--------------------------------------------------------------------------

    Molecular point group: c1
  Charge       = 0
  Multiplicity = 1
  Basis Set: CC-PVTZ
  Basis Set:
  @DF-RHF Final Energy:  -305.98707810036416
    Total Energy =                       -305.9870781003644424
    Molecular point group: c1
  Basis Set: CC-PVTZ
  Basis Set:
  Basis Set: CC-PVTZ
  Basis Set:
  @DF-RHF Final Energy:  -305.98711439937728
    Total Energy =                       -305.9871143993775036
  Basis Set: CC-PVTZ
  Basis Set:
  Basis Set: CC-PVTZ
  Basis Set:
  @DF-RHF Final Energy:  -305.98721757086275
    Total Energy =                       -305.9872175708628674
  Basis Set: CC-PVTZ
  Basis Set:
  Basis Set: CC-PVTZ
  Basis Set:
  @DF-RHF Final Energy:  -305.98726517391810
    Total Energy =                       -305.9872651739181038
  Basis Set: CC-PVTZ
  Basis Set:
  Basis Set: CC-PVTZ
  Basis Set:
  @DF-RHF Final Energy:  -305.98727527994072
    Total Energy =                       -305.9872752799408318
  Basis Set: CC-PVTZ
  Basis Set:
  Charge       = 0
  Multiplicity = 1
  Basis Set: CC-PVTZ
  Basis Set:

    Orbital Energies (a.u.)
    -----------------------

    Doubly Occupied:

       1A    -20.598042     2A    -20.534198     3A    -11.365280
       4A    -11.279196     5A    -11.237011     6A    -11.215755
       7A     -1.473346     8A     -1.366519     9A     -1.065302
      10A     -0.981316    11A     -0.879161    12A     -0.771765
      13A     -0.702502    14A     -0.685831    15A     -0.675584
      16A     -0.621587    17A     -0.603901    18A     -0.549784
      19A     -0.538762    20A     -0.520509    21A     -0.516052
      22A     -0.497306    23A     -0.461403    24A     -0.441977

  @DF-RHF Final Energy:  -305.98727554811455

   => Energetics <=

    Nuclear Repulsion Energy =            247.5660427574909761
    One-Electron Energy =                -907.9424577449426579
    Two-Electron Energy =                 354.3891394393372138
    DFT Exchange-Correlation Energy =       0.0000000000000000
    Empirical Dispersion Energy =           0.0000000000000000
    PCM Polarization Energy =               0.0000000000000000
    EFP Energy =                            0.0000000000000000
    Total Energy =                       -305.9872755481144395
    Molecular point group: c1
  Basis Set: CC-PVTZ
  Basis Set:

  -Total Gradient:
     Atom            X                  Y                   Z
    ------   -----------------  -----------------  -----------------
       1       -0.000021330143     0.000001613068     0.000001420766
       2        0.000139264834    -0.000156982938    -0.001132914666
       3        0.000487538861    -0.000751068299     0.000861272376
       4       -0.000174242229     0.000234818613     0.000837439502
       5        0.000020454538     0.000003251141     0.000009689918
       6       -0.000464947294     0.000688854310    -0.000521613313
       7        0.000012495157    -0.000000391668     0.000002422121
       8       -0.000001537178     0.000008494042    -0.000010366371
       9        0.000011154022    -0.000007946622     0.000000800437
      10        0.000005682864    -0.000004870181    -0.000000924661
      11       -0.000007884825    -0.000022767896    -0.000075084701
      12        0.000023122280     0.000009415153     0.000013359932
      13       -0.000007255447    -0.000001903708     0.000007375320
      14       -0.000022515439    -0.000000515019     0.000007123341

  **** Optimization is complete! (in 6 steps) ****
    Final optimized geometry and variables:
    Molecular point group: c1

    Geometry (in Angstrom), charge = 0, multiplicity = 1:

    O            0.119274230021     1.176357564308    -0.470553927641
    C            0.039312966924     0.058342578521    -0.089613614733
    C           -1.219195678396    -0.772433173508    -0.100713934390
    O            1.069392495460    -0.621238661398     0.384862285493
    C           -2.488213636638     0.066715935217    -0.142663191586
    H           -1.157721097513    -1.404050656028    -0.982173436238
    H           -1.202204830487    -1.434072942346     0.754811305529
    H           -2.495632019371     0.714533268457    -1.007743087944
    H           -3.358220957485    -0.576906964844    -0.185448396323
    H           -2.572529952591     0.690753224687     0.738339665824
    C            2.323743091252     0.030371445264     0.401058304639
    H            2.622178612398     0.308374288600    -0.598908113133
    H            3.022094644421    -0.679065194729     0.814342976980
    H            2.284015992820     0.916846719561     1.016298808449

  Mulliken Charges: (a.u.)
   Center  Symbol    Alpha    Beta     Spin     Total
       1     O     4.19810  4.19810  0.00000 -0.39621
       2     C     2.80482  2.80482  0.00000  0.39035
       3     C     3.09155  3.09155  0.00000 -0.18311
       4     O     4.14588  4.14588  0.00000 -0.29175
       5     C     3.14099  3.14099  0.00000 -0.28197
       6     H     0.44469  0.44469  0.00000  0.11063
       7     H     0.43873  0.43873  0.00000  0.12253
       8     H     0.44394  0.44394  0.00000  0.11211
       9     H     0.45019  0.45019  0.00000  0.09961
      10     H     0.45192  0.45192  0.00000  0.09615
      11     C     3.03521  3.03521  0.00000 -0.07043
      12     H     0.45450  0.45450  0.00000  0.09099
      13     H     0.44533  0.44533  0.00000  0.10935
      14     H     0.45413  0.45413  0.00000  0.09173

   Total alpha = 24.00000, Total beta = 24.00000, Total charge = -0.00000
