                              Psi4 1.0.54 Driver

  ==> Input File <==

--------------------------------------------------------------------------
set {
	reference rhf
	basis cc-pvtz
}

set_num_threads( 4 )
memory 2 gb

molecule MOL {
0 1

H	 -0.622757	 1.473554	 -2.356118
C	 0.042978	 1.785198	 -1.539715
C	 0.062554	 0.862911	 -0.350953
O	 0.680299	 2.775480	 -1.641287
C	 -1.339253	 0.577611	 0.196911
H	 0.705767	 1.291122	 0.406943
H	 0.512297	 -0.069113	 -0.685818
C	 -1.813142	 -0.849710	 -0.061612
H	 -2.032833	 1.276441	 -0.256032
H	 -1.357249	 0.782269	 1.263793
H	 -1.839268	 -1.063526	 -1.124230
H	 -2.810118	 -1.001930	 0.334000
H	 -1.159274	 -1.579980	 0.402282

	symmetry c1
}
set optking {
	frozen_dihedral = ("
		6 3 5 9
	")
}

ee,wfn = optimize('scf', return_wfn=True)
oeprop( wfn, 'DIPOLE', 'QUADRUPOLE', 'MULLIKEN_CHARGES')
f=open( 'psi4out.xyz', 'w' )
f.write( "13  " )
f.write( str(ee) + "\n" )
f.write( MOL.save_string_xyz() )
f.close()
--------------------------------------------------------------------------

    Molecular point group: c1
  Charge       = 0
  Multiplicity = 1
  Basis Set: CC-PVTZ
  Basis Set:
  @DF-RHF Final Energy:  -231.06606791940291
    Total Energy =                       -231.0660679194028262
    Molecular point group: c1
  Basis Set: CC-PVTZ
  Basis Set:
  Basis Set: CC-PVTZ
  Basis Set:
  @DF-RHF Final Energy:  -231.06573220649125
    Total Energy =                       -231.0657322064913046
  Basis Set: CC-PVTZ
  Basis Set:
  Basis Set: CC-PVTZ
  Basis Set:
  @DF-RHF Final Energy:  -231.06365047312630
    Total Energy =                       -231.0636504731263017
  Basis Set: CC-PVTZ
  Basis Set:
  Basis Set: CC-PVTZ
  Basis Set:
  @DF-RHF Final Energy:  -231.06639603888127
    Total Energy =                       -231.0663960388813791
  Basis Set: CC-PVTZ
  Basis Set:
  Basis Set: CC-PVTZ
  Basis Set:
  @DF-RHF Final Energy:  -231.06641810145086
    Total Energy =                       -231.0664181014507221
  Basis Set: CC-PVTZ
  Basis Set:
  Basis Set: CC-PVTZ
  Basis Set:
  @DF-RHF Final Energy:  -231.06642092031504
    Total Energy =                       -231.0664209203148403
  Basis Set: CC-PVTZ
  Basis Set:
  Basis Set: CC-PVTZ
  Basis Set:
  @DF-RHF Final Energy:  -231.06642305207328
    Total Energy =                       -231.0664230520734463
  Basis Set: CC-PVTZ
  Basis Set:
  Charge       = 0
  Multiplicity = 1
  Basis Set: CC-PVTZ
  Basis Set:

    Orbital Energies (a.u.)
    -----------------------

    Doubly Occupied:

       1A    -20.552008     2A    -11.322338     3A    -11.237432
       4A    -11.234653     5A    -11.223532     6A     -1.407336
       7A     -1.086526     8A     -0.977034     9A     -0.845856
      10A     -0.793950    11A     -0.675899    12A     -0.651977
      13A     -0.612985    14A     -0.591993    15A     -0.584835
      16A     -0.528869    17A     -0.507441    18A     -0.491716
      19A     -0.486870    20A     -0.413270

  @DF-RHF Final Energy:  -231.06642372342333

   => Energetics <=

    Nuclear Repulsion Energy =            171.1926919162301033
    One-Electron Energy =                -652.0651900090967956
    Two-Electron Energy =                 249.8060743694431949
    DFT Exchange-Correlation Energy =       0.0000000000000000
    Empirical Dispersion Energy =           0.0000000000000000
    PCM Polarization Energy =               0.0000000000000000
    EFP Energy =                            0.0000000000000000
    Total Energy =                       -231.0664237234234974
    Molecular point group: c1
  Basis Set: CC-PVTZ
  Basis Set:

  -Total Gradient:
     Atom            X                  Y                   Z
    ------   -----------------  -----------------  -----------------
       1       -0.000021371168    -0.000007595089    -0.000003674625
       2       -0.000027519442    -0.000049151719    -0.000025901100
       3       -0.000529117596     0.001316878522    -0.000683944489
       4        0.000045066926     0.000059249869     0.000009221861
       5        0.000332489625     0.000723375512     0.001333428642
       6        0.000412505611    -0.001207719075     0.000368393122
       7       -0.000008160525     0.000011314776    -0.000002859649
       8       -0.000001927615     0.000001861204    -0.000019589480
       9       -0.000199283052    -0.000866251525    -0.000975405483
      10        0.000004029023     0.000009418230     0.000004165674
      11       -0.000001712354    -0.000008070168    -0.000000581099
      12        0.000001397159    -0.000001670060     0.000000771359
      13       -0.000006396591     0.000018359522    -0.000004024730

  **** Optimization is complete! (in 8 steps) ****
    Final optimized geometry and variables:
    Molecular point group: c1

    Geometry (in Angstrom), charge = 0, multiplicity = 1:

    H           -0.244073762412     0.500912496938    -1.623487204743
    C            0.494583854934     0.770776941732    -0.856653616354
    C            0.533689234687    -0.140650677500     0.339304885391
    O            1.186417128342     1.716812824460    -1.008675706668
    C           -0.870932196929    -0.447437367089     0.901745687734
    H            1.184476033629     0.299427889418     1.081626360012
    H            1.007071023784    -1.062933380461     0.010873236708
    C           -1.330005833523    -1.881147877852     0.652428334249
    H           -1.597470032433     0.230481446523     0.463513986360
    H           -0.876934433081    -0.246644576242     1.965361466085
    H           -1.359068113580    -2.105811222329    -0.408726731792
    H           -2.322953281118    -2.047904021909     1.052790838180
    H           -0.657627669416    -2.591333906902     1.121162376836

  Mulliken Charges: (a.u.)
   Center  Symbol    Alpha    Beta     Spin     Total
       1     H     0.46617  0.46617  0.00000  0.06767
       2     C     2.90417  2.90417  0.00000  0.19165
       3     C     3.08602  3.08602  0.00000 -0.17204
       4     O     4.16387  4.16387  0.00000 -0.32774
       5     C     3.09955  3.09955  0.00000 -0.19909
       6     H     0.43725  0.43725  0.00000  0.12549
       7     H     0.44997  0.44997  0.00000  0.10006
       8     C     3.14591  3.14591  0.00000 -0.29183
       9     H     0.45109  0.45109  0.00000  0.09781
      10     H     0.44222  0.44222  0.00000  0.11557
      11     H     0.45475  0.45475  0.00000  0.09049
      12     H     0.44664  0.44664  0.00000  0.10672
      13     H     0.45239  0.45239  0.00000  0.09522

   Total alpha = 20.00000, Total beta = 20.00000, Total charge =  0.00000

*** Psi4 exiting successfully. Buy a developer a beer!
