  ==> Input File <==

--------------------------------------------------------------------------
set {
	reference rhf
	basis cc-pvtz
}

set_num_threads( 4 )
memory 2 gb

molecule MOL {
0 1

H	 3.721907	 -0.933076	 -0.066039
O	 2.824271	 -1.154299	 0.131461
C	 2.076458	 -0.067370	 -0.038225
C	 0.626018	 -0.337582	 0.258241
O	 2.538288	 0.965419	 -0.381593
C	 -0.267326	 0.883135	 0.076490
H	 0.325620	 -1.161483	 -0.378003
H	 0.574537	 -0.713685	 1.275261
C	 -1.726822	 0.642622	 0.463839
H	 -0.210803	 1.217591	 -0.953497
H	 0.129920	 1.693110	 0.675679
C	 -2.480891	 -0.340606	 -0.429852
H	 -2.243098	 1.597649	 0.438609
H	 -1.776542	 0.301208	 1.495542
C	 -2.759016	 -1.671191	 0.262004
H	 -3.421291	 0.107881	 -0.738949
H	 -1.918263	 -0.528309	 -1.338792
H	 -3.295948	 -2.348805	 -0.391622
H	 -3.357102	 -1.529670	 1.155852
H	 -1.835871	 -2.158797	 0.557300

	symmetry c1
}
set optking {
	frozen_dihedral = ("
		16 12 9 6
	")
}

ee = optimize('scf')
oeprop('DIPOLE', 'QUADRUPOLE', 'MULLIKEN_CHARGES')
f=open( 'psi4out.xyz', 'w' )
f.write( "20  " )
f.write( str(ee) + "\n" )
f.write( MOL.save_string_xyz() )
f.close()
--------------------------------------------------------------------------

    Molecular point group: c1
  Charge       = 0
  Multiplicity = 1
  Basis Set: CC-PVTZ
  Basis Set:
  @DF-RHF Final Energy:  -384.08951463052517
    Total Energy =                       -384.0895146305254002
    Molecular point group: c1
  Basis Set: CC-PVTZ
  Basis Set:
  Basis Set: CC-PVTZ
  Basis Set:
  @DF-RHF Final Energy:  -384.08986324047726
    Total Energy =                       -384.0898632404770296
  Basis Set: CC-PVTZ
  Basis Set:
  Basis Set: CC-PVTZ
  Basis Set:
  @DF-RHF Final Energy:  -384.08993897448750
    Total Energy =                       -384.0899389744876089
  Basis Set: CC-PVTZ
  Basis Set:
  Basis Set: CC-PVTZ
  Basis Set:
  @DF-RHF Final Energy:  -384.08993898917424
    Total Energy =                       -384.0899389891746978
  Basis Set: CC-PVTZ
  Basis Set:
  Basis Set: CC-PVTZ
  Basis Set:
  @DF-RHF Final Energy:  -384.08994002465954
    Total Energy =                       -384.0899400246598816
  Basis Set: CC-PVTZ
  Basis Set:
  Basis Set: CC-PVTZ
  Basis Set:
  @DF-RHF Final Energy:  -384.08994471997170
    Total Energy =                       -384.0899447199717542
  Basis Set: CC-PVTZ
  Basis Set:
  Charge       = 0
  Multiplicity = 1
  Basis Set: CC-PVTZ
  Basis Set:

    Orbital Energies (a.u.)
    -----------------------

    Doubly Occupied:

       1A    -20.603989     2A    -20.540621     3A    -11.373505
       4A    -11.238810     5A    -11.221232     6A    -11.218906
       7A    -11.218138     8A    -11.212040     9A     -1.477570
      10A     -1.369102    11A     -1.096669    12A     -1.039603
      13A     -0.964127    14A     -0.873272    15A     -0.815283
      16A     -0.778615    17A     -0.703810    18A     -0.693615
      19A     -0.667499    20A     -0.626058    21A     -0.612526
      22A     -0.598343    23A     -0.581709    24A     -0.555397
      25A     -0.536252    26A     -0.515227    27A     -0.502313
      28A     -0.484516    29A     -0.470673    30A     -0.464090
      31A     -0.457408    32A     -0.444913

  @DF-RHF Final Energy:  -384.08994545343023

   => Energetics <=

    Nuclear Repulsion Energy =            381.5366849876991182
    One-Electron Energy =               -1279.3415984761791151
    Two-Electron Energy =                 513.7149680350497647
    DFT Exchange-Correlation Energy =       0.0000000000000000
    Empirical Dispersion Energy =           0.0000000000000000
    PCM Polarization Energy =               0.0000000000000000
    EFP Energy =                            0.0000000000000000
    Total Energy =                       -384.0899454534302322
    Molecular point group: c1
  Basis Set: CC-PVTZ
  Basis Set:

  -Total Gradient:
     Atom            X                  Y                   Z
    ------   -----------------  -----------------  -----------------
       1       -0.000003295591     0.000003055541     0.000000823342
       2       -0.000008547918    -0.000008340041    -0.000009885803
       3        0.000006279688     0.000016777323     0.000019378924
       4        0.000001123772    -0.000004853431    -0.000021094005
       5       -0.000001928061     0.000000745092    -0.000001021493
       6       -0.000218810326     0.000583533564    -0.000464209594
       7       -0.000006417768    -0.000004989951     0.000008091114
       8        0.000004378915     0.000006496248     0.000003360493
       9        0.000432655673    -0.000719707203     0.000485643940
      10        0.000002422956     0.000010058881    -0.000001574914
      11        0.000009891068    -0.000006378210     0.000002523134
      12       -0.000674703321    -0.000232786022     0.000805190170
      13        0.000002549997    -0.000005293266    -0.000004949159
      14        0.000007041716     0.000000436729     0.000002529293
      15       -0.000017721229    -0.000010918963    -0.000008007420
      16        0.000464689410     0.000390217179    -0.000837608035
      17       -0.000005434470    -0.000020484192     0.000027366685
      18       -0.000002411163    -0.000009877189    -0.000000044307
      19        0.000002712730     0.000010880134    -0.000007508823
      20        0.000005523936     0.000001427777     0.000000996455

  **** Optimization is complete! (in 7 steps) ****
    Final optimized geometry and variables:
    Molecular point group: c1

    Geometry (in Angstrom), charge = 0, multiplicity = 1:

    H            3.558523875750    -0.788859175788    -0.139774882267
    O            2.664282890801    -1.000112441018     0.082570134858
    C            1.919273721008     0.087991444343    -0.091935142662
    C            0.474342225067    -0.166887011534     0.243033593368
    O            2.378678410033     1.110846307289    -0.466897993197
    C           -0.414994739617     1.056179488125     0.061463333986
    H            0.151892145119    -0.998298982794    -0.373208619478
    H            0.443895877647    -0.526716109546     1.266534339468
    C           -1.879374913482     0.816220661467     0.433914440296
    H           -0.352029871027     1.393628540055    -0.966859899306
    H           -0.021201722985     1.863947701218     0.666533019267
    C           -2.626962070844    -0.195180453040    -0.460063116641
    H           -2.384298006148     1.774217001648     0.386056933509
    H           -1.940542832850     0.501253901891     1.472205494766
    C           -2.920778492548    -1.532878205404     0.214683419189
    H           -3.563337235327     0.241183998653    -0.789139836803
    H           -2.056616200879    -0.369770897108    -1.367674934203
    H           -3.434783388067    -2.207003192914    -0.461096100252
    H           -3.550773605143    -1.395400022118     1.086902496580
    H           -2.011896605222    -2.024862983108     0.543296361422

  Mulliken Charges: (a.u.)
   Center  Symbol    Alpha    Beta     Spin     Total
       1     H     0.38230  0.38230  0.00000  0.23540
       2     O     4.16042  4.16042  0.00000 -0.32084
       3     C     2.80382  2.80382  0.00000  0.39235
       4     C     3.11458  3.11458  0.00000 -0.22917
       5     O     4.19081  4.19081  0.00000 -0.38162
       6     C     3.09014  3.09014  0.00000 -0.18029
       7     H     0.43663  0.43663  0.00000  0.12673
       8     H     0.43634  0.43634  0.00000  0.12731
       9     C     3.10463  3.10463  0.00000 -0.20925
      10     H     0.44540  0.44540  0.00000  0.10920
      11     H     0.44051  0.44051  0.00000  0.11899
      12     C     3.10185  3.10185  0.00000 -0.20371
      13     H     0.44018  0.44018  0.00000  0.11964
      14     H     0.45442  0.45442  0.00000  0.09116
      15     C     3.14681  3.14681  0.00000 -0.29361
      16     H     0.44309  0.44309  0.00000  0.11382
      17     H     0.45176  0.45176  0.00000  0.09647
      18     H     0.44781  0.44781  0.00000  0.10438
      19     H     0.45337  0.45337  0.00000  0.09325
      20     H     0.45511  0.45511  0.00000  0.08979

   Total alpha = 32.00000, Total beta = 32.00000, Total charge =  0.00000
