                              Psi4 1.0.54 Driver

  ==> Input File <==

--------------------------------------------------------------------------
set {
	reference rhf
	basis cc-pvtz
}

set_num_threads( 4 )
memory 2 gb

molecule MOL {
0 1

H	 -3.110137	 -0.339884	 0.045450
C	 -2.909181	 0.546953	 -0.551225
O	 -1.562008	 0.650230	 -0.870598
H	 -3.463738	 0.476932	 -1.475591
H	 -3.257567	 1.418475	 0.000101
C	 -0.718530	 0.758693	 0.228682
C	 0.718529	 0.758687	 -0.228709
H	 -0.917530	 1.685274	 0.767028
H	 -0.874713	 -0.069201	 0.916890
O	 1.401606	 -0.295166	 0.366636
H	 0.748705	 0.673477	 -1.312803
H	 1.176496	 1.708671	 0.046552
C	 2.714315	 -0.441627	 -0.061017
H	 2.765292	 -0.641548	 -1.128869
H	 3.305661	 0.447341	 0.150952
H	 3.143725	 -1.278506	 0.470147

	symmetry c1
}
set optking {
	frozen_dihedral = ("
		3 6 7 11
	")
}

ee,wfn = optimize('scf', return_wfn=True)
oeprop( wfn, 'DIPOLE', 'QUADRUPOLE', 'MULLIKEN_CHARGES')
f=open( 'psi4out.xyz', 'w' )
f.write( "16  " )
f.write( str(ee) + "\n" )
f.write( MOL.save_string_xyz() )
f.close()
--------------------------------------------------------------------------

    Molecular point group: c1
  Charge       = 0
  Multiplicity = 1
  Basis Set: CC-PVTZ
  Basis Set:
  @DF-RHF Final Energy:  -307.09354981755342
    Total Energy =                       -307.0935498175534804
    Molecular point group: c1
  Basis Set: CC-PVTZ
  Basis Set:
  Basis Set: CC-PVTZ
  Basis Set:
  @DF-RHF Final Energy:  -307.09409107742033
    Total Energy =                       -307.0940910774205577
  Basis Set: CC-PVTZ
  Basis Set:
  Basis Set: CC-PVTZ
  Basis Set:
  @DF-RHF Final Energy:  -307.09415828386688
    Total Energy =                       -307.0941582838669319
  Basis Set: CC-PVTZ
  Basis Set:
  Charge       = 0
  Multiplicity = 1
  Basis Set: CC-PVTZ
  Basis Set:

    Orbital Energies (a.u.)
    -----------------------

    Doubly Occupied:

       1A    -20.550834     2A    -20.550817     3A    -11.266599
       4A    -11.265969     5A    -11.263186     6A    -11.263184
       7A     -1.390624     8A     -1.378373     9A     -1.028620
      10A     -0.940164    11A     -0.886208    12A     -0.831590
      13A     -0.688375    14A     -0.679589    15A     -0.659200
      16A     -0.644720    17A     -0.629432    18A     -0.600233
      19A     -0.556988    20A     -0.529118    21A     -0.508989
      22A     -0.482979    23A     -0.467272    24A     -0.424467
      25A     -0.414188

  @DF-RHF Final Energy:  -307.09416294467445

   => Energetics <=

    Nuclear Repulsion Energy =            255.5698456418257933
    One-Electron Energy =                -925.5245687546697582
    Two-Electron Energy =                 362.8605601681695134
    DFT Exchange-Correlation Energy =       0.0000000000000000
    Empirical Dispersion Energy =           0.0000000000000000
    PCM Polarization Energy =               0.0000000000000000
    EFP Energy =                            0.0000000000000000
    Total Energy =                       -307.0941629446745083
    Molecular point group: c1
  Basis Set: CC-PVTZ
  Basis Set:

  -Total Gradient:
     Atom            X                  Y                   Z
    ------   -----------------  -----------------  -----------------
       1        0.000011875841     0.000045390519    -0.000018063773
       2       -0.000103732155    -0.000030140322    -0.000036447914
       3        0.000086371113    -0.000051707584     0.000145373121
       4       -0.000010411232     0.000009386039     0.000027826716
       5        0.000019958084    -0.000036005044    -0.000014680336
       6       -0.000111650402     0.000160241551    -0.000172169788
       7        0.000072049460    -0.000239774583     0.000054141628
       8        0.000000652101    -0.000006508835     0.000021260746
       9        0.000025030032     0.000001806056     0.000009508261
      10       -0.000003799755     0.000097074381    -0.000009776427
      11       -0.000034793672     0.000132049691    -0.000020392670
      12       -0.000015301991    -0.000030004477    -0.000000709479
      13        0.000077778080    -0.000064875566     0.000000363387
      14       -0.000001700286     0.000019935250     0.000041352693
      15       -0.000026832811    -0.000031125678    -0.000014122194
      16        0.000014507593     0.000024258601    -0.000013463975

  **** Optimization is complete! (in 4 steps) ****
    Final optimized geometry and variables:
    Molecular point group: c1

    Geometry (in Angstrom), charge = 0, multiplicity = 1:

    H           -3.098647414714    -0.583216750859     0.292257791415
    C           -2.865397240419     0.262575877969    -0.350451154082
    O           -1.515727357461     0.296163901235    -0.676633403403
    H           -3.425743054269     0.167045789580    -1.269046023357
    H           -3.176205794356     1.174155376878     0.155765269436
    C           -0.665619754432     0.416185719777     0.422055333637
    C            0.781611386060     0.424231526488    -0.057534541051
    H           -0.897719594745     1.328612492993     0.967123159732
    H           -0.797639634625    -0.420415041250     1.101138506904
    O            1.468415796777    -0.638714495402     0.527951339258
    H            0.785589838253     0.334019602065    -1.139346262683
    H            1.269215142072     1.361742536598     0.200832332680
    C            2.800261133648    -0.734712246144     0.145747751581
    H            2.896820157263    -0.881193402256    -0.927599552418
    H            3.359766155044     0.156590719812     0.422098597589
    H            3.229904979191    -1.585872134178     0.653550150164

  Mulliken Charges: (a.u.)
   Center  Symbol    Alpha    Beta     Spin     Total
       1     H     0.47075  0.47075  0.00000  0.05849
       2     C     3.02899  3.02899  0.00000 -0.05798
       3     O     4.17352  4.17352  0.00000 -0.34703
       4     H     0.44653  0.44653  0.00000  0.10695
       5     H     0.47234  0.47234  0.00000  0.05531
       6     C     2.96778  2.96778  0.00000  0.06444
       7     C     2.96776  2.96776  0.00000  0.06449
       8     H     0.47515  0.47515  0.00000  0.04970
       9     H     0.46495  0.46495  0.00000  0.07011
      10     O     4.17352  4.17352  0.00000 -0.34703
      11     H     0.46492  0.46492  0.00000  0.07015
      12     H     0.47519  0.47519  0.00000  0.04962
      13     C     3.02899  3.02899  0.00000 -0.05799
      14     H     0.47075  0.47075  0.00000  0.05851
      15     H     0.47234  0.47234  0.00000  0.05531
      16     H     0.44652  0.44652  0.00000  0.10695

   Total alpha = 25.00000, Total beta = 25.00000, Total charge =  0.00000

*** Psi4 exiting successfully. Buy a developer a beer!
