  ==> Input File <==

--------------------------------------------------------------------------
set {
	reference rhf
	basis cc-pvtz
}

set_num_threads( 4 )
memory 2 gb

molecule MOL {
0 1

H	 -2.644180	 -0.653737	 1.272255
C	 -2.092774	 -0.380414	 0.391915
O	 -0.808934	 -0.154049	 0.752536
F	 -2.163230	 -1.351640	 -0.507133
F	 -2.627232	 0.691260	 -0.169301
C	 0.085006	 0.250800	 -0.215074
C	 1.370439	 -0.548013	 -0.012993
Cl	 0.421658	 1.987697	 -0.091007
H	 -0.272219	 0.063284	 -1.212508
F	 1.109318	 -1.829204	 0.045215
F	 1.918002	 -0.194995	 1.125809
F	 2.237259	 -0.340108	 -0.965699

	symmetry c1
}
set optking {
	frozen_dihedral = ("
		10 7 6 9
	")
}

ee = optimize('scf')
oeprop('DIPOLE', 'QUADRUPOLE', 'MULLIKEN_CHARGES')
f=open( 'psi4out.xyz', 'w' )
f.write( "12  " )
f.write( str(ee) + "\n" )
f.write( MOL.save_string_xyz() )
f.close()
--------------------------------------------------------------------------

    Molecular point group: c1
  Charge       = 0
  Multiplicity = 1
  Basis Set: CC-PVTZ
  Basis Set:
  @DF-RHF Final Energy: -1146.61908355325386
    Total Energy =                      -1146.6190835532536312
    Molecular point group: c1
  Basis Set: CC-PVTZ
  Basis Set:
  Basis Set: CC-PVTZ
  Basis Set:
  @DF-RHF Final Energy: -1146.61975841206163
    Total Energy =                      -1146.6197584120614010
  Basis Set: CC-PVTZ
  Basis Set:
  Basis Set: CC-PVTZ
  Basis Set:
  @DF-RHF Final Energy: -1146.61994860301229
    Total Energy =                      -1146.6199486030122898
  Basis Set: CC-PVTZ
  Basis Set:
  Basis Set: CC-PVTZ
  Basis Set:
  @DF-RHF Final Energy: -1146.61996483620146
    Total Energy =                      -1146.6199648362003245
  Basis Set: CC-PVTZ
  Basis Set:
  Basis Set: CC-PVTZ
  Basis Set:
  @DF-RHF Final Energy: -1146.61996632419687
    Total Energy =                      -1146.6199663241968665
  Basis Set: CC-PVTZ
  Basis Set:
  Charge       = 0
  Multiplicity = 1
  Basis Set: CC-PVTZ
  Basis Set:

    Orbital Energies (a.u.)
    -----------------------

    Doubly Occupied:

       1A   -104.855669     2A    -26.355911     3A    -26.353773
       4A    -26.352329     5A    -26.343754     6A    -26.343732
       7A    -20.641893     8A    -11.520374     9A    -11.484592
      10A    -11.401267    11A    -10.581203    12A     -8.047993
      13A     -8.046018    14A     -8.045933    15A     -1.767966
      16A     -1.725387    17A     -1.663422    18A     -1.660757
      19A     -1.645383    20A     -1.488492    21A     -1.177649
      22A     -1.052460    23A     -0.991640    24A     -0.924745
      25A     -0.864951    26A     -0.859374    27A     -0.851941
      28A     -0.830207    29A     -0.819058    30A     -0.794258
      31A     -0.734582    32A     -0.733317    33A     -0.712877
      34A     -0.708625    35A     -0.684939    36A     -0.681715
      37A     -0.665559    38A     -0.664057    39A     -0.649812
      40A     -0.638506    41A     -0.599261    42A     -0.581725
      43A     -0.524909    44A     -0.478010    45A     -0.469071

  @DF-RHF Final Energy: -1146.61996658615590

   => Energetics <=

    Nuclear Repulsion Energy =            738.1059908606526960
    One-Electron Energy =               -3059.4137234243380590
    Two-Electron Energy =                1174.6877659775295797
    DFT Exchange-Correlation Energy =       0.0000000000000000
    Empirical Dispersion Energy =           0.0000000000000000
    PCM Polarization Energy =               0.0000000000000000
    EFP Energy =                            0.0000000000000000
    Total Energy =                      -1146.6199665861558969
    Molecular point group: c1
  Basis Set: CC-PVTZ
  Basis Set:

  -Total Gradient:
     Atom            X                  Y                   Z
    ------   -----------------  -----------------  -----------------
       1        0.000007728819     0.000006645854    -0.000003182596
       2        0.000046611497     0.000040971715    -0.000061907529
       3        0.000046372991    -0.000009559939     0.000008637932
       4       -0.000025500079    -0.000053903190    -0.000003842482
       5        0.000015590089     0.000025277189     0.000027955627
       6       -0.002119511425    -0.002888673422     0.001962354998
       7        0.000795219987     0.000356915624    -0.003305565879
       8       -0.000031937696    -0.000025498769    -0.000006828454
       9        0.001633610438     0.002423820454    -0.001001977028
      10       -0.000354388563     0.000073433457     0.002527649487
      11       -0.000055484537     0.000008911808    -0.000085861793
      12        0.000041688500     0.000041659217    -0.000057432282

  **** Optimization is complete! (in 6 steps) ****
    Final optimized geometry and variables:
    Molecular point group: c1

    Geometry (in Angstrom), charge = 0, multiplicity = 1:

    H           -2.660436194635    -0.643738527357     1.257134846118
    C           -2.098823540167    -0.383704544132     0.379228350786
    O           -0.821037983876    -0.143336242808     0.752401160592
    F           -2.151815158471    -1.371556386412    -0.502599565435
    F           -2.630893737897     0.674767157883    -0.208630667556
    C            0.080796013015     0.248156908556    -0.210078081863
    C            1.371856495513    -0.542971078993    -0.001212463660
    CL           0.420370413408     1.988259182095    -0.101093329502
    H           -0.260920353990     0.070947192421    -1.214726626996
    F            1.094763091862    -1.823999102038     0.032461095803
    F            1.970646673233    -0.232739050856     1.116491826284
    F            2.197909523762    -0.326467961159    -0.993425617405

  Mulliken Charges: (a.u.)
   Center  Symbol    Alpha    Beta     Spin     Total
       1     H     0.45189  0.45189  0.00000  0.09622
       2     C     2.73974  2.73974  0.00000  0.52053
       3     O     4.15578  4.15578  0.00000 -0.31155
       4     F     4.61774  4.61774  0.00000 -0.23549
       5     F     4.61504  4.61504  0.00000 -0.23007
       6     C     2.93739  2.93739  0.00000  0.12522
       7     C     2.66870  2.66870  0.00000  0.66259
       8    CL     8.57502  8.57502  0.00000 -0.15005
       9     H     0.43111  0.43111  0.00000  0.13779
      10     F     4.60367  4.60367  0.00000 -0.20734
      11     F     4.60069  4.60069  0.00000 -0.20137
      12     F     4.60324  4.60324  0.00000 -0.20647

   Total alpha = 45.00000, Total beta = 45.00000, Total charge = -0.00000
