  ==> Input File <==

--------------------------------------------------------------------------
set {
	reference rhf
	basis 6-31G*
}

set_num_threads( 1 )
memory 2 gb

molecule MOL {
0 1

H	 -2.680411	 0.682160	 -1.344257
O	 -3.452007	 0.283848	 -0.965577
C	 -3.181085	 -0.079926	 0.364119
C	 -1.765924	 0.277073	 0.805136
H	 -3.327791	 -1.152017	 0.410903
H	 -3.905698	 0.375695	 1.036898
C	 -0.677594	 -0.417312	 -0.014550
H	 -1.637766	 1.358238	 0.744969
H	 -1.659588	 0.017670	 1.857098
C	 0.738335	 -0.034840	 0.421385
H	 -0.814977	 -0.178223	 -1.064632
H	 -0.802730	 -1.495410	 0.071702
C	 1.822265	 -0.738362	 -0.399735
H	 0.853533	 1.043532	 0.342250
H	 0.871597	 -0.279636	 1.474438
C	 3.258060	 -0.455774	 0.057203
H	 1.718003	 -0.459167	 -1.447053
H	 1.651028	 -1.811884	 -0.354513
C	 3.709143	 0.994797	 -0.123830
H	 3.930637	 -1.101717	 -0.501982
H	 3.365259	 -0.739518	 1.102287
H	 3.601178	 1.310569	 -1.158127
H	 4.753787	 1.110486	 0.148516
H	 3.135362	 1.678896	 0.492569

	symmetry c1
}
set optking {
	frozen_dihedral = ("
		20 16 13 17,
		17 13 10 7,
		13 10 7 11,
		11 7 4 3,
		7 4 3 2
	")
}

ee = energy('scf')
oeprop('DIPOLE', 'QUADRUPOLE', 'MULLIKEN_CHARGES')
f=open( 'psi4out.xyz', 'w' )
f.write( "24  " )
f.write( str(ee) + "\n" )
f.write( MOL.save_string_xyz() )
f.close()
--------------------------------------------------------------------------

    Molecular point group: c1

    Geometry (in Angstrom), charge = 0, multiplicity = 1:

       Center              X                  Y                   Z               Mass
    ------------   -----------------  -----------------  -----------------  -----------------
           H         -2.686836186913     0.686892298223    -1.341653247638     1.007825032070
           O         -3.458432186913     0.288580298223    -0.962973247638    15.994914619560
           C         -3.187510186913    -0.075193701777     0.366722752362    12.000000000000
           C         -1.772349186913     0.281805298223     0.807739752362    12.000000000000
           H         -3.334216186913    -1.147284701777     0.413506752362     1.007825032070
           H         -3.912123186913     0.380427298223     1.039501752362     1.007825032070
           C         -0.684019186913    -0.412579701777    -0.011946247638    12.000000000000
           H         -1.644191186913     1.362970298223     0.747572752362     1.007825032070
           H         -1.666013186913     0.022402298223     1.859701752362     1.007825032070
           C          0.731909813087    -0.030107701777     0.423988752362    12.000000000000
           H         -0.821402186913    -0.173490701777    -1.062028247638     1.007825032070
           H         -0.809155186913    -1.490677701777     0.074305752362     1.007825032070
           C          1.815839813087    -0.733629701777    -0.397131247638    12.000000000000
           H          0.847107813087     1.048264298223     0.344853752362     1.007825032070
           H          0.865171813087    -0.274903701777     1.477041752362     1.007825032070
           C          3.251634813087    -0.451041701777     0.059806752362    12.000000000000
           H          1.711577813087    -0.454434701777    -1.444449247638     1.007825032070
           H          1.644602813087    -1.807151701777    -0.351909247638     1.007825032070
           C          3.702717813087     0.999529298223    -0.121226247638    12.000000000000
           H          3.924211813087    -1.096984701777    -0.499378247638     1.007825032070
           H          3.358833813087    -0.734785701777     1.104890752362     1.007825032070
           H          3.594752813087     1.315301298223    -1.155523247638     1.007825032070
           H          4.747361813087     1.115218298223     0.151119752362     1.007825032070
           H          3.128936813087     1.683628298223     0.495172752362     1.007825032070

  Charge       = 0
  Multiplicity = 1
  Basis Set: 6-31G*
  Basis Set:

    Orbital Energies (a.u.)
    -----------------------

    Doubly Occupied:

       1A    -20.548574     2A    -11.265781     3A    -11.225040
       4A    -11.224355     5A    -11.220401     6A    -11.218725
       7A    -11.217775     8A    -11.211185     9A     -1.357338
      10A     -1.096302    11A     -1.053892    12A     -0.989791
      13A     -0.920799    14A     -0.857292    15A     -0.805711
      16A     -0.782814    17A     -0.663697    18A     -0.661510
      19A     -0.635573    20A     -0.625503    21A     -0.606695
      22A     -0.590415    23A     -0.562532    24A     -0.540665
      25A     -0.525981    26A     -0.515810    27A     -0.497524
      28A     -0.481081    29A     -0.478637    30A     -0.465587
      31A     -0.458793    32A     -0.442400    33A     -0.426013

  @DF-RHF Final Energy:  -349.24334072184166

   => Energetics <=

    Nuclear Repulsion Energy =            385.3960975706660861
    One-Electron Energy =               -1236.9305021938744176
    Two-Electron Energy =                 502.2910639013658169
    DFT Exchange-Correlation Energy =       0.0000000000000000
    Empirical Dispersion Energy =           0.0000000000000000
    PCM Polarization Energy =               0.0000000000000000
    EFP Energy =                            0.0000000000000000
    Total Energy =                       -349.2433407218424577

  Mulliken Charges: (a.u.)
   Center  Symbol    Alpha    Beta     Spin     Total
       1     H     0.27780  0.27780  0.00000  0.44440
       2     O     4.37842  4.37842  0.00000 -0.75683
       3     C     2.97540  2.97540  0.00000  0.04919
       4     C     3.18980  3.18980  0.00000 -0.37961
       5     H     0.42585  0.42585  0.00000  0.14829
       6     H     0.42285  0.42285  0.00000  0.15430
       7     C     3.15477  3.15477  0.00000 -0.30955
       8     H     0.41988  0.41988  0.00000  0.16024
       9     H     0.41660  0.41660  0.00000  0.16679
      10     C     3.15311  3.15311  0.00000 -0.30621
      11     H     0.42765  0.42765  0.00000  0.14469
      12     H     0.41789  0.41789  0.00000  0.16421
      13     C     3.15278  3.15278  0.00000 -0.30556
      14     H     0.42130  0.42130  0.00000  0.15741
      15     H     0.42250  0.42250  0.00000  0.15501
      16     C     3.15273  3.15273  0.00000 -0.30546
      17     H     0.42390  0.42390  0.00000  0.15219
      18     H     0.42123  0.42123  0.00000  0.15754
      19     C     3.24144  3.24144  0.00000 -0.48287
      20     H     0.42011  0.42011  0.00000  0.15978
      21     H     0.42302  0.42302  0.00000  0.15397
      22     H     0.42213  0.42213  0.00000  0.15573
      23     H     0.41850  0.41850  0.00000  0.16300
      24     H     0.42033  0.42033  0.00000  0.15935

   Total alpha = 33.00000, Total beta = 33.00000, Total charge = -0.00000
