  ==> Input File <==

--------------------------------------------------------------------------
set {
	reference rhf
	basis 6-31G*
}

set_num_threads( 4 )
memory 2 gb

molecule MOL {
0 1

H	 -4.236494	 0.538104	 0.039757
O	 -3.517110	 -0.026191	 -0.205115
C	 -2.306886	 0.532354	 0.237577
C	 -1.177863	 -0.397191	 -0.171080
H	 -2.156308	 1.517575	 -0.201710
H	 -2.315015	 0.655684	 1.319734
C	 0.198102	 0.111031	 0.262842
H	 -1.208843	 -0.518759	 -1.250427
H	 -1.368741	 -1.376554	 0.258909
C	 1.331804	 -0.827780	 -0.158768
H	 0.361943	 1.100838	 -0.156218
H	 0.217265	 0.229072	 1.345532
C	 2.723619	 -0.410569	 0.329459
H	 1.342964	 -0.912588	 -1.244120
H	 1.116806	 -1.824343	 0.220779
C	 3.605323	 0.236707	 -0.740105
H	 3.231655	 -1.292066	 0.712798
H	 2.620011	 0.269567	 1.172576
H	 3.716431	 -0.416296	 -1.601662
H	 3.195640	 1.178616	 -1.089594
H	 4.598119	 0.439233	 -0.350113

	symmetry c1
}
set optking {
	frozen_dihedral = ("
		16 13 10 14
	")
}

ee = optimize('scf')
oeprop('DIPOLE', 'QUADRUPOLE', 'MULLIKEN_CHARGES')
f=open( 'psi4out.xyz', 'w' )
f.write( "21  " )
f.write( str(ee) + "\n" )
f.write( MOL.save_string_xyz() )
f.close()
--------------------------------------------------------------------------

    Molecular point group: c1
  Charge       = 0
  Multiplicity = 1
  Basis Set: 6-31G*
  Basis Set:
  @DF-RHF Final Energy:  -310.20920232753565
    Total Energy =                       -310.2092023275356496
    Molecular point group: c1
  Basis Set: 6-31G*
  Basis Set:
  Basis Set: 6-31G*
  Basis Set:
  @DF-RHF Final Energy:  -310.20983429254028
    Total Energy =                       -310.2098342925405632
  Basis Set: 6-31G*
  Basis Set:
  Basis Set: 6-31G*
  Basis Set:
  @DF-RHF Final Energy:  -310.20988928338005
    Total Energy =                       -310.2098892833800505
  Basis Set: 6-31G*
  Basis Set:
  Basis Set: 6-31G*
  Basis Set:
  @DF-RHF Final Energy:  -310.20989142656248
    Total Energy =                       -310.2098914265627627
  Basis Set: 6-31G*
  Basis Set:
  Basis Set: 6-31G*
  Basis Set:
  @DF-RHF Final Energy:  -310.20991049097728
    Total Energy =                       -310.2099104909774496
  Basis Set: 6-31G*
  Basis Set:
  Charge       = 0
  Multiplicity = 1
  Basis Set: 6-31G*
  Basis Set:

    Orbital Energies (a.u.)
    -----------------------

    Doubly Occupied:

       1A    -20.551828     2A    -11.267085     3A    -11.216211
       4A    -11.214596     5A    -11.213195     6A    -11.210464
       7A    -11.208584     8A     -1.358649     9A     -1.085279
      10A     -1.033163    11A     -0.955588    12A     -0.869631
      13A     -0.804598    14A     -0.787068    15A     -0.692457
      16A     -0.661393    17A     -0.620225    18A     -0.607995
      19A     -0.585950    20A     -0.564895    21A     -0.539724
      22A     -0.521599    23A     -0.506829    24A     -0.487029
      25A     -0.478886    26A     -0.463271    27A     -0.454720
      28A     -0.441419    29A     -0.433987

  @DF-RHF Final Energy:  -310.20991046977952

   => Energetics <=

    Nuclear Repulsion Energy =            310.8346928497471708
    One-Electron Energy =               -1036.4165714239163663
    Two-Electron Energy =                 415.3719681043899072
    DFT Exchange-Correlation Energy =       0.0000000000000000
    Empirical Dispersion Energy =           0.0000000000000000
    PCM Polarization Energy =               0.0000000000000000
    EFP Energy =                            0.0000000000000000
    Total Energy =                       -310.2099104697792882
    Molecular point group: c1
  Basis Set: 6-31G*
  Basis Set:

  -Total Gradient:
     Atom            X                  Y                   Z
    ------   -----------------  -----------------  -----------------
       1        0.000003581805    -0.000000125419     0.000003342861
       2        0.000004084250    -0.000008283377     0.000002815090
       3        0.000003163158     0.000006548656    -0.000001492419
       4       -0.000005950926     0.000018357323    -0.000029583088
       5       -0.000000666603    -0.000005358057    -0.000002535879
       6       -0.000000442532     0.000003982498     0.000005371862
       7       -0.000020732224    -0.000000338632     0.000021836929
       8       -0.000013798743     0.000006920863    -0.000008670457
       9        0.000017060338     0.000001865040    -0.000005208382
      10        0.001550637650    -0.004407587878     0.000133998978
      11       -0.000015539882    -0.000020754946     0.000004689376
      12       -0.000013420987    -0.000016748856     0.000000452363
      13       -0.001488411927     0.003502540848     0.000673973952
      14       -0.000961378395     0.002978096385    -0.000228572253
      15        0.000033557778    -0.000014861637     0.000021245239
      16        0.000900912145    -0.002001252114    -0.000574635057
      17       -0.000020499378    -0.000031617894    -0.000000471632
      18       -0.000009158574     0.000002121835    -0.000020310438
      19        0.000012746749    -0.000013704878     0.000008657055
      20        0.000028547987    -0.000012215052     0.000003944243
      21       -0.000004291685     0.000012415291    -0.000008848343

  **** Optimization is complete! (in 6 steps) ****
    Final optimized geometry and variables:
    Molecular point group: c1

    Geometry (in Angstrom), charge = 0, multiplicity = 1:

    H           -4.257385924524     0.711554921849     0.042002570651
    O           -3.544337386191     0.143040097369    -0.211514325903
    C           -2.336870631360     0.640959778004     0.304940064854
    C           -1.217950558861    -0.293684891580    -0.119621163033
    H           -2.145465657817     1.645742388509    -0.069364939666
    H           -2.380677928958     0.700666772296     1.391581380927
    C            0.154070266030     0.150785822892     0.387821614398
    H           -1.215364591443    -0.353118610575    -1.204575326715
    H           -1.447581242784    -1.290625196746     0.246788438136
    C            1.282189184100    -0.800971310689    -0.023996309096
    H            0.373953838743     1.150145691401     0.014530175300
    H            0.133445203580     0.228999406868     1.473592688081
    C            2.677370964179    -0.315131712802     0.418420052577
    H            1.260203664118    -0.898625649329    -1.107047224498
    H            1.077912134645    -1.786579775363     0.384492028490
    C            3.471782364772     0.352508256339    -0.705230054939
    H            3.255411117722    -1.156284223562     0.791492719276
    H            2.578762908136     0.372711080012     1.254384807492
    H            3.658117525185    -0.346875409245    -1.514826572198
    H            2.935830988602     1.201853174728    -1.120683408714
    H            4.432480803427     0.711953818612    -0.349049926284

  Mulliken Charges: (a.u.)
   Center  Symbol    Alpha    Beta     Spin     Total
       1     H     0.28118  0.28118  0.00000  0.43763
       2     O     4.37176  4.37176  0.00000 -0.74353
       3     C     2.98974  2.98974  0.00000  0.02052
       4     C     3.15960  3.15960  0.00000 -0.31921
       5     H     0.43290  0.43290  0.00000  0.13419
       6     H     0.43283  0.43283  0.00000  0.13434
       7     C     3.16174  3.16174  0.00000 -0.32347
       8     H     0.41476  0.41476  0.00000  0.17047
       9     H     0.41489  0.41489  0.00000  0.17022
      10     C     3.15376  3.15376  0.00000 -0.30752
      11     H     0.42359  0.42359  0.00000  0.15283
      12     H     0.42333  0.42333  0.00000  0.15333
      13     C     3.15508  3.15508  0.00000 -0.31016
      14     H     0.42063  0.42063  0.00000  0.15874
      15     H     0.41948  0.41948  0.00000  0.16104
      16     C     3.23983  3.23983  0.00000 -0.47966
      17     H     0.42024  0.42024  0.00000  0.15953
      18     H     0.42123  0.42123  0.00000  0.15753
      19     H     0.42077  0.42077  0.00000  0.15847
      20     H     0.42245  0.42245  0.00000  0.15510
      21     H     0.42020  0.42020  0.00000  0.15960

   Total alpha = 29.00000, Total beta = 29.00000, Total charge = -0.00000
