  ==> Input File <==

--------------------------------------------------------------------------
set {
	reference rhf
	basis 6-31G*
}

set_num_threads( 4 )
memory 2 gb

molecule MOL {
0 1

H	 -4.031818	 -0.453427	 -0.000094
C	 -2.967712	 -0.297022	 -0.000064
C	 -2.458620	 0.992929	 0.000032
C	 -2.109895	 -1.385637	 -0.000122
H	 -3.124998	 1.836319	 0.000077
C	 -1.090278	 1.193236	 0.000070
H	 -2.506361	 -2.384847	 -0.000198
C	 -0.739812	 -1.187531	 -0.000085
H	 -0.678594	 2.184290	 0.000146
C	 -0.226438	 0.104061	 0.000012
H	 -0.072310	 -2.027032	 -0.000131
C	 1.239129	 0.373821	 0.000060
O	 1.859959	 -0.131537	 1.055421
O	 1.804288	 0.980142	 -0.855411
C	 3.258564	 0.078329	 1.136237
H	 3.757477	 -0.366242	 0.287569
H	 3.574967	 -0.399633	 2.050182
H	 3.481408	 1.134855	 1.168057

	symmetry c1
}
set optking {
	frozen_dihedral = ("
		13 12 10 6
	")
}

ee = optimize('scf')
oeprop('DIPOLE', 'QUADRUPOLE', 'MULLIKEN_CHARGES')
f=open( 'psi4out.xyz', 'w' )
f.write( "18  " )
f.write( str(ee) + "\n" )
f.write( MOL.save_string_xyz() )
f.close()
--------------------------------------------------------------------------

    Molecular point group: c1
  Charge       = 0
  Multiplicity = 1
  Basis Set: 6-31G*
  Basis Set:
  @DF-RHF Final Energy:  -457.34153953526243
    Total Energy =                       -457.3415395352627684
    Molecular point group: c1
  Basis Set: 6-31G*
  Basis Set:
  Basis Set: 6-31G*
  Basis Set:
  @DF-RHF Final Energy:  -457.33951214326754
    Total Energy =                       -457.3395121432666883
  Basis Set: 6-31G*
  Basis Set:
  Basis Set: 6-31G*
  Basis Set:
  @DF-RHF Final Energy:  -457.34207807883388
    Total Energy =                       -457.3420780788342199
  Basis Set: 6-31G*
  Basis Set:
  Basis Set: 6-31G*
  Basis Set:
  @DF-RHF Final Energy:  -457.34215568317467
    Total Energy =                       -457.3421556831748376
  Basis Set: 6-31G*
  Basis Set:
  Basis Set: 6-31G*
  Basis Set:
  @DF-RHF Final Energy:  -457.34215731878692
    Total Energy =                       -457.3421573187871445
  Basis Set: 6-31G*
  Basis Set:
  Charge       = 0
  Multiplicity = 1
  Basis Set: 6-31G*
  Basis Set:

    Orbital Energies (a.u.)
    -----------------------

    Doubly Occupied:

       1A    -20.609573     2A    -20.548851     3A    -11.379573
       4A    -11.283501     5A    -11.249820     6A    -11.244441
       7A    -11.243558     8A    -11.241767     9A    -11.239293
      10A    -11.238776    11A     -1.474609    12A     -1.366762
      13A     -1.166543    14A     -1.048931    15A     -1.025776
      16A     -0.979340    17A     -0.859915    18A     -0.837624
      19A     -0.779667    20A     -0.737985    21A     -0.684703
      22A     -0.679312    23A     -0.675658    24A     -0.630150
      25A     -0.629436    26A     -0.597351    27A     -0.590306
      28A     -0.551101    29A     -0.535019    30A     -0.516598
      31A     -0.507417    32A     -0.502016    33A     -0.459006
      34A     -0.444387    35A     -0.342993    36A     -0.342364

  @DF-RHF Final Energy:  -457.34215775003292

   => Energetics <=

    Nuclear Repulsion Energy =            492.2020247905967381
    One-Electron Energy =               -1598.6001214109164721
    Two-Electron Energy =                 649.0559388702862407
    DFT Exchange-Correlation Energy =       0.0000000000000000
    Empirical Dispersion Energy =           0.0000000000000000
    PCM Polarization Energy =               0.0000000000000000
    EFP Energy =                            0.0000000000000000
    Total Energy =                       -457.3421577500336070
    Molecular point group: c1
  Basis Set: 6-31G*
  Basis Set:

  -Total Gradient:
     Atom            X                  Y                   Z
    ------   -----------------  -----------------  -----------------
       1       -0.000002712091     0.000008125354     0.000007749802
       2        0.000016941262    -0.000081856247    -0.000013774927
       3        0.000067122549     0.000048175933     0.000024263512
       4       -0.000079665423     0.000039396799    -0.000031825727
       5       -0.000006666617    -0.000006130508    -0.000009133174
       6       -0.000127482914    -0.000063680682     0.005557342897
       7        0.000008770485     0.000002227543     0.000006154416
       8        0.000066439515     0.000077490382    -0.000014548798
       9        0.000008195681    -0.000004002632     0.000000280308
      10       -0.000195432420     0.001573699598    -0.007030835263
      11       -0.000000460314    -0.000006632181    -0.000000109566
      12        0.001139882840    -0.006281430365    -0.001311740454
      13       -0.000888470601     0.004672236348     0.002843227360
      14       -0.000010716434     0.000017339864    -0.000036060223
      15        0.000001492925     0.000017004689     0.000011716527
      16       -0.000003452293    -0.000001742219    -0.000001201559
      17       -0.000002790118    -0.000004297098    -0.000001968579
      18        0.000009003959    -0.000005924582     0.000000463451

  **** Optimization is complete! (in 6 steps) ****
    Final optimized geometry and variables:
    Molecular point group: c1

    Geometry (in Angstrom), charge = 0, multiplicity = 1:

    H           -4.007304931588    -0.564235622739    -0.099885778516
    C           -2.945291149449    -0.397358945253    -0.122385403542
    C           -2.447941898095     0.895759406966    -0.141915900999
    C           -2.074902913046    -1.476176228504    -0.125393984902
    H           -3.121523886787     1.733457467298    -0.129499282384
    C           -1.080701518173     1.111611060139    -0.180059861884
    H           -2.459528652977    -2.479828148646    -0.104899234597
    C           -0.707314902685    -1.262531856886    -0.139793664450
    H           -0.688546693763     2.111579538564    -0.212352125116
    C           -0.209861453951     0.031866166648    -0.192695132645
    H           -0.030422895009    -2.096975557168    -0.114254404702
    C            1.262174221087     0.294545336651    -0.176283671248
    O            1.851653643455    -0.240922029748     0.881241254612
    O            1.834341997166     0.958919090234    -0.979395507562
    C            3.250416473883    -0.044981906950     1.001844511271
    H            3.767437740366    -0.457864995731     0.147646706507
    H            3.542004386934    -0.561017440264     1.903011231414
    H            3.478019985988     1.008012998799     1.081064745126

  Mulliken Charges: (a.u.)
   Center  Symbol    Alpha    Beta     Spin     Total
       1     H     0.39614  0.39614  0.00000  0.20771
       2     C     3.09504  3.09504  0.00000 -0.19008
       3     C     3.10202  3.10202  0.00000 -0.20405
       4     C     3.10253  3.10253  0.00000 -0.20506
       5     H     0.39560  0.39560  0.00000  0.20879
       6     C     3.09711  3.09711  0.00000 -0.19421
       7     H     0.39597  0.39597  0.00000  0.20805
       8     C     3.09301  3.09301  0.00000 -0.18602
       9     H     0.38565  0.38565  0.00000  0.22871
      10     C     3.02139  3.02139  0.00000 -0.04279
      11     H     0.39001  0.39001  0.00000  0.21998
      12     C     2.62992  2.62992  0.00000  0.74017
      13     O     4.29739  4.29739  0.00000 -0.59479
      14     O     4.28131  4.28131  0.00000 -0.56262
      15     C     3.09433  3.09433  0.00000 -0.18867
      16     H     0.40849  0.40849  0.00000  0.18302
      17     H     0.40673  0.40673  0.00000  0.18653
      18     H     0.40734  0.40734  0.00000  0.18532

   Total alpha = 36.00000, Total beta = 36.00000, Total charge =  0.00000
