  ==> Input File <==

--------------------------------------------------------------------------
set {
	reference rhf
	basis 6-31G*
}

set_num_threads( 1 )
memory 2 gb

molecule MOL {
0 1

H	 2.591676	 2.013956	 0.335017
O	 3.341076	 1.666752	 -0.126416
C	 3.569581	 0.339145	 0.272707
C	 2.539767	 -0.640285	 -0.279495
H	 4.553106	 0.084646	 -0.100901
H	 3.608576	 0.269204	 1.359154
C	 1.115811	 -0.397273	 0.226630
H	 2.556196	 -0.582511	 -1.364741
H	 2.852081	 -1.648031	 -0.010655
C	 0.966308	 0.943869	 0.950373
H	 0.832218	 -1.204489	 0.896215
H	 0.422453	 -0.428718	 -0.613968
C	 -0.460306	 1.275719	 1.403131
H	 1.630681	 0.961461	 1.812432
H	 1.309838	 1.735109	 0.287328
C	 -1.020047	 0.358467	 2.493918
H	 -0.472543	 2.299528	 1.771210
H	 -1.124581	 1.257382	 0.540439
C	 -2.402214	 0.792568	 2.986469
H	 -0.329500	 0.339026	 3.335868
H	 -1.082869	 -0.663430	 2.127747
C	 -2.966033	 -0.125047	 4.070791
H	 -2.345065	 1.809505	 3.368648
H	 -3.091217	 0.821960	 2.144866
H	 -2.315226	 -0.150419	 4.940292
H	 -3.944778	 0.209842	 4.400246
H	 -3.070331	 -1.143699	 3.707702

	symmetry c1
}
set optking {
	frozen_dihedral = ("
		14 10 7 4,
		14 10 13 16,
		8 4 3 2,
		10 13 16 20,
		20 16 19 22,
		4 3 2 1
	")
}

ee = energy('scf')
oeprop('DIPOLE', 'QUADRUPOLE', 'MULLIKEN_CHARGES')
f=open( 'psi4out.xyz', 'w' )
f.write( "27  " )
f.write( str(ee) + "\n" )
f.write( MOL.save_string_xyz() )
f.close()
--------------------------------------------------------------------------

    Molecular point group: c1

    Geometry (in Angstrom), charge = 0, multiplicity = 1:

       Center              X                  Y                   Z               Mass
    ------------   -----------------  -----------------  -----------------  -----------------
           H          2.037212448601     1.527904912908    -0.991563788725     1.007825032070
           O          2.786612448601     1.180700912908    -1.452996788725    15.994914619560
           C          3.015117448601    -0.146906087092    -1.053873788725    12.000000000000
           C          1.985303448601    -1.126336087092    -1.606075788725    12.000000000000
           H          3.998642448601    -0.401405087092    -1.427481788725     1.007825032070
           H          3.054112448601    -0.216847087092     0.032573211275     1.007825032070
           C          0.561347448601    -0.883324087092    -1.099950788725    12.000000000000
           H          2.001732448601    -1.068562087092    -2.691321788725     1.007825032070
           H          2.297617448601    -2.134082087092    -1.337235788725     1.007825032070
           C          0.411844448601     0.457817912908    -0.376207788725    12.000000000000
           H          0.277754448601    -1.690540087092    -0.430365788725     1.007825032070
           H         -0.132010551399    -0.914769087092    -1.940548788725     1.007825032070
           C         -1.014769551399     0.789667912908     0.076550211275    12.000000000000
           H          1.076217448601     0.475409912908     0.485851211275     1.007825032070
           H          0.755374448601     1.249057912908    -1.039252788725     1.007825032070
           C         -1.574510551399    -0.127584087092     1.167337211275    12.000000000000
           H         -1.027006551399     1.813476912908     0.444629211275     1.007825032070
           H         -1.679044551399     0.771330912908    -0.786141788725     1.007825032070
           C         -2.956677551399     0.306516912908     1.659888211275    12.000000000000
           H         -0.883963551399    -0.147025087092     2.009287211275     1.007825032070
           H         -1.637332551399    -1.149481087092     0.801166211275     1.007825032070
           C         -3.520496551399    -0.611098087092     2.744210211275    12.000000000000
           H         -2.899528551399     1.323453912908     2.042067211275     1.007825032070
           H         -3.645680551399     0.335908912908     0.818285211275     1.007825032070
           H         -2.869689551399    -0.636470087092     3.613711211275     1.007825032070
           H         -4.499241551399    -0.276209087092     3.073665211275     1.007825032070
           H         -3.624794551399    -1.629750087092     2.381121211275     1.007825032070

  Charge       = 0
  Multiplicity = 1
  Basis Set: 6-31G*
  Basis Set:

    Orbital Energies (a.u.)
    -----------------------

    Doubly Occupied:

       1A    -20.541184     2A    -11.264524     3A    -11.226242
       4A    -11.220358     5A    -11.220284     6A    -11.218302
       7A    -11.217369     8A    -11.214027     9A    -11.211088
      10A     -1.357864    11A     -1.100205    12A     -1.063516
      13A     -1.015421    14A     -0.952636    15A     -0.891434
      16A     -0.828818    17A     -0.805463    18A     -0.787063
      19A     -0.688639    20A     -0.656910    21A     -0.641276
      22A     -0.624498    23A     -0.595563    24A     -0.583914
      25A     -0.571950    26A     -0.557030    27A     -0.548726
      28A     -0.536419    29A     -0.520089    30A     -0.499566
      31A     -0.479742    32A     -0.476859    33A     -0.470191
      34A     -0.465372    35A     -0.451378    36A     -0.436023
      37A     -0.415575

  @DF-RHF Final Energy:  -388.25092406854100

   => Energetics <=

    Nuclear Repulsion Energy =            474.1951610778599502
    One-Electron Energy =               -1466.1811550267075290
    Two-Electron Energy =                 603.7350698803056730
    DFT Exchange-Correlation Energy =       0.0000000000000000
    Empirical Dispersion Energy =           0.0000000000000000
    PCM Polarization Energy =               0.0000000000000000
    EFP Energy =                            0.0000000000000000
    Total Energy =                       -388.2509240685419627

  Mulliken Charges: (a.u.)
   Center  Symbol    Alpha    Beta     Spin     Total
       1     H     0.27008  0.27008  0.00000  0.45985
       2     O     4.37892  4.37892  0.00000 -0.75783
       3     C     3.00440  3.00440  0.00000 -0.00881
       4     C     3.16507  3.16507  0.00000 -0.33013
       5     H     0.41312  0.41312  0.00000  0.17376
       6     H     0.42997  0.42997  0.00000  0.14005
       7     C     3.15338  3.15338  0.00000 -0.30676
       8     H     0.41295  0.41295  0.00000  0.17410
       9     H     0.42152  0.42152  0.00000  0.15696
      10     C     3.19053  3.19053  0.00000 -0.38106
      11     H     0.41654  0.41654  0.00000  0.16691
      12     H     0.41703  0.41703  0.00000  0.16594
      13     C     3.14795  3.14795  0.00000 -0.29590
      14     H     0.41662  0.41662  0.00000  0.16676
      15     H     0.42136  0.42136  0.00000  0.15727
      16     C     3.15371  3.15371  0.00000 -0.30742
      17     H     0.42155  0.42155  0.00000  0.15689
      18     H     0.42127  0.42127  0.00000  0.15746
      19     C     3.15156  3.15156  0.00000 -0.30312
      20     H     0.42455  0.42455  0.00000  0.15090
      21     H     0.42129  0.42129  0.00000  0.15743
      22     C     3.23937  3.23937  0.00000 -0.47875
      23     H     0.42271  0.42271  0.00000  0.15457
      24     H     0.42244  0.42244  0.00000  0.15512
      25     H     0.42168  0.42168  0.00000  0.15664
      26     H     0.41871  0.41871  0.00000  0.16258
      27     H     0.42172  0.42172  0.00000  0.15657

   Total alpha = 37.00000, Total beta = 37.00000, Total charge = -0.00000
