  ==> Input File <==

--------------------------------------------------------------------------
set {
	reference rhf
	basis cc-pvtz
}

set_num_threads( 4 )
memory 2 gb

molecule MOL {
0 1

H	 0.829917	 0.564415	 2.253216
C	 -0.126345	 0.621623	 1.754216
O	 -0.000000	 0.000000	 0.518769
H	 -0.874182	 0.130080	 2.373070
H	 -0.403389	 1.668358	 1.647222
C	 -1.165153	 0.000000	 -0.236961
H	 -1.229451	 0.882440	 -0.870223
H	 -2.002557	 0.000000	 0.445289
H	 -1.229451	 -0.882440	 -0.870223

	symmetry c1
}
set optking {
	frozen_dihedral = ("
		2 3 6 7
	")
}

ee = optimize('scf')
oeprop('DIPOLE', 'QUADRUPOLE', 'MULLIKEN_CHARGES')
f=open( 'psi4out.xyz', 'w' )
f.write( "9  " )
f.write( str(ee) + "\n" )
f.write( MOL.save_string_xyz() )
f.close()
--------------------------------------------------------------------------

    Molecular point group: c1
  Charge       = 0
  Multiplicity = 1
  Basis Set: CC-PVTZ
  Basis Set:
  @DF-RHF Final Energy:  -154.12422850710365
    Total Energy =                       -154.1242285071036235
    Molecular point group: c1
  Basis Set: CC-PVTZ
  Basis Set:
  Basis Set: CC-PVTZ
  Basis Set:
  @DF-RHF Final Energy:  -154.12518037460916
    Total Energy =                       -154.1251803746091014
  Basis Set: CC-PVTZ
  Basis Set:
  Basis Set: CC-PVTZ
  Basis Set:
  @DF-RHF Final Energy:  -154.12541094681995
    Total Energy =                       -154.1254109468200113
  Basis Set: CC-PVTZ
  Basis Set:
  Charge       = 0
  Multiplicity = 1
  Basis Set: CC-PVTZ
  Basis Set:

    Orbital Energies (a.u.)
    -----------------------

    Doubly Occupied:

       1A    -20.548667     2A    -11.263390     3A    -11.262824
       4A     -1.380414     5A     -0.975985     6A     -0.872468
       7A     -0.662134     8A     -0.654857     9A     -0.645900
      10A     -0.555372    11A     -0.528569    12A     -0.476214
      13A     -0.417671

  @DF-RHF Final Energy:  -154.12541232971321

   => Energetics <=

    Nuclear Repulsion Energy =             84.7174336122003524
    One-Electron Energy =                -377.1967596744907496
    Two-Electron Energy =                 138.3539137325770980
    DFT Exchange-Correlation Energy =       0.0000000000000000
    Empirical Dispersion Energy =           0.0000000000000000
    PCM Polarization Energy =               0.0000000000000000
    EFP Energy =                            0.0000000000000000
    Total Energy =                       -154.1254123297132992
    Molecular point group: c1
  Basis Set: CC-PVTZ
  Basis Set:

  -Total Gradient:
     Atom            X                  Y                   Z
    ------   -----------------  -----------------  -----------------
       1        0.000007284090    -0.000023965870    -0.000034471539
       2       -0.000726494928    -0.001973569853     0.000969297046
       3        0.001301945686     0.002510517013    -0.002128270389
       4       -0.000003712058    -0.000022682460    -0.000020124296
       5        0.000006104576    -0.000007354473     0.000011834767
       6       -0.002053483750     0.000994089766     0.003293830585
       7        0.001475171881    -0.001482432935    -0.002092960704
       8       -0.000037891718     0.000006563551     0.000011774779
       9        0.000031076223    -0.000001164742    -0.000010910247

  **** Optimization is complete! (in 4 steps) ****
    Final optimized geometry and variables:
    Molecular point group: c1

    Geometry (in Angstrom), charge = 0, multiplicity = 1:

    H            1.300612586831     0.340348405084     1.553499878330
    C            0.336886476006     0.412058396225     1.070296247078
    O            0.433871340299    -0.219086193196    -0.163475561508
    H           -0.408253016927    -0.065216667094     1.702501730790
    H            0.077777496699     1.464033916405     0.967150968820
    C           -0.733799714820    -0.210408604731    -0.920386374207
    H           -0.780498568590     0.667669255253    -1.559495358384
    H           -1.622470212202    -0.245872911525    -0.296839590200
    H           -0.727043372173    -1.084914646596    -1.557293011195

  Mulliken Charges: (a.u.)
   Center  Symbol    Alpha    Beta     Spin     Total
       1     H     0.44919  0.44919  0.00000  0.10161
       2     C     3.02145  3.02145  0.00000 -0.04290
       3     O     4.16986  4.16986  0.00000 -0.33972
       4     H     0.47216  0.47216  0.00000  0.05567
       5     H     0.47372  0.47372  0.00000  0.05255
       6     C     3.01944  3.01944  0.00000 -0.03888
       7     H     0.46686  0.46686  0.00000  0.06628
       8     H     0.47512  0.47512  0.00000  0.04976
       9     H     0.45219  0.45219  0.00000  0.09563

   Total alpha = 13.00000, Total beta = 13.00000, Total charge = -0.00000
