                              Psi4 1.0.54 Driver

  ==> Input File <==

--------------------------------------------------------------------------
set {
	reference rhf
	basis cc-pvtz
}

set_num_threads( 4 )
memory 2 gb

molecule MOL {
0 1

H	 -0.000339	 -0.223886	 -3.352295
C	 -0.027143	 0.371084	 -2.446756
C	 0.024496	 -0.518525	 -1.216015
H	 -0.932583	 0.964995	 -2.449855
H	 0.819711	 1.049881	 -2.473332
N	 -0.042513	 0.263393	 0.000000
H	 -0.822208	 -1.197089	 -1.225584
H	 0.921117	 -1.142831	 -1.255206
C	 0.024496	 -0.518525	 1.216015
H	 0.682571	 0.950428	 0.000000
C	 -0.027143	 0.371084	 2.446756
H	 -0.822208	 -1.197089	 1.225584
H	 0.921117	 -1.142831	 1.255206
H	 -0.932583	 0.964995	 2.449855
H	 -0.000339	 -0.223886	 3.352295
H	 0.819711	 1.049881	 2.473332

	symmetry c1
}
ee,wfn = energy('scf', return_wfn=True)
oeprop( wfn, 'DIPOLE', 'QUADRUPOLE', 'MULLIKEN_CHARGES')
oeprop( wfn, 'GRID_ESP')
f=open( 'psi4out.xyz', 'w' )
f.write( "16  " )
f.write( str(ee) + "\n" )
f.write( MOL.save_string_xyz() )
f.close()
--------------------------------------------------------------------------

    Molecular point group: c1

    Geometry (in Angstrom), charge = 0, multiplicity = 1:

       Center              X                  Y                   Z               Mass
    ------------   -----------------  -----------------  -----------------  -----------------
           H         -0.000342333293    -0.223901624908    -3.352295000000     1.007825032070
           C         -0.027146333293     0.371068375092    -2.446756000000    12.000000000000
           C          0.024492666707    -0.518540624908    -1.216015000000    12.000000000000
           H         -0.932586333293     0.964979375092    -2.449855000000     1.007825032070
           H          0.819707666707     1.049865375092    -2.473332000000     1.007825032070
           N         -0.042516333293     0.263377375092     0.000000000000    14.003074004780
           H         -0.822211333293    -1.197104624908    -1.225584000000     1.007825032070
           H          0.921113666707    -1.142846624908    -1.255206000000     1.007825032070
           C          0.024492666707    -0.518540624908     1.216015000000    12.000000000000
           H          0.682567666707     0.950412375092     0.000000000000     1.007825032070
           C         -0.027146333293     0.371068375092     2.446756000000    12.000000000000
           H         -0.822211333293    -1.197104624908     1.225584000000     1.007825032070
           H          0.921113666707    -1.142846624908     1.255206000000     1.007825032070
           H         -0.932586333293     0.964979375092     2.449855000000     1.007825032070
           H         -0.000342333293    -0.223901624908     3.352295000000     1.007825032070
           H          0.819707666707     1.049865375092     2.473332000000     1.007825032070

  Charge       = 0
  Multiplicity = 1
  Basis Set: CC-PVTZ
  Basis Set:

    Orbital Energies (a.u.)
    -----------------------

    Doubly Occupied:

       1A    -15.528845     2A    -11.238999     3A    -11.238982
       4A    -11.206586     5A    -11.206585     6A     -1.207494
       7A     -1.029242     8A     -0.963984     9A     -0.832388
      10A     -0.822486    11A     -0.662582    12A     -0.629580
      13A     -0.599388    14A     -0.590863    15A     -0.553914
      16A     -0.521555    17A     -0.508545    18A     -0.489428
      19A     -0.482305    20A     -0.475202    21A     -0.362292

  @DF-RHF Final Energy:  -212.39468875299218

   => Energetics <=

    Nuclear Repulsion Energy =            189.4373165255678941
    One-Electron Energy =                -661.3616396462016382
    Two-Electron Energy =                 259.5296343676415631
    DFT Exchange-Correlation Energy =       0.0000000000000000
    Empirical Dispersion Energy =           0.0000000000000000
    PCM Polarization Energy =               0.0000000000000000
    EFP Energy =                            0.0000000000000000
    Total Energy =                       -212.3946887529921810

  Mulliken Charges: (a.u.)
   Center  Symbol    Alpha    Beta     Spin     Total
       1     H     0.45386  0.45386  0.00000  0.09227
       2     C     3.14201  3.14201  0.00000 -0.28403
       3     C     3.02192  3.02192  0.00000 -0.04384
       4     H     0.44950  0.44950  0.00000  0.10099
       5     H     0.45949  0.45949  0.00000  0.08102
       6     N     3.63614  3.63614  0.00000 -0.27228
       7     H     0.45856  0.45856  0.00000  0.08289
       8     H     0.47405  0.47405  0.00000  0.05189
       9     C     3.02192  3.02192  0.00000 -0.04384
      10     H     0.44505  0.44505  0.00000  0.10991
      11     C     3.14201  3.14201  0.00000 -0.28403
      12     H     0.45856  0.45856  0.00000  0.08289
      13     H     0.47405  0.47405  0.00000  0.05189
      14     H     0.44950  0.44950  0.00000  0.10099
      15     H     0.45386  0.45386  0.00000  0.09227
      16     H     0.45949  0.45949  0.00000  0.08102

   Total alpha = 21.00000, Total beta = 21.00000, Total charge =  0.00000

*** Psi4 exiting successfully. Buy a developer a beer!
