  ==> Input File <==

--------------------------------------------------------------------------
set {
	reference rhf
	basis 6-31G*
}

set_num_threads( 4 )
memory 2 gb

molecule MOL {
0 1

O	 -2.821601	 1.309235	 -0.001213
C	 -2.668563	 0.129746	 -0.000350
C	 -3.801572	 -0.864014	 -0.000442
O	 -1.481751	 -0.454642	 0.000584
H	 -4.417280	 -0.689587	 -0.874708
H	 -3.443784	 -1.883046	 -0.000565
H	 -4.417179	 -0.689832	 0.873954
C	 -0.334255	 0.388708	 0.000906
C	 0.891947	 -0.504646	 0.000751
H	 -0.365390	 1.025305	 -0.873475
H	 -0.365484	 1.024911	 0.875569
C	 2.191998	 0.301789	 0.000897
H	 0.855148	 -1.151283	 -0.871571
H	 0.855132	 -1.151660	 0.872805
C	 2.015770	 1.716485	 -0.553994
H	 2.582987	 0.361437	 1.015124
H	 2.944787	 -0.221551	 -0.586050
C	 3.314010	 2.522362	 -0.552579
H	 1.264094	 2.241002	 0.031616
H	 1.627294	 1.658706	 -1.568301
H	 3.709910	 2.626569	 0.453611
H	 3.157121	 3.519793	 -0.951015
H	 4.075711	 2.040095	 -1.158583

	symmetry c1
}
set optking {
	frozen_dihedral = ("
		16 12 9 13
	")
}

ee = optimize('scf')
oeprop('DIPOLE', 'QUADRUPOLE', 'MULLIKEN_CHARGES')
f=open( 'psi4out.xyz', 'w' )
f.write( "23  " )
f.write( str(ee) + "\n" )
f.write( MOL.save_string_xyz() )
f.close()
--------------------------------------------------------------------------

    Molecular point group: c1
  Charge       = 0
  Multiplicity = 1
  Basis Set: 6-31G*
  Basis Set:
  @DF-RHF Final Energy:  -422.96932656926020
    Total Energy =                       -422.9693265692608293
    Molecular point group: c1
  Basis Set: 6-31G*
  Basis Set:
  Basis Set: 6-31G*
  Basis Set:
  @DF-RHF Final Energy:  -422.97061493140018
    Total Energy =                       -422.9706149313997230
  Basis Set: 6-31G*
  Basis Set:
  Basis Set: 6-31G*
  Basis Set:
  @DF-RHF Final Energy:  -422.97283622424754
    Total Energy =                       -422.9728362242481126
  Basis Set: 6-31G*
  Basis Set:
  Basis Set: 6-31G*
  Basis Set:
  @DF-RHF Final Energy:  -422.97308791861639
    Total Energy =                       -422.9730879186166703
  Basis Set: 6-31G*
  Basis Set:
  @DF-RHF Final Energy:  -422.97303199446281
    Total Energy =                       -422.9730319944630992
  @DF-RHF Final Energy:  -422.97294286721927
    Total Energy =                       -422.9729428672200129
  Basis Set: 6-31G*
  Basis Set:
  @DF-RHF Final Energy:  -422.97312381236134
    Total Energy =                       -422.9731238123611092
  Basis Set: 6-31G*
  Basis Set:
  Basis Set: 6-31G*
  Basis Set:
  @DF-RHF Final Energy:  -422.97311613765226
    Total Energy =                       -422.9731161376521413
  Basis Set: 6-31G*
  Basis Set:
  Basis Set: 6-31G*
  Basis Set:
  @DF-RHF Final Energy:  -422.97313062665171
    Total Energy =                       -422.9731306266520505
  Basis Set: 6-31G*
  Basis Set:
  Charge       = 0
  Multiplicity = 1
  Basis Set: 6-31G*
  Basis Set:

    Orbital Energies (a.u.)
    -----------------------

    Doubly Occupied:

       1A    -20.602789     2A    -20.540415     3A    -11.373963
       4A    -11.281244     5A    -11.232278     6A    -11.224231
       7A    -11.223643     8A    -11.222461     9A    -11.213183
      10A     -1.467773    11A     -1.360604    12A     -1.091971
      13A     -1.040277    14A     -1.001947    15A     -0.931813
      16A     -0.853743    17A     -0.788975    18A     -0.778246
      19A     -0.690153    20A     -0.684714    21A     -0.667293
      22A     -0.641182    23A     -0.606461    24A     -0.588600
      25A     -0.577834    26A     -0.571306    27A     -0.565418
      28A     -0.528625    29A     -0.524576    30A     -0.513370
      31A     -0.497307    32A     -0.474641    33A     -0.462944
      34A     -0.462386    35A     -0.448430    36A     -0.435697

  @DF-RHF Final Energy:  -422.97313067003802

   => Energetics <=

    Nuclear Repulsion Energy =            456.8831949395615766
    One-Electron Energy =               -1481.3716640545644623
    Two-Electron Energy =                 601.5153384449652094
    DFT Exchange-Correlation Energy =       0.0000000000000000
    Empirical Dispersion Energy =           0.0000000000000000
    PCM Polarization Energy =               0.0000000000000000
    EFP Energy =                            0.0000000000000000
    Total Energy =                       -422.9731306700375626
    Molecular point group: c1
  Basis Set: 6-31G*
  Basis Set:

  -Total Gradient:
     Atom            X                  Y                   Z
    ------   -----------------  -----------------  -----------------
       1       -0.000004931867     0.000002239780     0.000018528768
       2        0.000001506305     0.000003769535    -0.000026183477
       3        0.000001987682     0.000000625397     0.000010168077
       4        0.000002422242    -0.000001007604     0.000019174441
       5        0.000001783453    -0.000000394660    -0.000002895081
       6        0.000000565861    -0.000000432911    -0.000000127720
       7       -0.000000003336     0.000001642093    -0.000002433964
       8        0.000001970624     0.000002478060    -0.000035331114
       9       -0.002364932073     0.004379878292    -0.004125931421
      10        0.000005329406    -0.000001872469     0.000008177753
      11       -0.000014577593     0.000000482036     0.000010374925
      12       -0.003193677448     0.005131929948     0.001821002601
      13        0.002489956811    -0.004478396868     0.003158545353
      14       -0.000001346728    -0.000001024974    -0.000003297827
      15       -0.000006512922     0.000007359679     0.000020093664
      16        0.003074041241    -0.005046706052    -0.000866488964
      17        0.000005398027    -0.000004453852     0.000004048717
      18        0.000002983932    -0.000002428070    -0.000016885400
      19       -0.000005106746    -0.000001564291     0.000003776078
      20        0.000002712570     0.000006635773     0.000004343391
      21       -0.000006083549     0.000006247132     0.000000493143
      22        0.000004637104    -0.000000622804    -0.000008249089
      23        0.000001876999    -0.000004383167     0.000009097145

  **** Optimization is complete! (in 10 steps) ****
    Final optimized geometry and variables:
    Molecular point group: c1

    Geometry (in Angstrom), charge = 0, multiplicity = 1:

    O           -2.637027526369     0.711420024091     0.189764150491
    C           -2.416089876611    -0.456857499529     0.156865365074
    C           -3.489618578143    -1.514597563231     0.163106602157
    O           -1.198225804299    -0.971241858922     0.111483362246
    H           -4.140008997137    -1.355251352151    -0.688628549691
    H           -3.074001858910    -2.510778842798     0.126656025598
    H           -4.088002971787    -1.397676411631     1.058738717323
    C           -0.101563104118    -0.061736421905     0.098932884115
    C            1.163618776700    -0.898268647369     0.045067723382
    H           -0.203550731057     0.592607990775    -0.754484058721
    H           -0.142254565105     0.547413654965     0.992398659507
    C            2.486111689664    -0.105765218794     0.127089497546
    H            1.154657795132    -1.527223202803    -0.839853624113
    H            1.128607097100    -1.595000585164     0.877776640522
    C            2.485752181400     1.301150724639    -0.476911178002
    H            2.826879560630    -0.074058198886     1.159139691860
    H            3.245636994111    -0.690782141526    -0.386746853671
    C            3.866825353057     1.953218203892    -0.420090508632
    H            1.773957243433     1.936261450791     0.043502561846
    H            2.155103238852     1.252519341998    -1.512183269657
    H            4.215214265481     2.042880122431     0.604897605533
    H            3.847987534159     2.949015063764    -0.851370820261
    H            4.599814428155     1.368142797566    -0.968088787432

  Mulliken Charges: (a.u.)
   Center  Symbol    Alpha    Beta     Spin     Total
       1     O     4.28405  4.28405  0.00000 -0.56809
       2     C     2.61540  2.61540  0.00000  0.76920
       3     C     3.28779  3.28779  0.00000 -0.57558
       4     O     4.31317  4.31317  0.00000 -0.62634
       5     H     0.39754  0.39754  0.00000  0.20492
       6     H     0.39987  0.39987  0.00000  0.20026
       7     H     0.39754  0.39754  0.00000  0.20493
       8     C     2.99900  2.99900  0.00000  0.00200
       9     C     3.16742  3.16742  0.00000 -0.33483
      10     H     0.40822  0.40822  0.00000  0.18356
      11     H     0.41069  0.41069  0.00000  0.17863
      12     C     3.15974  3.15974  0.00000 -0.31948
      13     H     0.41321  0.41321  0.00000  0.17359
      14     H     0.41232  0.41232  0.00000  0.17535
      15     C     3.15979  3.15979  0.00000 -0.31958
      16     H     0.41888  0.41888  0.00000  0.16223
      17     H     0.41840  0.41840  0.00000  0.16320
      18     C     3.23945  3.23945  0.00000 -0.47891
      19     H     0.41844  0.41844  0.00000  0.16311
      20     H     0.42045  0.42045  0.00000  0.15910
      21     H     0.42059  0.42059  0.00000  0.15882
      22     H     0.41710  0.41710  0.00000  0.16579
      23     H     0.42095  0.42095  0.00000  0.15811

   Total alpha = 36.00000, Total beta = 36.00000, Total charge = -0.00000
