                              Psi4 1.0.54 Driver

  ==> Input File <==

--------------------------------------------------------------------------
set {
	reference rhf
	basis cc-pvtz
}

set_num_threads( 4 )
memory 2 gb

molecule MOL {
0 1

O	 -0.694481	 1.313155	 -0.204815
C	 -0.862519	 0.151932	 -0.046791
C	 -2.171428	 -0.477048	 0.339095
O	 0.085519	 -0.757083	 -0.192238
H	 -2.467997	 -1.191667	 -0.417688
H	 -2.923379	 0.287970	 0.444097
H	 -2.053854	 -1.015120	 1.270901
C	 1.244471	 -0.675109	 0.629097
C	 1.030572	 -1.349448	 1.968281
H	 1.518563	 0.360710	 0.754669
H	 2.015894	 -1.177096	 0.064591
H	 1.952553	 -1.325686	 2.538226
H	 0.265250	 -0.841508	 2.538950
H	 0.740217	 -2.384398	 1.833505

	symmetry c1
}
set optking {
	frozen_dihedral = ("
		8 4 2 1
	")
}

ee,wfn = optimize('scf', return_wfn=True)
oeprop( wfn, 'DIPOLE', 'QUADRUPOLE', 'MULLIKEN_CHARGES')
f=open( 'psi4out.xyz', 'w' )
f.write( "14  " )
f.write( str(ee) + "\n" )
f.write( MOL.save_string_xyz() )
f.close()
--------------------------------------------------------------------------

    Molecular point group: c1
  Charge       = 0
  Multiplicity = 1
  Basis Set: CC-PVTZ
  Basis Set:
  @DF-RHF Final Energy:  -305.97639173383868
    Total Energy =                       -305.9763917338385681
    Molecular point group: c1
  Basis Set: CC-PVTZ
  Basis Set:
  Basis Set: CC-PVTZ
  Basis Set:
  @DF-RHF Final Energy:  -305.97561632915904
    Total Energy =                       -305.9756163291590951
  Basis Set: CC-PVTZ
  Basis Set:
  Basis Set: CC-PVTZ
  Basis Set:
  @DF-RHF Final Energy:  -305.97774405981750
    Total Energy =                       -305.9777440598174394
  Basis Set: CC-PVTZ
  Basis Set:
  Basis Set: CC-PVTZ
  Basis Set:
  @DF-RHF Final Energy:  -305.97779338566210
    Total Energy =                       -305.9777933856623804
  Basis Set: CC-PVTZ
  Basis Set:
  Basis Set: CC-PVTZ
  Basis Set:
  @DF-RHF Final Energy:  -305.97780207238816
    Total Energy =                       -305.9778020723878740
  Basis Set: CC-PVTZ
  Basis Set:
  Basis Set: CC-PVTZ
  Basis Set:
  @DF-RHF Final Energy:  -305.97780532434359
    Total Energy =                       -305.9778053243437625
  Basis Set: CC-PVTZ
  Basis Set:
  Charge       = 0
  Multiplicity = 1
  Basis Set: CC-PVTZ
  Basis Set:

    Orbital Energies (a.u.)
    -----------------------

    Doubly Occupied:

       1A    -20.580394     2A    -20.541101     3A    -11.369360
       4A    -11.289081     5A    -11.233455     6A    -11.226662
       7A     -1.462700     8A     -1.367344     9A     -1.051674
      10A     -1.008136    11A     -0.885498    12A     -0.764875
      13A     -0.698282    14A     -0.683674    15A     -0.668621
      16A     -0.616106    17A     -0.592428    18A     -0.573020
      19A     -0.559166    20A     -0.547596    21A     -0.513706
      22A     -0.496058    23A     -0.453159    24A     -0.441407

  @DF-RHF Final Energy:  -305.97780571750775

   => Energetics <=

    Nuclear Repulsion Energy =            248.8983839275588252
    One-Electron Energy =                -910.5053756945528676
    Two-Electron Energy =                 355.6291860494862931
    DFT Exchange-Correlation Energy =       0.0000000000000000
    Empirical Dispersion Energy =           0.0000000000000000
    PCM Polarization Energy =               0.0000000000000000
    EFP Energy =                            0.0000000000000000
    Total Energy =                       -305.9778057175077493
    Molecular point group: c1
  Basis Set: CC-PVTZ
  Basis Set:

  -Total Gradient:
     Atom            X                  Y                   Z
    ------   -----------------  -----------------  -----------------
       1       -0.002307561504     0.000102183749    -0.009428507258
       2        0.001594213599    -0.002664995335     0.016283923762
       3        0.000043266051     0.000008705429     0.000059112022
       4        0.004239890019     0.007476542880    -0.011580650362
       5       -0.000000166194     0.000018185500    -0.000007587914
       6       -0.000019313183    -0.000000671021    -0.000010999392
       7        0.000007173991    -0.000000328243    -0.000034625538
       8       -0.003555838964    -0.004914541443     0.004714743989
       9       -0.000000600740    -0.000008674778     0.000008337070
      10        0.000001275831    -0.000009288276    -0.000008482353
      11       -0.000005240673     0.000001803540    -0.000006375775
      12       -0.000002026273    -0.000004166721     0.000006417711
      13        0.000005787842    -0.000007749968    -0.000005714830
      14       -0.000000859801     0.000002994694     0.000010408869

  **** Optimization is complete! (in 7 steps) ****
    Final optimized geometry and variables:
    Molecular point group: c1

    Geometry (in Angstrom), charge = 0, multiplicity = 1:

    O           -0.420084509276     1.642109731092    -0.440990888340
    C           -0.624044683661     0.481338420669    -0.409692698221
    C           -1.979902635098    -0.138865064924    -0.231780063304
    O            0.329360427407    -0.428356338047    -0.657662459135
    H           -2.194852064230    -0.770175835759    -1.084533142736
    H           -2.730065367240     0.629530204018    -0.136576626541
    H           -1.978382104780    -0.771669147213     0.647161838474
    C            1.479582718859    -0.443404647084     0.175225492619
    C            1.197624913976    -1.088352053803     1.517288404034
    H            1.846232388706     0.566974599267     0.293960256771
    H            2.217742023423    -1.009371436085    -0.372080630840
    H            2.113785756384    -1.142449268665     2.093966711580
    H            0.479968852776    -0.512821013775     2.090901832159
    H            0.813129522049    -2.092572201566     1.389058923166

  Mulliken Charges: (a.u.)
   Center  Symbol    Alpha    Beta     Spin     Total
       1     O     4.17952  4.17952  0.00000 -0.35904
       2     C     2.80300  2.80300  0.00000  0.39400
       3     C     3.13717  3.13717  0.00000 -0.27435
       4     O     4.17270  4.17270  0.00000 -0.34540
       5     H     0.44328  0.44328  0.00000  0.11344
       6     H     0.43766  0.43766  0.00000  0.12468
       7     H     0.44963  0.44963  0.00000  0.10074
       8     C     2.98569  2.98569  0.00000  0.02861
       9     C     3.15014  3.15014  0.00000 -0.30028
      10     H     0.44730  0.44730  0.00000  0.10540
      11     H     0.44608  0.44608  0.00000  0.10784
      12     H     0.44593  0.44593  0.00000  0.10815
      13     H     0.45287  0.45287  0.00000  0.09427
      14     H     0.44904  0.44904  0.00000  0.10192

   Total alpha = 24.00000, Total beta = 24.00000, Total charge = -0.00000

*** Psi4 exiting successfully. Buy a developer a beer!
