  ==> Input File <==

--------------------------------------------------------------------------
set {
	reference rhf
	basis 6-31G*
}

set_num_threads( 4 )
memory 2 gb

molecule MOL {
0 1

H	 -2.698709	 -0.000305	 0.034435
C	 -1.693833	 0.000034	 0.434417
O	 -0.828952	 -0.000968	 -0.659236
H	 -1.574200	 0.882896	 1.055746
H	 -1.574147	 -0.881698	 1.057355
C	 0.559449	 -0.000018	 -0.420814
C	 1.070098	 1.357508	 0.058015
C	 0.996896	 -1.140980	 0.495595
H	 0.978130	 -0.184312	 -1.403043
H	 0.699245	 2.147471	 -0.586170
H	 2.155041	 1.376654	 0.030310
H	 0.766142	 1.574815	 1.077110
H	 0.574807	 -2.080188	 0.154735
H	 2.078725	 -1.230547	 0.486147
H	 0.692049	 -0.981359	 1.524881

	symmetry c1
}
set optking {
	frozen_dihedral = ("
		9 6 3 2
	")
}

ee = optimize('scf')
oeprop('DIPOLE', 'QUADRUPOLE', 'MULLIKEN_CHARGES')
f=open( 'psi4out.xyz', 'w' )
f.write( "15  " )
f.write( str(ee) + "\n" )
f.write( MOL.save_string_xyz() )
f.close()
--------------------------------------------------------------------------

    Molecular point group: c1
  Charge       = 0
  Multiplicity = 1
  Basis Set: 6-31G*
  Basis Set:
  @DF-RHF Final Energy:  -232.13747338188332
    Total Energy =                       -232.1374733818834102
    Molecular point group: c1
  Basis Set: 6-31G*
  Basis Set:
  Basis Set: 6-31G*
  Basis Set:
  @DF-RHF Final Energy:  -232.13759150698564
    Total Energy =                       -232.1375915069856433
  Basis Set: 6-31G*
  Basis Set:
  Basis Set: 6-31G*
  Basis Set:
  @DF-RHF Final Energy:  -232.13764082546172
    Total Energy =                       -232.1376408254618582
  Basis Set: 6-31G*
  Basis Set:
  Basis Set: 6-31G*
  Basis Set:
  @DF-RHF Final Energy:  -232.13764680606448
    Total Energy =                       -232.1376468060643106
  Basis Set: 6-31G*
  Basis Set:
  Basis Set: 6-31G*
  Basis Set:
  @DF-RHF Final Energy:  -232.13765097899400
    Total Energy =                       -232.1376509789939746
  Basis Set: 6-31G*
  Basis Set:
  Charge       = 0
  Multiplicity = 1
  Basis Set: 6-31G*
  Basis Set:

    Orbital Energies (a.u.)
    -----------------------

    Doubly Occupied:

       1A    -20.548262     2A    -11.274318     3A    -11.261221
       4A    -11.211901     5A    -11.209245     6A     -1.370344
       7A     -1.050514     8A     -0.940734     9A     -0.930079
      10A     -0.781251    11A     -0.674466    12A     -0.640742
      13A     -0.633192    14A     -0.573394    15A     -0.563673
      16A     -0.552717    17A     -0.534222    18A     -0.499184
      19A     -0.496023    20A     -0.443376    21A     -0.406050

  @DF-RHF Final Energy:  -232.13765125143777

   => Energetics <=

    Nuclear Repulsion Energy =            198.8000539003916174
    One-Electron Energy =                -708.6855936600968562
    Two-Electron Energy =                 277.7478885082675220
    DFT Exchange-Correlation Energy =       0.0000000000000000
    Empirical Dispersion Energy =           0.0000000000000000
    PCM Polarization Energy =               0.0000000000000000
    EFP Energy =                            0.0000000000000000
    Total Energy =                       -232.1376512514377168
    Molecular point group: c1
  Basis Set: 6-31G*
  Basis Set:

  -Total Gradient:
     Atom            X                  Y                   Z
    ------   -----------------  -----------------  -----------------
       1        0.000002642963     0.000000772642    -0.000000268072
       2        0.000000244354    -0.000740085592     0.000005072533
       3        0.000004648681     0.000954795301     0.000026545740
       4        0.000001214941     0.000002023123    -0.000008210055
       5       -0.000010248938     0.000001130541     0.000010058097
       6        0.000028340732     0.000607577517    -0.000196288494
       7       -0.000013973471    -0.000003062973     0.000008217674
       8        0.000013319537     0.000003674224     0.000004333934
       9       -0.000015964578    -0.000830068791     0.000150237171
      10       -0.000001849069     0.000006076398    -0.000002808378
      11       -0.000015505255    -0.000011298060    -0.000006821342
      12        0.000004270442     0.000007201453     0.000011623546
      13       -0.000002190279     0.000005163358     0.000001537284
      14        0.000004338504    -0.000004681434     0.000004099542
      15        0.000000711440     0.000000782292    -0.000007329179

  **** Optimization is complete! (in 6 steps) ****
    Final optimized geometry and variables:
    Molecular point group: c1

    Geometry (in Angstrom), charge = 0, multiplicity = 1:

    H           -2.693371245169     0.070197013249     0.047434563904
    C           -1.692138753647    -0.040618904963     0.441379719416
    O           -0.829856593372    -0.050050465972    -0.654326258623
    H           -1.498030302588     0.787540115710     1.117487149683
    H           -1.647288674945    -0.966925330906     1.006465439017
    C            0.559296997259    -0.049442796536    -0.418053291391
    C            1.052685722260     1.316870769263     0.052483100254
    C            1.010690334127    -1.179841278126     0.504793832426
    H            0.979237294388    -0.240672354407    -1.398464011425
    H            0.697084369492     2.092690894822    -0.616377084915
    H            2.138091361933     1.342683784819     0.060240156181
    H            0.712679386368     1.549428999501     1.056737121934
    H            0.601144382958    -2.127972865243     0.172748901029
    H            2.093363032041    -1.255397341146     0.491013724867
    H            0.707804250031    -1.016473125571     1.534201847851

  Mulliken Charges: (a.u.)
   Center  Symbol    Alpha    Beta     Spin     Total
       1     H     0.41255  0.41255  0.00000  0.17489
       2     C     3.08155  3.08155  0.00000 -0.16310
       3     O     4.31221  4.31221  0.00000 -0.62441
       4     H     0.43074  0.43074  0.00000  0.13852
       5     H     0.42804  0.42804  0.00000  0.14391
       6     C     2.90879  2.90879  0.00000  0.18241
       7     C     3.24932  3.24932  0.00000 -0.49864
       8     C     3.25678  3.25678  0.00000 -0.51356
       9     H     0.41544  0.41544  0.00000  0.16912
      10     H     0.41132  0.41132  0.00000  0.17737
      11     H     0.42099  0.42099  0.00000  0.15802
      12     H     0.42193  0.42193  0.00000  0.15613
      13     H     0.41175  0.41175  0.00000  0.17650
      14     H     0.41789  0.41789  0.00000  0.16421
      15     H     0.42069  0.42069  0.00000  0.15862

   Total alpha = 21.00000, Total beta = 21.00000, Total charge = -0.00000
