  ==> Input File <==

--------------------------------------------------------------------------
set {
	reference rhf
	basis 6-31G*
}

set_num_threads( 4 )
memory 2 gb

molecule MOL {
0 1

H	 1.331006	 1.416617	 0.984079
O	 0.522277	 0.916455	 1.034344
C	 0.489431	 0.077273	 0.000046
C	 -0.764129	 -0.759190	 0.000191
O	 1.363387	 0.026476	 -0.802565
C	 -2.038368	 0.075731	 -0.000248
H	 -0.717284	 -1.412404	 -0.866059
H	 -0.717458	 -1.411724	 0.866967
H	 -2.086483	 0.712501	 -0.875098
H	 -2.908485	 -0.571682	 -0.000042
H	 -2.086576	 0.713280	 0.874068

	symmetry c1
}
set optking {
	frozen_dihedral = ("
		2 3 4 7
	")
}

ee = optimize('scf')
oeprop('DIPOLE', 'QUADRUPOLE', 'MULLIKEN_CHARGES')
f=open( 'psi4out.xyz', 'w' )
f.write( "11  " )
f.write( str(ee) + "\n" )
f.write( MOL.save_string_xyz() )
f.close()
--------------------------------------------------------------------------

    Molecular point group: c1
  Charge       = 0
  Multiplicity = 1
  Basis Set: 6-31G*
  Basis Set:
  @DF-RHF Final Energy:  -266.84421684807546
    Total Energy =                       -266.8442168480755186
    Molecular point group: c1
  Basis Set: 6-31G*
  Basis Set:
  Basis Set: 6-31G*
  Basis Set:
  @DF-RHF Final Energy:  -266.84437726928240
    Total Energy =                       -266.8443772692822336
  Basis Set: 6-31G*
  Basis Set:
  Basis Set: 6-31G*
  Basis Set:
  @DF-RHF Final Energy:  -266.84391856450782
    Total Energy =                       -266.8439185645079306
  Basis Set: 6-31G*
  Basis Set:
  Basis Set: 6-31G*
  Basis Set:
  @DF-RHF Final Energy:  -266.84450617933936
    Total Energy =                       -266.8445061793396462
  Basis Set: 6-31G*
  Basis Set:
  Basis Set: 6-31G*
  Basis Set:
  @DF-RHF Final Energy:  -266.84450803100890
    Total Energy =                       -266.8445080310088997
  Basis Set: 6-31G*
  Basis Set:
  Charge       = 0
  Multiplicity = 1
  Basis Set: 6-31G*
  Basis Set:

    Orbital Energies (a.u.)
    -----------------------

    Doubly Occupied:

       1A    -20.614159     2A    -20.551218     3A    -11.381192
       4A    -11.243282     5A    -11.229033     6A     -1.475311
       7A     -1.365660     8A     -1.067606     9A     -0.911383
      10A     -0.818616    11A     -0.701673    12A     -0.683469
      13A     -0.643870    14A     -0.612585    15A     -0.590544
      16A     -0.546589    17A     -0.526537    18A     -0.511506
      19A     -0.476985    20A     -0.440739

  @DF-RHF Final Energy:  -266.84450827350884

   => Energetics <=

    Nuclear Repulsion Energy =            180.0280155313116950
    One-Electron Energy =                -720.9611338929485100
    Two-Electron Energy =                 274.0886100881283483
    DFT Exchange-Correlation Energy =       0.0000000000000000
    Empirical Dispersion Energy =           0.0000000000000000
    PCM Polarization Energy =               0.0000000000000000
    EFP Energy =                            0.0000000000000000
    Total Energy =                       -266.8445082735084952
    Molecular point group: c1
  Basis Set: 6-31G*
  Basis Set:

  -Total Gradient:
     Atom            X                  Y                   Z
    ------   -----------------  -----------------  -----------------
       1       -0.000000449696    -0.000007794588    -0.000003687573
       2       -0.000125464796     0.000175484345    -0.000113555404
       3        0.000160534453    -0.000203683414     0.000114369846
       4        0.000097176587    -0.000136751295     0.000146268204
       5       -0.000011111824     0.000004397286     0.000004953537
       6        0.000012848336    -0.000020375789    -0.000000982847
       7       -0.000124354926     0.000193187367    -0.000141358765
       8        0.000002063283    -0.000005122142    -0.000007336585
       9       -0.000000874517     0.000001266843     0.000003782934
      10       -0.000011050397    -0.000000794314     0.000000485393
      11        0.000000683496     0.000000185701    -0.000002938745

  **** Optimization is complete! (in 6 steps) ****
    Final optimized geometry and variables:
    Molecular point group: c1

    Geometry (in Angstrom), charge = 0, multiplicity = 1:

    H            1.414056548347     1.315027893613     0.913162444838
    O            0.603678432752     0.818645283725     0.974012209628
    C            0.553528239049    -0.018547063187    -0.062082717169
    C           -0.696794176680    -0.859654178967    -0.060441189226
    O            1.419956726205    -0.070395202362    -0.873053413192
    C           -1.981043971286    -0.023916539687    -0.063119108117
    H           -0.648208778224    -1.500962636638    -0.929683712996
    H           -0.669068914250    -1.487022838463     0.825502309126
    H           -2.026028239592     0.620184817476    -0.935116145622
    H           -2.845914110752    -0.677173205464    -0.087579918145
    H           -2.047600837470     0.596036067447     0.821845229476

  Mulliken Charges: (a.u.)
   Center  Symbol    Alpha    Beta     Spin     Total
       1     H     0.26732  0.26732  0.00000  0.46536
       2     O     4.34730  4.34730  0.00000 -0.69461
       3     C     2.63007  2.63007  0.00000  0.73985
       4     C     3.20160  3.20160  0.00000 -0.40320
       5     O     4.27869  4.27869  0.00000 -0.55737
       6     C     3.24956  3.24956  0.00000 -0.49911
       7     H     0.39593  0.39593  0.00000  0.20815
       8     H     0.40093  0.40093  0.00000  0.19815
       9     H     0.41222  0.41222  0.00000  0.17556
      10     H     0.41181  0.41181  0.00000  0.17638
      11     H     0.40458  0.40458  0.00000  0.19083

   Total alpha = 20.00000, Total beta = 20.00000, Total charge = -0.00000
