                              Psi4 1.0.54 Driver

  ==> Input File <==

--------------------------------------------------------------------------
set {
	reference rhf
	basis cc-pvtz
}

set_num_threads( 4 )
memory 2 gb

molecule MOL {
0 1

H	 3.721907	 -0.933076	 -0.066039
O	 2.824271	 -1.154299	 0.131461
C	 2.076458	 -0.067370	 -0.038225
C	 0.626018	 -0.337582	 0.258241
O	 2.538288	 0.965419	 -0.381593
C	 -0.267326	 0.883135	 0.076490
H	 0.325620	 -1.161483	 -0.378003
H	 0.574537	 -0.713685	 1.275261
C	 -1.726822	 0.642622	 0.463839
H	 -0.210803	 1.217591	 -0.953497
H	 0.129920	 1.693110	 0.675679
C	 -2.480891	 -0.340606	 -0.429852
H	 -2.243098	 1.597649	 0.438609
H	 -1.776542	 0.301208	 1.495542
C	 -2.784098	 0.231981	 -1.810679
H	 -1.892254	 -1.247756	 -0.537648
H	 -3.413508	 -0.635331	 0.040593
H	 -3.316719	 -0.484991	 -2.424642
H	 -1.871355	 0.500740	 -2.331608
H	 -3.396710	 1.124489	 -1.737944

	symmetry c1
}
set optking {
	frozen_dihedral = ("
		16 12 9 6
	")
}

ee,wfn = optimize('scf', return_wfn=True)
oeprop( wfn, 'DIPOLE', 'QUADRUPOLE', 'MULLIKEN_CHARGES')
f=open( 'psi4out.xyz', 'w' )
f.write( "20  " )
f.write( str(ee) + "\n" )
f.write( MOL.save_string_xyz() )
f.close()
--------------------------------------------------------------------------

    Molecular point group: c1
  Charge       = 0
  Multiplicity = 1
  Basis Set: CC-PVTZ
  Basis Set:
  @DF-RHF Final Energy:  -384.09267736427302
    Total Energy =                       -384.0926773642728449
    Molecular point group: c1
  Basis Set: CC-PVTZ
  Basis Set:
  Basis Set: CC-PVTZ
  Basis Set:
  @DF-RHF Final Energy:  -384.09297571523462
    Total Energy =                       -384.0929757152350703
  Basis Set: CC-PVTZ
  Basis Set:
  Basis Set: CC-PVTZ
  Basis Set:
  @DF-RHF Final Energy:  -384.09304567086082
    Total Energy =                       -384.0930456708608745
  Basis Set: CC-PVTZ
  Basis Set:
  Basis Set: CC-PVTZ
  Basis Set:
  @DF-RHF Final Energy:  -384.09290947073765
    Total Energy =                       -384.0929094707378226
  Basis Set: CC-PVTZ
  Basis Set:
  Basis Set: CC-PVTZ
  Basis Set:
  @DF-RHF Final Energy:  -384.09308085512055
    Total Energy =                       -384.0930808551215705
  Basis Set: CC-PVTZ
  Basis Set:
  Basis Set: CC-PVTZ
  Basis Set:
  @DF-RHF Final Energy:  -384.09308199817639
    Total Energy =                       -384.0930819981761033
  Basis Set: CC-PVTZ
  Basis Set:
  Charge       = 0
  Multiplicity = 1
  Basis Set: CC-PVTZ
  Basis Set:

    Orbital Energies (a.u.)
    -----------------------

    Doubly Occupied:

       1A    -20.603975     2A    -20.540630     3A    -11.373586
       4A    -11.238799     5A    -11.220742     6A    -11.218948
       7A    -11.218322     8A    -11.209714     9A     -1.477600
      10A     -1.369105    11A     -1.097217    12A     -1.040473
      13A     -0.960621    14A     -0.878342    15A     -0.817682
      16A     -0.769452    17A     -0.703742    18A     -0.693727
      19A     -0.669232    20A     -0.627553    21A     -0.622005
      22A     -0.582898    23A     -0.578167    24A     -0.569682
      25A     -0.527453    26A     -0.513083    27A     -0.508359
      28A     -0.484752    29A     -0.469656    30A     -0.461853
      31A     -0.458313    32A     -0.446823

  @DF-RHF Final Energy:  -384.09308226163438

   => Energetics <=

    Nuclear Repulsion Energy =            380.7915368398889200
    One-Electron Energy =               -1277.8642268711746510
    Two-Electron Energy =                 512.9796077696512384
    DFT Exchange-Correlation Energy =       0.0000000000000000
    Empirical Dispersion Energy =           0.0000000000000000
    PCM Polarization Energy =               0.0000000000000000
    EFP Energy =                            0.0000000000000000
    Total Energy =                       -384.0930822616344358
    Molecular point group: c1
  Basis Set: CC-PVTZ
  Basis Set:

  -Total Gradient:
     Atom            X                  Y                   Z
    ------   -----------------  -----------------  -----------------
       1       -0.000040763624     0.000004965400     0.000006840241
       2        0.000025469929    -0.000002979007    -0.000007864542
       3        0.000033230366     0.000066250672    -0.000031143595
       4        0.000003187158    -0.000009708375    -0.000025282580
       5       -0.000022585281    -0.000068313624     0.000035721218
       6        0.000323416228    -0.000939333160     0.000749194242
       7       -0.000001803070    -0.000006223583     0.000006836146
       8        0.000005912644     0.000005589461     0.000007310300
       9       -0.000295600123     0.001526683260    -0.001386688486
      10       -0.000005559755    -0.000005233214    -0.000001971014
      11       -0.000008278638     0.000001277536    -0.000005966969
      12       -0.000812909027    -0.001216354493     0.001997843351
      13       -0.000000313477     0.000001838617     0.000002437389
      14        0.000009976371    -0.000003234373    -0.000000003936
      15        0.000004576741    -0.000005887269    -0.000000311221
      16        0.000768482722     0.000646643789    -0.001350392362
      17        0.000002034300     0.000002962079     0.000009952728
      18        0.000000272993    -0.000002374591    -0.000000979231
      19        0.000010912764     0.000005965134    -0.000007123147
      20        0.000000340781    -0.000002534258     0.000001591469

  **** Optimization is complete! (in 7 steps) ****
    Final optimized geometry and variables:
    Molecular point group: c1

    Geometry (in Angstrom), charge = 0, multiplicity = 1:

    H            3.583083584756    -1.019175531483     0.249969273625
    O            2.682542456418    -1.237932173135     0.436613784571
    C            1.935445670839    -0.157475833075     0.226814679667
    C            0.480415488666    -0.425046446896     0.502840563645
    O            2.400833870343     0.867887904869    -0.133638044912
    C           -0.410842305628     0.791492887765     0.286332712003
    H            0.193377620661    -1.260507922537    -0.124590295029
    H            0.411445555630    -0.785053382606     1.524483113528
    C           -1.878817722900     0.547716878426     0.646651161155
    H           -0.318987304048     1.124128321465    -0.740274862558
    H           -0.033570377766     1.605273492631     0.893440739680
    C           -2.643511691918    -0.423230560887    -0.259117865218
    H           -2.395847533750     1.502484233167     0.645516909934
    H           -1.925780311576     0.183490585191     1.669738069747
    C           -2.971869274855     0.144795333100    -1.638525815804
    H           -2.081186699402    -1.343027812439    -0.383854335551
    H           -3.569520866023    -0.698462841379     0.234748433224
    H           -3.535587164259    -0.570444486810    -2.226452803581
    H           -2.077254203697     0.392513497570    -2.197904590053
    H           -3.568319602718     1.047185210363    -1.555105415431

  Mulliken Charges: (a.u.)
   Center  Symbol    Alpha    Beta     Spin     Total
       1     H     0.38237  0.38237  0.00000  0.23525
       2     O     4.16027  4.16027  0.00000 -0.32055
       3     C     2.80333  2.80333  0.00000  0.39335
       4     C     3.11188  3.11188  0.00000 -0.22375
       5     O     4.19108  4.19108  0.00000 -0.38216
       6     C     3.09601  3.09601  0.00000 -0.19203
       7     H     0.43753  0.43753  0.00000  0.12494
       8     H     0.43732  0.43732  0.00000  0.12535
       9     C     3.10642  3.10642  0.00000 -0.21284
      10     H     0.44390  0.44390  0.00000  0.11220
      11     H     0.43820  0.43820  0.00000  0.12361
      12     C     3.09325  3.09325  0.00000 -0.18650
      13     H     0.44483  0.44483  0.00000  0.11034
      14     H     0.44881  0.44881  0.00000  0.10237
      15     C     3.14946  3.14946  0.00000 -0.29892
      16     H     0.45479  0.45479  0.00000  0.09042
      17     H     0.44572  0.44572  0.00000  0.10857
      18     H     0.44690  0.44690  0.00000  0.10620
      19     H     0.45389  0.45389  0.00000  0.09222
      20     H     0.45404  0.45404  0.00000  0.09192

   Total alpha = 32.00000, Total beta = 32.00000, Total charge =  0.00000

*** Psi4 exiting successfully. Buy a developer a beer!
