                              Psi4 1.0.54 Driver

  ==> Input File <==

--------------------------------------------------------------------------
set {
	reference rhf
	basis cc-pvtz
}

set_num_threads( 4 )
memory 2 gb

molecule MOL {
0 1

H	 -1.835082	 1.385983	 0.000069
C	 -1.300516	 0.441153	 -0.000028
O	 -0.006604	 0.654344	 -0.000106
O	 -1.828920	 -0.612308	 0.000113
C	 0.839709	 -0.407513	 -0.431425
C	 2.267729	 0.075682	 -0.342076
H	 0.572491	 -0.678171	 -1.443007
H	 0.669362	 -1.268203	 0.199572
H	 2.422704	 0.939707	 -0.975648
H	 2.939309	 -0.711092	 -0.664289
H	 2.520056	 0.346736	 0.675190

	symmetry c1
}
set optking {
	frozen_dihedral = ("
		5 3 2 4
	")
}

ee,wfn = optimize('scf', return_wfn=True)
oeprop( wfn, 'DIPOLE', 'QUADRUPOLE', 'MULLIKEN_CHARGES')
f=open( 'psi4out.xyz', 'w' )
f.write( "11  " )
f.write( str(ee) + "\n" )
f.write( MOL.save_string_xyz() )
f.close()
--------------------------------------------------------------------------

    Molecular point group: c1
  Charge       = 0
  Multiplicity = 1
  Basis Set: CC-PVTZ
  Basis Set:
  @DF-RHF Final Energy:  -266.92939255917292
    Total Energy =                       -266.9293925591728112
    Molecular point group: c1
  Basis Set: CC-PVTZ
  Basis Set:
  Basis Set: CC-PVTZ
  Basis Set:
  @DF-RHF Final Energy:  -266.92329534345959
    Total Energy =                       -266.9232953434594720
  Basis Set: CC-PVTZ
  Basis Set:
  Basis Set: CC-PVTZ
  Basis Set:
  @DF-RHF Final Energy:  -266.92931778930381
    Total Energy =                       -266.9293177893038091
  Basis Set: CC-PVTZ
  Basis Set:
  Basis Set: CC-PVTZ
  Basis Set:
  @DF-RHF Final Energy:  -266.92960479037254
    Total Energy =                       -266.9296047903725935
  Basis Set: CC-PVTZ
  Basis Set:
  Basis Set: CC-PVTZ
  Basis Set:
  @DF-RHF Final Energy:  -266.92966731665808
    Total Energy =                       -266.9296673166579694
  Basis Set: CC-PVTZ
  Basis Set:
  Basis Set: CC-PVTZ
  Basis Set:
  @DF-RHF Final Energy:  -266.92967553214493
    Total Energy =                       -266.9296755321450405
  Basis Set: CC-PVTZ
  Basis Set:
  Charge       = 0
  Multiplicity = 1
  Basis Set: CC-PVTZ
  Basis Set:

    Orbital Energies (a.u.)
    -----------------------

    Doubly Occupied:

       1A    -20.603476     2A    -20.547016     3A    -11.370456
       4A    -11.290959     5A    -11.225387     6A     -1.478116
       7A     -1.377756     8A     -1.053576     9A     -0.902876
      10A     -0.807260    11A     -0.740734    12A     -0.692423
      13A     -0.681718    14A     -0.598237    15A     -0.573870
      16A     -0.558837    17A     -0.519957    18A     -0.516267
      19A     -0.464429    20A     -0.456862

  @DF-RHF Final Energy:  -266.92967568501467

   => Energetics <=

    Nuclear Repulsion Energy =            179.4018125548902560
    One-Electron Energy =                -719.7425522191903156
    Two-Electron Energy =                 273.4110639792854727
    DFT Exchange-Correlation Energy =       0.0000000000000000
    Empirical Dispersion Energy =           0.0000000000000000
    PCM Polarization Energy =               0.0000000000000000
    EFP Energy =                            0.0000000000000000
    Total Energy =                       -266.9296756850145584
    Molecular point group: c1
  Basis Set: CC-PVTZ
  Basis Set:

  -Total Gradient:
     Atom            X                  Y                   Z
    ------   -----------------  -----------------  -----------------
       1       -0.000006795305     0.000035826851    -0.000020428998
       2        0.000625312592     0.001521043408    -0.012670811261
       3       -0.000227519501    -0.003201350545     0.010630194840
       4       -0.000396690427    -0.000365411650     0.006741270336
       5        0.000032677455     0.001960624784    -0.004612257379
       6       -0.000010409638     0.000019643034    -0.000032343329
       7       -0.000017831278     0.000032709443    -0.000013425407
       8        0.000005612188    -0.000004968336    -0.000015030033
       9        0.000013491285     0.000007232029    -0.000000526197
      10       -0.000003550243     0.000000993195    -0.000004028074
      11       -0.000014297129    -0.000006342213    -0.000002614497

  **** Optimization is complete! (in 7 steps) ****
    Final optimized geometry and variables:
    Molecular point group: c1

    Geometry (in Angstrom), charge = 0, multiplicity = 1:

    H           -1.813830779052     1.373838885608     0.218559761352
    C           -1.294712101161     0.423689798272     0.136162354910
    O            0.003636177863     0.605005808996     0.221387108425
    O           -1.843040928293    -0.614911291956     0.045332364796
    C            0.852429630183    -0.450350319775    -0.222469109657
    C            2.275707331296     0.052210669448    -0.177527300743
    H            0.559681022967    -0.729640050322    -1.225234766377
    H            0.714646317202    -1.310181659984     0.417108546320
    H            2.401888145902     0.913457224528    -0.821157541912
    H            2.948568903425    -0.728587254197    -0.511515286691
    H            2.551458885777     0.334098822744     0.830634593369

  Mulliken Charges: (a.u.)
   Center  Symbol    Alpha    Beta     Spin     Total
       1     H     0.44963  0.44963  0.00000  0.10074
       2     C     2.84520  2.84520  0.00000  0.30960
       3     O     4.14615  4.14615  0.00000 -0.29230
       4     O     4.19216  4.19216  0.00000 -0.38431
       5     C     2.97219  2.97219  0.00000  0.05561
       6     C     3.13308  3.13308  0.00000 -0.26616
       7     H     0.45644  0.45644  0.00000  0.08712
       8     H     0.45035  0.45035  0.00000  0.09930
       9     H     0.45093  0.45093  0.00000  0.09815
      10     H     0.45435  0.45435  0.00000  0.09130
      11     H     0.44953  0.44953  0.00000  0.10095

   Total alpha = 20.00000, Total beta = 20.00000, Total charge = -0.00000

*** Psi4 exiting successfully. Buy a developer a beer!
