  ==> Input File <==

--------------------------------------------------------------------------
set {
	reference rhf
	basis 6-31G*
}

set_num_threads( 1 )
memory 2 gb

molecule MOL {
0 1

H	 -2.333605	 1.154460	 3.784137
O	 -1.630977	 0.588395	 3.498149
C	 -1.338746	 0.843401	 2.148273
C	 -0.209899	 -0.079659	 1.724700
H	 -2.216089	 0.669120	 1.526820
H	 -1.042484	 1.882372	 2.010046
C	 0.198102	 0.111031	 0.262842
H	 -0.525127	 -1.105553	 1.894704
H	 0.640178	 0.097910	 2.377628
C	 1.331804	 -0.827780	 -0.158768
H	 -0.669147	 -0.046627	 -0.373707
H	 0.511761	 1.142070	 0.104428
C	 2.723619	 -0.410569	 0.329459
H	 1.342964	 -0.912588	 -1.244120
H	 1.116806	 -1.824343	 0.220779
C	 3.243875	 0.895854	 -0.272975
H	 3.424222	 -1.207124	 0.091250
H	 2.714788	 -0.329854	 1.414619
H	 3.251977	 0.848779	 -1.358681
H	 2.637085	 1.747371	 0.016682
H	 4.259473	 1.094070	 0.055697

	symmetry c1
}
set optking {
	frozen_dihedral = ("
		2 3 4 8,
		8 4 7 10,
		16 13 10 14,
		1 2 3 5
	")
}

ee = energy('scf')
oeprop('DIPOLE', 'QUADRUPOLE', 'MULLIKEN_CHARGES')
f=open( 'psi4out.xyz', 'w' )
f.write( "21  " )
f.write( str(ee) + "\n" )
f.write( MOL.save_string_xyz() )
f.close()
--------------------------------------------------------------------------

    Molecular point group: c1

    Geometry (in Angstrom), charge = 0, multiplicity = 1:

       Center              X                  Y                   Z               Mass
    ------------   -----------------  -----------------  -----------------  -----------------
           H         -2.906676238319     0.968044590833     2.658255090248     1.007825032070
           O         -2.204048238319     0.401979590833     2.372267090248    15.994914619560
           C         -1.911817238319     0.656985590833     1.022391090248    12.000000000000
           C         -0.782970238319    -0.266074409167     0.598818090248    12.000000000000
           H         -2.789160238319     0.482704590833     0.400938090248     1.007825032070
           H         -1.615555238319     1.695956590833     0.884164090248     1.007825032070
           C         -0.374969238319    -0.075384409167    -0.863039909752    12.000000000000
           H         -1.098198238319    -1.291968409167     0.768822090248     1.007825032070
           H          0.067106761681    -0.088505409167     1.251746090248     1.007825032070
           C          0.758732761681    -1.014195409167    -1.284649909752    12.000000000000
           H         -1.242218238319    -0.233042409167    -1.499588909752     1.007825032070
           H         -0.061310238319     0.955654590833    -1.021453909752     1.007825032070
           C          2.150547761681    -0.596984409167    -0.796422909752    12.000000000000
           H          0.769892761681    -1.099003409167    -2.370001909752     1.007825032070
           H          0.543734761681    -2.010758409167    -0.905102909752     1.007825032070
           C          2.670803761681     0.709438590833    -1.398856909752    12.000000000000
           H          2.851150761681    -1.393539409167    -1.034631909752     1.007825032070
           H          2.141716761681    -0.516269409167     0.288737090248     1.007825032070
           H          2.678905761681     0.662363590833    -2.484562909752     1.007825032070
           H          2.064013761681     1.560955590833    -1.109199909752     1.007825032070
           H          3.686401761681     0.907654590833    -1.070184909752     1.007825032070

  Charge       = 0
  Multiplicity = 1
  Basis Set: 6-31G*
  Basis Set:

    Orbital Energies (a.u.)
    -----------------------

    Doubly Occupied:

       1A    -20.551793     2A    -11.266954     3A    -11.214994
       4A    -11.214274     5A    -11.213080     6A    -11.210131
       7A    -11.207931     8A     -1.358613     9A     -1.087413
      10A     -1.030443    11A     -0.955019    12A     -0.875040
      13A     -0.816679    14A     -0.768693    15A     -0.690692
      16A     -0.659970    17A     -0.626818    18A     -0.614436
      19A     -0.573537    20A     -0.563259    21A     -0.551797
      22A     -0.526281    23A     -0.499175    24A     -0.490742
      25A     -0.481009    26A     -0.457124    27A     -0.449268
      28A     -0.446574    29A     -0.433667

  @DF-RHF Final Energy:  -310.21035849118715

   => Energetics <=

    Nuclear Repulsion Energy =            317.4349727045994882
    One-Electron Energy =               -1049.6198479295860579
    Two-Electron Energy =                 421.9745167337999305
    DFT Exchange-Correlation Energy =       0.0000000000000000
    Empirical Dispersion Energy =           0.0000000000000000
    PCM Polarization Energy =               0.0000000000000000
    EFP Energy =                            0.0000000000000000
    Total Energy =                       -310.2103584911866960

  Mulliken Charges: (a.u.)
   Center  Symbol    Alpha    Beta     Spin     Total
       1     H     0.28121  0.28121  0.00000  0.43757
       2     O     4.37179  4.37179  0.00000 -0.74357
       3     C     2.98940  2.98940  0.00000  0.02119
       4     C     3.16110  3.16110  0.00000 -0.32220
       5     H     0.43289  0.43289  0.00000  0.13422
       6     H     0.43312  0.43312  0.00000  0.13376
       7     C     3.16383  3.16383  0.00000 -0.32767
       8     H     0.41475  0.41475  0.00000  0.17050
       9     H     0.41367  0.41367  0.00000  0.17267
      10     C     3.15437  3.15437  0.00000 -0.30875
      11     H     0.42096  0.42096  0.00000  0.15809
      12     H     0.42175  0.42175  0.00000  0.15649
      13     C     3.15483  3.15483  0.00000 -0.30966
      14     H     0.42196  0.42196  0.00000  0.15607
      15     H     0.42064  0.42064  0.00000  0.15872
      16     C     3.24085  3.24085  0.00000 -0.48169
      17     H     0.42024  0.42024  0.00000  0.15951
      18     H     0.42057  0.42057  0.00000  0.15887
      19     H     0.42220  0.42220  0.00000  0.15560
      20     H     0.42114  0.42114  0.00000  0.15773
      21     H     0.41873  0.41873  0.00000  0.16254

   Total alpha = 29.00000, Total beta = 29.00000, Total charge = -0.00000
