  ==> Input File <==

--------------------------------------------------------------------------
set {
	reference rhf
	basis 6-31G*
}

set_num_threads( 4 )
memory 2 gb

molecule MOL {
0 1

H	 -3.161837	 0.500524	 -0.000234
C	 -2.367097	 -0.232926	 -0.000000
O	 -1.158440	 0.455814	 -0.000122
H	 -2.468853	 -0.861886	 -0.882833
H	 -2.468942	 -0.861421	 0.883154
C	 -0.437198	 0.350032	 1.190043
C	 0.851086	 1.142909	 1.054650
H	 -0.216899	 -0.696731	 1.403714
H	 -1.029908	 0.730090	 2.023205
C	 1.709431	 1.083330	 2.317415
H	 1.405929	 0.755759	 0.205577
H	 0.598673	 2.172616	 0.820790
H	 1.993741	 0.062147	 2.555696
H	 2.621409	 1.657524	 2.193144
H	 1.180448	 1.488472	 3.175577

	symmetry c1
}
set optking {
	frozen_dihedral = ("
		6 3 2 4
	")
}

ee = optimize('scf')
oeprop('DIPOLE', 'QUADRUPOLE', 'MULLIKEN_CHARGES')
f=open( 'psi4out.xyz', 'w' )
f.write( "15  " )
f.write( str(ee) + "\n" )
f.write( MOL.save_string_xyz() )
f.close()
--------------------------------------------------------------------------

    Molecular point group: c1
  Charge       = 0
  Multiplicity = 1
  Basis Set: 6-31G*
  Basis Set:
  @DF-RHF Final Energy:  -232.13503414584324
    Total Energy =                       -232.1350341458430648
    Molecular point group: c1
  Basis Set: 6-31G*
  Basis Set:
  Basis Set: 6-31G*
  Basis Set:
  @DF-RHF Final Energy:  -232.13562415607922
    Total Energy =                       -232.1356241560793023
  Basis Set: 6-31G*
  Basis Set:
  Basis Set: 6-31G*
  Basis Set:
  @DF-RHF Final Energy:  -232.13575863873427
    Total Energy =                       -232.1357586387341030
  Basis Set: 6-31G*
  Basis Set:
  Charge       = 0
  Multiplicity = 1
  Basis Set: 6-31G*
  Basis Set:

    Orbital Energies (a.u.)
    -----------------------

    Doubly Occupied:

       1A    -20.549562     2A    -11.266720     3A    -11.263462
       4A    -11.213699     5A    -11.212658     6A     -1.373131
       7A     -1.056830     8A     -0.955287     9A     -0.877363
      10A     -0.808714    11A     -0.671151    12A     -0.651668
      13A     -0.629225    14A     -0.607816    15A     -0.563716
      16A     -0.546086    17A     -0.501934    18A     -0.487895
      19A     -0.478866    20A     -0.460251    21A     -0.408368

  @DF-RHF Final Energy:  -232.13575919476946

   => Energetics <=

    Nuclear Repulsion Energy =            189.4026149733343516
    One-Electron Energy =                -689.9079450493163677
    Two-Electron Energy =                 268.3695708812127236
    DFT Exchange-Correlation Energy =       0.0000000000000000
    Empirical Dispersion Energy =           0.0000000000000000
    PCM Polarization Energy =               0.0000000000000000
    EFP Energy =                            0.0000000000000000
    Total Energy =                       -232.1357591947692640
    Molecular point group: c1
  Basis Set: 6-31G*
  Basis Set:

  -Total Gradient:
     Atom            X                  Y                   Z
    ------   -----------------  -----------------  -----------------
       1       -0.000003878749    -0.000000010584    -0.000003968382
       2       -0.000546106077     0.001059509127    -0.001149453424
       3       -0.000800296827     0.001203654847     0.000820253340
       4        0.000652960320    -0.001184575013     0.000767025069
       5       -0.000000189799    -0.000005614574     0.000001729107
       6        0.000686790939    -0.001127923353    -0.000495427215
       7       -0.000014604253     0.000001756414     0.000023903355
       8       -0.000003673696     0.000002346369     0.000039824786
       9       -0.000003999890     0.000009635075    -0.000059971620
      10        0.000032509240     0.000043790505     0.000023361516
      11       -0.000039535537    -0.000015562629     0.000012654955
      12        0.000021971806     0.000008680623    -0.000000907886
      13       -0.000002803646     0.000005307839    -0.000012117863
      14        0.000015004140     0.000005438817     0.000025077296
      15        0.000005852029    -0.000006433463     0.000008016966

  **** Optimization is complete! (in 4 steps) ****
    Final optimized geometry and variables:
    Molecular point group: c1

    Geometry (in Angstrom), charge = 0, multiplicity = 1:

    H           -2.896311624377    -0.065581543740    -0.924412343896
    C           -2.072104916146    -0.772116468618    -0.922326401586
    O           -0.850554683396    -0.095379297476    -0.892475644716
    H           -2.120756074195    -1.376771675042    -1.820661555957
    H           -2.189377937421    -1.432384414954    -0.067689619078
    C           -0.124530716939    -0.194477492220     0.297038153457
    C            1.164550763079     0.593696206071     0.144637027661
    H            0.095981196439    -1.238898151690     0.517859388299
    H           -0.707236028627     0.196448639047     1.131573650384
    C            2.033037738044     0.542501865609     1.401036805841
    H            1.710842008175     0.197741192018    -0.705912872546
    H            0.913144278124     1.622067938113    -0.095947593568
    H            2.317216978632    -0.477360797523     1.645128885341
    H            2.945316993528     1.113630502204     1.265077620653
    H            1.511925947362     0.955399885711     2.260347087643

  Mulliken Charges: (a.u.)
   Center  Symbol    Alpha    Beta     Spin     Total
       1     H     0.42279  0.42279  0.00000  0.15442
       2     C     3.07592  3.07592  0.00000 -0.15185
       3     O     4.31058  4.31058  0.00000 -0.62116
       4     H     0.41867  0.41867  0.00000  0.16266
       5     H     0.43028  0.43028  0.00000  0.13945
       6     C     2.98130  2.98130  0.00000  0.03740
       7     C     3.15995  3.15995  0.00000 -0.31990
       8     H     0.43300  0.43300  0.00000  0.13399
       9     H     0.43342  0.43342  0.00000  0.13316
      10     C     3.24794  3.24794  0.00000 -0.49587
      11     H     0.41441  0.41441  0.00000  0.17119
      12     H     0.41435  0.41435  0.00000  0.17129
      13     H     0.42100  0.42100  0.00000  0.15799
      14     H     0.41544  0.41544  0.00000  0.16912
      15     H     0.42095  0.42095  0.00000  0.15811

   Total alpha = 21.00000, Total beta = 21.00000, Total charge =  0.00000
