  ==> Input File <==

--------------------------------------------------------------------------
set {
	reference rhf
	basis 6-31G*
}

set_num_threads( 1 )
memory 2 gb

molecule MOL {
0 1

H	 0.938340	 0.413064	 -1.934308
O	 1.194844	 1.047966	 -1.279359
C	 0.709265	 0.639550	 -0.033818
C	 -0.793441	 0.596080	 0.058728
H	 1.098298	 1.347334	 0.689299
H	 1.112142	 -0.335611	 0.237800
C	 -1.530462	 -0.493172	 -0.025500
H	 -1.268471	 1.554324	 0.202247
H	 -1.092586	 -1.461565	 -0.186463
H	 -2.602122	 -0.450675	 0.050101

	symmetry c1
}
set optking {
	frozen_dihedral = ("
		5 3 2 1,
		3 4 7 9
	")
}

ee = energy('scf')
oeprop('DIPOLE', 'QUADRUPOLE', 'MULLIKEN_CHARGES')
f=open( 'psi4out.xyz', 'w' )
f.write( "10  " )
f.write( str(ee) + "\n" )
f.write( MOL.save_string_xyz() )
f.close()
--------------------------------------------------------------------------

    Molecular point group: c1

    Geometry (in Angstrom), charge = 0, multiplicity = 1:

       Center              X                  Y                   Z               Mass
    ------------   -----------------  -----------------  -----------------  -----------------
           H          0.974397162764    -0.047755825149    -1.565281127196     1.007825032070
           O          1.230901162764     0.587146174851    -0.910332127196    15.994914619560
           C          0.745322162764     0.178730174851     0.335208872804    12.000000000000
           C         -0.757383837236     0.135260174851     0.427754872804    12.000000000000
           H          1.134355162764     0.886514174851     1.058325872804     1.007825032070
           H          1.148199162764    -0.796430825149     0.606826872804     1.007825032070
           C         -1.494404837236    -0.953991825149     0.343526872804    12.000000000000
           H         -1.232413837236     1.093504174851     0.571273872804     1.007825032070
           H         -1.056528837236    -1.922384825149     0.182563872804     1.007825032070
           H         -2.566064837236    -0.911494825149     0.419127872804     1.007825032070

  Charge       = 0
  Multiplicity = 1
  Basis Set: 6-31G*
  Basis Set:

    Orbital Energies (a.u.)
    -----------------------

    Doubly Occupied:

       1A    -20.557286     2A    -11.275582     3A    -11.232044
       4A    -11.229067     5A     -1.365835     6A     -1.063992
       7A     -0.923542     8A     -0.773413     9A     -0.704054
      10A     -0.629064    11A     -0.620784    12A     -0.596272
      13A     -0.530182    14A     -0.489062    15A     -0.438195
      16A     -0.377086

  @DF-RHF Final Energy:  -191.91541083397260

   => Energetics <=

    Nuclear Repulsion Energy =            117.6843922952892854
    One-Electron Energy =                -493.5886248713510440
    Two-Electron Energy =                 183.9888217420892715
    DFT Exchange-Correlation Energy =       0.0000000000000000
    Empirical Dispersion Energy =           0.0000000000000000
    PCM Polarization Energy =               0.0000000000000000
    EFP Energy =                            0.0000000000000000
    Total Energy =                       -191.9154108339724871

  Mulliken Charges: (a.u.)
   Center  Symbol    Alpha    Beta     Spin     Total
       1     H     0.28219  0.28219  0.00000  0.43561
       2     O     4.36368  4.36368  0.00000 -0.72735
       3     C     3.01006  3.01006  0.00000 -0.02011
       4     C     3.08258  3.08258  0.00000 -0.16516
       5     H     0.41276  0.41276  0.00000  0.17448
       6     H     0.42691  0.42691  0.00000  0.14618
       7     C     3.19563  3.19563  0.00000 -0.39126
       8     H     0.40567  0.40567  0.00000  0.18866
       9     H     0.41287  0.41287  0.00000  0.17425
      10     H     0.40765  0.40765  0.00000  0.18470

   Total alpha = 16.00000, Total beta = 16.00000, Total charge =  0.00000
