                              Psi4 1.0.54 Driver

  ==> Input File <==

--------------------------------------------------------------------------
set {
	reference rhf
	basis cc-pvtz
}

set_num_threads( 4 )
memory 2 gb

molecule MOL {
0 1

O	 0.596860	 1.317141	 0.276766
C	 0.485107	 0.171416	 -0.000134
C	 1.606966	 -0.836201	 0.000174
O	 -0.661107	 -0.384161	 -0.352431
C	 2.988788	 -0.202529	 -0.000115
H	 1.465110	 -1.474645	 -0.864821
H	 1.465209	 -1.474077	 0.865596
H	 3.131767	 0.419673	 -0.873407
H	 3.750876	 -0.972315	 0.000098
H	 3.131883	 0.420264	 0.872742
C	 -1.813516	 0.445391	 -0.398073
C	 -2.982622	 -0.411482	 -0.824039
H	 -1.639323	 1.253598	 -1.094353
H	 -1.974783	 0.879788	 0.578460
H	 -2.809415	 -0.841721	 -1.802439
H	 -3.881186	 0.192477	 -0.869317
H	 -3.146843	 -1.217617	 -0.120087

	symmetry c1
}
set optking {
	frozen_dihedral = ("
		4 2 3 6
	")
}

ee,wfn = optimize('scf', return_wfn=True)
oeprop( wfn, 'DIPOLE', 'QUADRUPOLE', 'MULLIKEN_CHARGES')
f=open( 'psi4out.xyz', 'w' )
f.write( "17  " )
f.write( str(ee) + "\n" )
f.write( MOL.save_string_xyz() )
f.close()
--------------------------------------------------------------------------

    Molecular point group: c1
  Charge       = 0
  Multiplicity = 1
  Basis Set: CC-PVTZ
  Basis Set:
  @DF-RHF Final Energy:  -345.04030448772869
    Total Energy =                       -345.0403044877290313
    Molecular point group: c1
  Basis Set: CC-PVTZ
  Basis Set:
  Basis Set: CC-PVTZ
  Basis Set:
  @DF-RHF Final Energy:  -345.04031406042043
    Total Energy =                       -345.0403140604207124
  Basis Set: CC-PVTZ
  Basis Set:
  Basis Set: CC-PVTZ
  Basis Set:
  @DF-RHF Final Energy:  -345.04029867066413
    Total Energy =                       -345.0402986706643560
  Basis Set: CC-PVTZ
  Basis Set:
  Basis Set: CC-PVTZ
  Basis Set:
  @DF-RHF Final Energy:  -345.04040354596287
    Total Energy =                       -345.0404035459623628
  Basis Set: CC-PVTZ
  Basis Set:
  Charge       = 0
  Multiplicity = 1
  Basis Set: CC-PVTZ
  Basis Set:

    Orbital Energies (a.u.)
    -----------------------

    Doubly Occupied:

       1A    -20.593932     2A    -20.532385     3A    -11.363510
       4A    -11.282605     5A    -11.235747     6A    -11.220403
       7A    -11.214415     8A     -1.470605     9A     -1.364696
      10A     -1.070854    11A     -1.032662    12A     -0.911842
      13A     -0.848112    14A     -0.775225    15A     -0.697839
      16A     -0.692171    17A     -0.668084    18A     -0.629353
      19A     -0.585179    20A     -0.574632    21A     -0.558318
      22A     -0.525249    23A     -0.521866    24A     -0.514023
      25A     -0.505619    26A     -0.493175    27A     -0.456209
      28A     -0.438884

  @DF-RHF Final Energy:  -345.04040382393055

   => Energetics <=

    Nuclear Repulsion Energy =            315.2167488258839967
    One-Electron Energy =               -1094.9591158867310696
    Two-Electron Energy =                 434.7019632369166970
    DFT Exchange-Correlation Energy =       0.0000000000000000
    Empirical Dispersion Energy =           0.0000000000000000
    PCM Polarization Energy =               0.0000000000000000
    EFP Energy =                            0.0000000000000000
    Total Energy =                       -345.0404038239303759
    Molecular point group: c1
  Basis Set: CC-PVTZ
  Basis Set:

  -Total Gradient:
     Atom            X                  Y                   Z
    ------   -----------------  -----------------  -----------------
       1       -0.000006470012     0.000015702387    -0.000038600576
       2       -0.000260207893    -0.000297454330     0.001003839469
       3        0.000610495022     0.000673384084    -0.000702194505
       4        0.000169804712     0.000131946873    -0.000750292749
       5        0.000006346136    -0.000000678131    -0.000058295156
       6       -0.000459246730    -0.000485103087     0.000455197266
       7       -0.000009659783    -0.000022586886    -0.000005051931
       8        0.000009657878    -0.000003662362     0.000018255837
       9       -0.000016827725     0.000013778033     0.000000106964
      10       -0.000012723754    -0.000015345994    -0.000009329282
      11       -0.000043993142    -0.000047240402     0.000256717172
      12       -0.000006165206     0.000019202014    -0.000071060512
      13        0.000037538360    -0.000001741185    -0.000037522681
      14       -0.000020320931     0.000018720024    -0.000050125689
      15       -0.000019322096    -0.000014130173    -0.000006478011
      16        0.000001147483    -0.000007874505    -0.000009358656
      17        0.000019947682     0.000023083638     0.000004193042

  **** Optimization is complete! (in 5 steps) ****
    Final optimized geometry and variables:
    Molecular point group: c1

    Geometry (in Angstrom), charge = 0, multiplicity = 1:

    O            0.581070686070     1.300853655506     0.436962136182
    C            0.468489652120     0.153093660475     0.168214590538
    C            1.589745667419    -0.855223659957     0.191293742311
    O           -0.678527348532    -0.404190365721    -0.177724457571
    C            2.971574995990    -0.221195640417     0.220715216856
    H            1.465416855260    -1.517204572737    -0.656167967268
    H            1.429674380422    -1.469382554926     1.072693772485
    H            3.144398298747     0.378530377633    -0.663881651433
    H            3.733077215676    -0.990229614424     0.263154163762
    H            3.084456245035     0.422780048139     1.081541117450
    C           -1.835506857127     0.420184564614    -0.199957321697
    C           -3.004917090455    -0.436785033445    -0.625007454190
    H           -1.672171280501     1.237992631629    -0.887453128397
    H           -1.988518559835     0.841233835486     0.783756892584
    H           -2.839920668129    -0.853350726290    -1.610718239880
    H           -3.906757151357     0.163284746001    -0.653109517302
    H           -3.157938417659    -1.252812119917     0.069986326267

  Mulliken Charges: (a.u.)
   Center  Symbol    Alpha    Beta     Spin     Total
       1     O     4.19782  4.19782  0.00000 -0.39563
       2     C     2.81054  2.81054  0.00000  0.37893
       3     C     3.09195  3.09195  0.00000 -0.18390
       4     O     4.15064  4.15064  0.00000 -0.30127
       5     C     3.14031  3.14031  0.00000 -0.28061
       6     H     0.43982  0.43982  0.00000  0.12037
       7     H     0.44406  0.44406  0.00000  0.11188
       8     H     0.45120  0.45120  0.00000  0.09759
       9     H     0.45042  0.45042  0.00000  0.09916
      10     H     0.44507  0.44507  0.00000  0.10986
      11     C     2.97963  2.97963  0.00000  0.04074
      12     C     3.13312  3.13312  0.00000 -0.26625
      13     H     0.45392  0.45392  0.00000  0.09216
      14     H     0.45427  0.45427  0.00000  0.09145
      15     H     0.45134  0.45134  0.00000  0.09731
      16     H     0.45441  0.45441  0.00000  0.09119
      17     H     0.45149  0.45149  0.00000  0.09703

   Total alpha = 28.00000, Total beta = 28.00000, Total charge = -0.00000

*** Psi4 exiting successfully. Buy a developer a beer!
