  ==> Input File <==

--------------------------------------------------------------------------
set {
	reference rhf
	basis 6-31G*
}

set_num_threads( 4 )
memory 2 gb

molecule MOL {
0 1

H	 -3.233384	 -0.438475	 -1.538171
O	 -3.452007	 0.283848	 -0.965577
C	 -3.181085	 -0.079926	 0.364119
C	 -1.765924	 0.277073	 0.805136
H	 -3.327791	 -1.152017	 0.410903
H	 -3.905698	 0.375695	 1.036898
C	 -0.677594	 -0.417312	 -0.014550
H	 -1.637766	 1.358238	 0.744969
H	 -1.659588	 0.017670	 1.857098
C	 0.738335	 -0.034840	 0.421385
H	 -0.814977	 -0.178223	 -1.064632
H	 -0.802730	 -1.495410	 0.071702
C	 1.822265	 -0.738362	 -0.399735
H	 0.853533	 1.043532	 0.342250
H	 0.871597	 -0.279636	 1.474438
C	 3.258060	 -0.455774	 0.057203
H	 1.718003	 -0.459167	 -1.447053
H	 1.651028	 -1.811884	 -0.354513
C	 3.709143	 0.994797	 -0.123830
H	 3.930637	 -1.101717	 -0.501982
H	 3.365259	 -0.739518	 1.102287
H	 3.601178	 1.310569	 -1.158127
H	 4.753787	 1.110486	 0.148516
H	 3.135362	 1.678896	 0.492569

	symmetry c1
}
set optking {
	frozen_dihedral = ("
		1 2 3 5
	")
}

ee = optimize('scf')
oeprop('DIPOLE', 'QUADRUPOLE', 'MULLIKEN_CHARGES')
f=open( 'psi4out.xyz', 'w' )
f.write( "24  " )
f.write( str(ee) + "\n" )
f.write( MOL.save_string_xyz() )
f.close()
--------------------------------------------------------------------------

    Molecular point group: c1
  Charge       = 0
  Multiplicity = 1
  Basis Set: 6-31G*
  Basis Set:
  @DF-RHF Final Energy:  -349.24509197516244
    Total Energy =                       -349.2450919751620972
    Molecular point group: c1
  Basis Set: 6-31G*
  Basis Set:
  Basis Set: 6-31G*
  Basis Set:
  @DF-RHF Final Energy:  -349.24626390165395
    Total Energy =                       -349.2462639016542312
  Basis Set: 6-31G*
  Basis Set:
  Basis Set: 6-31G*
  Basis Set:
  @DF-RHF Final Energy:  -349.24669823533458
    Total Energy =                       -349.2466982353351455
  Basis Set: 6-31G*
  Basis Set:
  Basis Set: 6-31G*
  Basis Set:
  @DF-RHF Final Energy:  -349.24670200641134
    Total Energy =                       -349.2467020064114536
  Basis Set: 6-31G*
  Basis Set:
  Basis Set: 6-31G*
  Basis Set:
  @DF-RHF Final Energy:  -349.24670389560032
    Total Energy =                       -349.2467038956006604
  Basis Set: 6-31G*
  Basis Set:
  Charge       = 0
  Multiplicity = 1
  Basis Set: 6-31G*
  Basis Set:

    Orbital Energies (a.u.)
    -----------------------

    Doubly Occupied:

       1A    -20.552301     2A    -11.267767     3A    -11.216001
       4A    -11.215329     5A    -11.214132     6A    -11.213531
       7A    -11.212773     8A    -11.207788     9A     -1.358635
      10A     -1.090128    11A     -1.048818    12A     -0.986568
      13A     -0.917061    14A     -0.850249    15A     -0.793789
      16A     -0.778112    17A     -0.700287    18A     -0.647498
      19A     -0.628233    20A     -0.607811    21A     -0.600060
      22A     -0.581985    23A     -0.561271    24A     -0.537817
      25A     -0.517851    26A     -0.510968    27A     -0.495671
      28A     -0.475925    29A     -0.472542    30A     -0.459958
      31A     -0.456777    32A     -0.449295    33A     -0.419097

  @DF-RHF Final Energy:  -349.24670409804088

   => Energetics <=

    Nuclear Repulsion Energy =            384.4890187193805673
    One-Electron Energy =               -1235.3793893965653297
    Two-Electron Energy =                 501.6436665791436553
    DFT Exchange-Correlation Energy =       0.0000000000000000
    Empirical Dispersion Energy =           0.0000000000000000
    PCM Polarization Energy =               0.0000000000000000
    EFP Energy =                            0.0000000000000000
    Total Energy =                       -349.2467040980411639
    Molecular point group: c1
  Basis Set: 6-31G*
  Basis Set:

  -Total Gradient:
     Atom            X                  Y                   Z
    ------   -----------------  -----------------  -----------------
       1       -0.001145459712    -0.000415756653     0.000133167750
       2        0.001677859762     0.000458542511    -0.000255246235
       3       -0.001565191485     0.000115879698     0.000374380483
       4       -0.000009039812     0.000000682796     0.000017556644
       5        0.001019184938    -0.000160742013    -0.000282176834
       6        0.000006168936    -0.000000008394     0.000010523177
       7       -0.000006173682     0.000001433566    -0.000007799259
       8        0.000003430616     0.000003780594     0.000006866617
       9        0.000010415170     0.000002461882    -0.000003292739
      10       -0.000003443519    -0.000003058910     0.000001930691
      11       -0.000001459552    -0.000004697502     0.000009446898
      12        0.000006696411    -0.000000463883    -0.000001901876
      13        0.000002728044     0.000008058743    -0.000007161599
      14       -0.000004822608    -0.000006951312    -0.000003100583
      15       -0.000001518512     0.000002922752     0.000002842257
      16       -0.000002611220    -0.000000948402     0.000010077727
      17        0.000000538231    -0.000001460778    -0.000001203894
      18        0.000000368154     0.000001416094     0.000000169339
      19        0.000003602862     0.000000938926    -0.000001701254
      20        0.000000808298     0.000001798012    -0.000000384809
      21        0.000001021765    -0.000001772779     0.000000865814
      22       -0.000000346787     0.000001596030    -0.000001311488
      23        0.000000134556    -0.000000282657    -0.000001101569
      24        0.000007109144    -0.000003368319    -0.000001445259

  **** Optimization is complete! (in 6 steps) ****
    Final optimized geometry and variables:
    Molecular point group: c1

    Geometry (in Angstrom), charge = 0, multiplicity = 1:

    H           -3.282123009859    -0.405520300940    -1.539946359850
    O           -3.472199701839     0.303528252534    -0.944522871371
    C           -3.180640740196    -0.087052884736     0.375797622676
    C           -1.766240771211     0.297654847003     0.792514019906
    H           -3.322700518343    -1.159429799062     0.496836513229
    H           -3.900925177551     0.410377719341     1.013755458459
    C           -0.675602674360    -0.402856138328    -0.019089130988
    H           -1.660485914480     1.374812023919     0.693463728561
    H           -1.644497844038     0.063034693289     1.849010521098
    C            0.739997504665    -0.023802821348     0.420985584766
    H           -0.799413028113    -0.155867077660    -1.070603213855
    H           -0.799685997606    -1.482551927025     0.064863883534
    C            1.826327863363    -0.720669035417    -0.402523894572
    H            0.852495098825     1.054769913330     0.349342805102
    H            0.869599113598    -0.276440333686     1.472405864620
    C            3.260605098362    -0.440448930371     0.060666156940
    H            1.725328846068    -0.433120305611    -1.447975347884
    H            1.656173327044    -1.794954011074    -0.365925395324
    C            3.710786151324     1.011789247243    -0.108480186191
    H            3.935171748736    -1.081922224612    -0.501206539320
    H            3.364635829017    -0.731843661701     1.103936859770
    H            3.605635575450     1.335095853334    -1.140681521811
    H            4.754513938865     1.126102197398     0.167805577865
    H            3.134605169746     1.690828731360     0.511078265423

  Mulliken Charges: (a.u.)
   Center  Symbol    Alpha    Beta     Spin     Total
       1     H     0.27969  0.27969  0.00000  0.44062
       2     O     4.37090  4.37090  0.00000 -0.74180
       3     C     3.00049  3.00049  0.00000 -0.00097
       4     C     3.15728  3.15728  0.00000 -0.31456
       5     H     0.43191  0.43191  0.00000  0.13618
       6     H     0.41564  0.41564  0.00000  0.16872
       7     C     3.15928  3.15928  0.00000 -0.31856
       8     H     0.41538  0.41538  0.00000  0.16923
       9     H     0.42566  0.42566  0.00000  0.14868
      10     C     3.15279  3.15279  0.00000 -0.30558
      11     H     0.41997  0.41997  0.00000  0.16007
      12     H     0.42764  0.42764  0.00000  0.14473
      13     C     3.15248  3.15248  0.00000 -0.30496
      14     H     0.41960  0.41960  0.00000  0.16080
      15     H     0.42448  0.42448  0.00000  0.15103
      16     C     3.15235  3.15235  0.00000 -0.30469
      17     H     0.42410  0.42410  0.00000  0.15180
      18     H     0.42331  0.42331  0.00000  0.15337
      19     C     3.24122  3.24122  0.00000 -0.48245
      20     H     0.42120  0.42120  0.00000  0.15759
      21     H     0.42351  0.42351  0.00000  0.15297
      22     H     0.42202  0.42202  0.00000  0.15595
      23     H     0.41937  0.41937  0.00000  0.16127
      24     H     0.41972  0.41972  0.00000  0.16056

   Total alpha = 33.00000, Total beta = 33.00000, Total charge =  0.00000
