  ==> Input File <==

--------------------------------------------------------------------------
set {
	reference rhf
	basis 6-31G*
}

set_num_threads( 1 )
memory 2 gb

molecule MOL {
0 1

O	 2.857084	 1.365754	 -0.187455
C	 2.835468	 0.177537	 -0.289597
C	 1.538612	 -0.611825	 -0.286749
C	 4.112311	 -0.625692	 -0.429778
C	 0.287110	 0.248933	 -0.141588
H	 1.500894	 -1.193968	 -1.206573
H	 1.596687	 -1.345309	 0.516389
C	 -0.998232	 -0.580318	 -0.143170
H	 0.259158	 0.974888	 -0.948023
H	 0.354889	 0.823225	 0.776967
C	 -2.259874	 0.272531	 0.000494
H	 -1.058085	 -1.156315	 -1.065499
H	 -0.962850	 -1.307323	 0.666941
C	 -3.549786	 -0.549746	 -0.000374
H	 -2.296649	 0.999184	 -0.809223
H	 -2.201538	 0.848121	 0.922605
C	 -4.809590	 0.315458	 -0.000369
H	 -3.560515	 -1.202009	 -0.871156
H	 -3.561123	 -1.202955	 0.869711
H	 -4.844746	 0.956611	 -0.876632
H	 -5.706986	 -0.295590	 -0.001609
H	 -4.845960	 0.954827	 0.877144
H	 4.104051	 -1.191919	 -1.356567
H	 4.964575	 0.039439	 -0.420730
H	 4.201452	 -1.340105	 0.383427

	symmetry c1
}
set optking {
	frozen_dihedral = ("
		9 5 8 12,
		15 11 8 12,
		1 2 3 6,
		9 5 3 6
	")
}

ee = energy('scf')
oeprop('DIPOLE', 'QUADRUPOLE', 'MULLIKEN_CHARGES')
f=open( 'psi4out.xyz', 'w' )
f.write( "25  " )
f.write( str(ee) + "\n" )
f.write( MOL.save_string_xyz() )
f.close()
--------------------------------------------------------------------------

    Molecular point group: c1

    Geometry (in Angstrom), charge = 0, multiplicity = 1:

       Center              X                  Y                   Z               Mass
    ------------   -----------------  -----------------  -----------------  -----------------
           O          2.861611374820     1.358478368479    -0.023119958552    15.994914619560
           C          2.839995374820     0.170261368479    -0.125261958552    12.000000000000
           C          1.543139374820    -0.619100631521    -0.122413958552    12.000000000000
           C          4.116838374820    -0.632967631521    -0.265442958552    12.000000000000
           C          0.291637374820     0.241657368479     0.022747041448    12.000000000000
           H          1.505421374820    -1.201243631521    -1.042237958552     1.007825032070
           H          1.601214374820    -1.352584631521     0.680724041448     1.007825032070
           C         -0.993704625180    -0.587593631521     0.021165041448    12.000000000000
           H          0.263685374820     0.967612368479    -0.783687958552     1.007825032070
           H          0.359416374820     0.815949368479     0.941302041448     1.007825032070
           C         -2.255346625180     0.265255368479     0.164829041448    12.000000000000
           H         -1.053557625180    -1.163590631521    -0.901163958552     1.007825032070
           H         -0.958322625180    -1.314598631521     0.831276041448     1.007825032070
           C         -3.545258625180    -0.557021631521     0.163961041448    12.000000000000
           H         -2.292121625180     0.991908368479    -0.644887958552     1.007825032070
           H         -2.197010625180     0.840845368479     1.086940041448     1.007825032070
           C         -4.805062625180     0.308182368479     0.163966041448    12.000000000000
           H         -3.555987625180    -1.209284631521    -0.706820958552     1.007825032070
           H         -3.556595625180    -1.210230631521     1.034046041448     1.007825032070
           H         -4.840218625180     0.949335368479    -0.712296958552     1.007825032070
           H         -5.702458625180    -0.302865631521     0.162726041448     1.007825032070
           H         -4.841432625180     0.947551368479     1.041479041448     1.007825032070
           H          4.108578374820    -1.199194631521    -1.192231958552     1.007825032070
           H          4.969102374820     0.032163368479    -0.256394958552     1.007825032070
           H          4.205979374820    -1.347380631521     0.547762041448     1.007825032070

  Charge       = 0
  Multiplicity = 1
  Basis Set: 6-31G*
  Basis Set:

    Orbital Energies (a.u.)
    -----------------------

    Doubly Occupied:

       1A    -20.550460     2A    -11.326325     3A    -11.231883
       4A    -11.228349     5A    -11.217101     6A    -11.216504
       7A    -11.215323     8A    -11.213478     9A    -11.208319
      10A     -1.395772    11A     -1.093625    12A     -1.056326
      13A     -1.014516    14A     -0.969249    15A     -0.890719
      16A     -0.814108    17A     -0.790811    18A     -0.729920
      19A     -0.661534    20A     -0.651949    21A     -0.631823
      22A     -0.624113    23A     -0.595995    24A     -0.584327
      25A     -0.566437    26A     -0.559886    27A     -0.540134
      28A     -0.526228    29A     -0.512754    30A     -0.489813
      31A     -0.487804    32A     -0.473284    33A     -0.463741
      34A     -0.462190    35A     -0.450746    36A     -0.399419

  @DF-RHF Final Energy:  -387.13640577454862

   => Energetics <=

    Nuclear Repulsion Energy =            438.3486084442748734
    One-Electron Energy =               -1393.2800807949415685
    Two-Electron Energy =                 567.7950665761168239
    DFT Exchange-Correlation Energy =       0.0000000000000000
    Empirical Dispersion Energy =           0.0000000000000000
    PCM Polarization Energy =               0.0000000000000000
    EFP Energy =                            0.0000000000000000
    Total Energy =                       -387.1364057745498712

  Mulliken Charges: (a.u.)
   Center  Symbol    Alpha    Beta     Spin     Total
       1     O     4.26117  4.26117  0.00000 -0.52233
       2     C     2.73569  2.73569  0.00000  0.52861
       3     C     3.21088  3.21088  0.00000 -0.42177
       4     C     3.28664  3.28664  0.00000 -0.57327
       5     C     3.14804  3.14804  0.00000 -0.29607
       6     H     0.40999  0.40999  0.00000  0.18002
       7     H     0.41000  0.41000  0.00000  0.18000
       8     C     3.15397  3.15397  0.00000 -0.30794
       9     H     0.41212  0.41212  0.00000  0.17576
      10     H     0.41218  0.41218  0.00000  0.17565
      11     C     3.15080  3.15080  0.00000 -0.30160
      12     H     0.42483  0.42483  0.00000  0.15033
      13     H     0.42489  0.42489  0.00000  0.15022
      14     C     3.15155  3.15155  0.00000 -0.30310
      15     H     0.42258  0.42258  0.00000  0.15484
      16     H     0.42217  0.42217  0.00000  0.15566
      17     C     3.23936  3.23936  0.00000 -0.47872
      18     H     0.42373  0.42373  0.00000  0.15254
      19     H     0.42323  0.42323  0.00000  0.15353
      20     H     0.42138  0.42138  0.00000  0.15723
      21     H     0.41956  0.41956  0.00000  0.16087
      22     H     0.42135  0.42135  0.00000  0.15730
      23     H     0.40874  0.40874  0.00000  0.18253
      24     H     0.39646  0.39646  0.00000  0.20709
      25     H     0.40869  0.40869  0.00000  0.18261

   Total alpha = 36.00000, Total beta = 36.00000, Total charge = -0.00000
