  ==> Input File <==

--------------------------------------------------------------------------
set {
	reference rhf
	basis cc-pvtz
}

set_num_threads( 4 )
memory 2 gb

molecule MOL {
0 1

H	 -3.162190	 0.493205	 -0.000107
C	 -2.363908	 -0.234727	 0.000005
O	 -1.158738	 0.454634	 -0.000087
H	 -2.464314	 -0.863616	 -0.882153
H	 -2.464327	 -0.863359	 0.882345
C	 -0.337155	 0.179861	 1.090701
C	 0.937852	 0.990201	 0.971964
H	 -0.104023	 -0.884635	 1.124394
H	 -0.853484	 0.425632	 2.018949
C	 1.894351	 0.744361	 2.133438
H	 1.419101	 0.741307	 0.032615
H	 0.675596	 2.041147	 0.920113
H	 2.189116	 -0.298287	 2.188990
H	 2.795565	 1.334869	 2.023277
H	 1.440760	 1.010516	 3.082377

	symmetry c1
}
set optking {
	frozen_dihedral = ("
		6 3 2 4
	")
}

ee = optimize('scf')
oeprop('DIPOLE', 'QUADRUPOLE', 'MULLIKEN_CHARGES')
f=open( 'psi4out.xyz', 'w' )
f.write( "15  " )
f.write( str(ee) + "\n" )
f.write( MOL.save_string_xyz() )
f.close()
--------------------------------------------------------------------------

    Molecular point group: c1
  Charge       = 0
  Multiplicity = 1
  Basis Set: CC-PVTZ
  Basis Set:
  @DF-RHF Final Energy:  -232.22409221552795
    Total Energy =                       -232.2240922155276053
    Molecular point group: c1
  Basis Set: CC-PVTZ
  Basis Set:
  Basis Set: CC-PVTZ
  Basis Set:
  @DF-RHF Final Energy:  -232.22448379797959
    Total Energy =                       -232.2244837979797012
  Basis Set: CC-PVTZ
  Basis Set:
  Basis Set: CC-PVTZ
  Basis Set:
  @DF-RHF Final Energy:  -232.22456931737381
    Total Energy =                       -232.2245693173738914
  Basis Set: CC-PVTZ
  Basis Set:
  Charge       = 0
  Multiplicity = 1
  Basis Set: CC-PVTZ
  Basis Set:

    Orbital Energies (a.u.)
    -----------------------

    Doubly Occupied:

       1A    -20.543849     2A    -11.264897     3A    -11.261265
       4A    -11.212195     5A    -11.210440     6A     -1.376698
       7A     -1.057992     8A     -0.956101     9A     -0.877405
      10A     -0.809158    11A     -0.673027    12A     -0.653759
      13A     -0.631553    14A     -0.608374    15A     -0.563492
      16A     -0.545847    17A     -0.502880    18A     -0.489420
      19A     -0.479255    20A     -0.461928    21A     -0.410890

  @DF-RHF Final Energy:  -232.22456983999496

   => Energetics <=

    Nuclear Repulsion Energy =            189.6550868262910967
    One-Electron Energy =                -690.5784612784696037
    Two-Electron Energy =                 268.6988046121837215
    DFT Exchange-Correlation Energy =       0.0000000000000000
    Empirical Dispersion Energy =           0.0000000000000000
    PCM Polarization Energy =               0.0000000000000000
    EFP Energy =                            0.0000000000000000
    Total Energy =                       -232.2245698399947855
    Molecular point group: c1
  Basis Set: CC-PVTZ
  Basis Set:

  -Total Gradient:
     Atom            X                  Y                   Z
    ------   -----------------  -----------------  -----------------
       1       -0.000005794508    -0.000001355777    -0.000002476294
       2        0.000051735559     0.000006803292     0.000041690641
       3       -0.000113925480    -0.000055213200    -0.000042610837
       4       -0.000022274944     0.000031951855    -0.000029945141
       5       -0.000003042924    -0.000007337728    -0.000001401416
       6        0.000069547827    -0.000001202546    -0.000016625807
       7       -0.000013183246    -0.000008917024     0.000026330685
       8       -0.000006084677     0.000004629689     0.000020541631
       9       -0.000006252593     0.000009415632    -0.000044812289
      10        0.000045355326     0.000029292281     0.000018720725
      11       -0.000024251988    -0.000007173291     0.000011242846
      12        0.000008594566    -0.000001900967     0.000000871060
      13       -0.000004383058     0.000005774880    -0.000004778928
      14        0.000019679614    -0.000001885946     0.000022317475
      15        0.000004280526    -0.000002881150     0.000000935650

  **** Optimization is complete! (in 4 steps) ****
    Final optimized geometry and variables:
    Molecular point group: c1

    Geometry (in Angstrom), charge = 0, multiplicity = 1:

    H           -2.958960143319     0.075058797260    -0.856996133522
    C           -2.144568414850    -0.640495620462    -0.848086519766
    O           -0.923850577713     0.032833221338    -0.820848660204
    H           -2.209789098292    -1.248835210947    -1.743154314336
    H           -2.270900343336    -1.288333551125     0.013228468775
    C           -0.096066354684    -0.236977148374     0.268156296577
    C            1.176188680689     0.575297062837     0.134816790811
    H            0.142026783244    -1.299652875165     0.307172752179
    H           -0.603652088759     0.015068271753     1.198870572927
    C            2.141692649469     0.339143080655     1.291118381800
    H            1.651084756486     0.321278533714    -0.806447925208
    H            0.911315316532     1.625363580030     0.077688004785
    H            2.439389831831    -0.702469555118     1.351210423519
    H            3.040856347124     0.931018549983     1.171027856292
    H            1.694217481189     0.610252213593     2.241628208888

  Mulliken Charges: (a.u.)
   Center  Symbol    Alpha    Beta     Spin     Total
       1     H     0.45786  0.45786  0.00000  0.08427
       2     C     3.02872  3.02872  0.00000 -0.05743
       3     O     4.17678  4.17678  0.00000 -0.35355
       4     H     0.45802  0.45802  0.00000  0.08396
       5     H     0.47321  0.47321  0.00000  0.05357
       6     C     2.95530  2.95530  0.00000  0.08941
       7     C     3.08224  3.08224  0.00000 -0.16448
       8     H     0.47575  0.47575  0.00000  0.04850
       9     H     0.47575  0.47575  0.00000  0.04850
      10     C     3.15593  3.15593  0.00000 -0.31187
      11     H     0.45120  0.45120  0.00000  0.09760
      12     H     0.45120  0.45120  0.00000  0.09760
      13     H     0.45587  0.45587  0.00000  0.08826
      14     H     0.44629  0.44629  0.00000  0.10741
      15     H     0.45587  0.45587  0.00000  0.08826

   Total alpha = 21.00000, Total beta = 21.00000, Total charge = -0.00000
