  ==> Input File <==

--------------------------------------------------------------------------
set {
	reference rhf
	basis 6-31G*
}

set_num_threads( 4 )
memory 2 gb

molecule MOL {
0 1

H	 -3.867558	 -0.597160	 0.463529
O	 -3.517110	 -0.026191	 -0.205115
C	 -2.306886	 0.532354	 0.237577
C	 -1.177863	 -0.397191	 -0.171080
H	 -2.156308	 1.517575	 -0.201710
H	 -2.315015	 0.655684	 1.319734
C	 0.198102	 0.111031	 0.262842
H	 -1.208843	 -0.518759	 -1.250427
H	 -1.368741	 -1.376554	 0.258909
C	 1.331804	 -0.827780	 -0.158768
H	 0.361943	 1.100838	 -0.156218
H	 0.217265	 0.229072	 1.345532
C	 2.723619	 -0.410569	 0.329459
H	 1.342964	 -0.912588	 -1.244120
H	 1.116806	 -1.824343	 0.220779
C	 3.243875	 0.895854	 -0.272975
H	 3.424222	 -1.207124	 0.091250
H	 2.714788	 -0.329854	 1.414619
H	 3.251977	 0.848779	 -1.358681
H	 2.637085	 1.747371	 0.016682
H	 4.259473	 1.094070	 0.055697

	symmetry c1
}
set optking {
	frozen_dihedral = ("
		1 2 3 5
	")
}

ee = optimize('scf')
oeprop('DIPOLE', 'QUADRUPOLE', 'MULLIKEN_CHARGES')
f=open( 'psi4out.xyz', 'w' )
f.write( "21  " )
f.write( str(ee) + "\n" )
f.write( MOL.save_string_xyz() )
f.close()
--------------------------------------------------------------------------

    Molecular point group: c1
  Charge       = 0
  Multiplicity = 1
  Basis Set: 6-31G*
  Basis Set:
  @DF-RHF Final Energy:  -310.21061304764214
    Total Energy =                       -310.2106130476420276
    Molecular point group: c1
  Basis Set: 6-31G*
  Basis Set:
  Basis Set: 6-31G*
  Basis Set:
  @DF-RHF Final Energy:  -310.21178416568301
    Total Energy =                       -310.2117841656829000
  Basis Set: 6-31G*
  Basis Set:
  Basis Set: 6-31G*
  Basis Set:
  @DF-RHF Final Energy:  -310.21201070702676
    Total Energy =                       -310.2120107070265931
  Basis Set: 6-31G*
  Basis Set:
  Basis Set: 6-31G*
  Basis Set:
  @DF-RHF Final Energy:  -310.21201329783094
    Total Energy =                       -310.2120132978307652
  Basis Set: 6-31G*
  Basis Set:
  Basis Set: 6-31G*
  Basis Set:
  @DF-RHF Final Energy:  -310.21201111945965
    Total Energy =                       -310.2120111194596461
  Basis Set: 6-31G*
  Basis Set:
  Charge       = 0
  Multiplicity = 1
  Basis Set: 6-31G*
  Basis Set:

    Orbital Energies (a.u.)
    -----------------------

    Doubly Occupied:

       1A    -20.551673     2A    -11.267196     3A    -11.217520
       4A    -11.216544     5A    -11.215458     6A    -11.212872
       7A    -11.209032     8A     -1.358264     9A     -1.087681
      10A     -1.033841    11A     -0.954815    12A     -0.878219
      13A     -0.814675    14A     -0.779964    15A     -0.697774
      16A     -0.647429    17A     -0.619003    18A     -0.607835
      19A     -0.590257    20A     -0.573244    21A     -0.541285
      22A     -0.529504    23A     -0.502228    24A     -0.494989
      25A     -0.473456    26A     -0.466928    27A     -0.460865
      28A     -0.457180    29A     -0.419806

  @DF-RHF Final Energy:  -310.21201388357576

   => Energetics <=

    Nuclear Repulsion Energy =            312.0816162960509246
    One-Electron Energy =               -1038.8281836450573792
    Two-Electron Energy =                 416.5345534654305197
    DFT Exchange-Correlation Energy =       0.0000000000000000
    Empirical Dispersion Energy =           0.0000000000000000
    PCM Polarization Energy =               0.0000000000000000
    EFP Energy =                            0.0000000000000000
    Total Energy =                       -310.2120138835759349
    Molecular point group: c1
  Basis Set: 6-31G*
  Basis Set:

  -Total Gradient:
     Atom            X                  Y                   Z
    ------   -----------------  -----------------  -----------------
       1       -0.000783513104     0.001391329628     0.000783692636
       2        0.000824085098    -0.001560395207    -0.000705669049
       3        0.000649267155    -0.000452096452    -0.001283949878
       4        0.000012440070     0.000012231920    -0.000000120736
       5       -0.000680663739     0.000616800384     0.001208446595
       6       -0.000009196327    -0.000001370595     0.000000076434
       7       -0.000039650483    -0.000006650096    -0.000004761254
       8       -0.000008738975    -0.000001544302    -0.000002107783
       9       -0.000003518241     0.000003329011     0.000000675482
      10        0.000014244466     0.000003208699    -0.000000257044
      11        0.000003276745    -0.000004692616     0.000006375301
      12        0.000005371774     0.000002686767    -0.000000668355
      13        0.000008111536    -0.000009182863    -0.000005014899
      14       -0.000001637175     0.000002365892     0.000002206223
      15        0.000001329395     0.000004426353     0.000000218737
      16        0.000001619904    -0.000000864001    -0.000000504921
      17        0.000007125325     0.000000552348     0.000003224983
      18       -0.000001967355     0.000000868263    -0.000001312390
      19        0.000000074139     0.000000720390    -0.000000822963
      20        0.000002272555    -0.000001085006     0.000000451359
      21       -0.000000332752    -0.000000638518    -0.000000178477

  **** Optimization is complete! (in 6 steps) ****
    Final optimized geometry and variables:
    Molecular point group: c1

    Geometry (in Angstrom), charge = 0, multiplicity = 1:

    H           -3.935382730308    -0.526153259215     0.431196665879
    O           -3.556967345052     0.052477647847    -0.214097832098
    C           -2.308587580559     0.515332036438     0.238054439120
    C           -1.172206221327    -0.411854264490    -0.171330141548
    H           -2.170631363046     1.500768668646    -0.191266158850
    H           -2.317589448954     0.644790727680     1.319108602727
    C            0.202240922174     0.102583859688     0.260741832316
    H           -1.204546108040    -0.534839116444    -1.250463370058
    H           -1.349091498031    -1.396830005671     0.257728737735
    C            1.342590488002    -0.828107259170    -0.161039926371
    H            0.357825316712     1.093211865794    -0.159265209558
    H            0.222074455631     0.222798164334     1.343398515450
    C            2.731991433321    -0.399304905679     0.324164897141
    H            1.352489610508    -0.914471721591    -1.246226950581
    H            1.136286048127    -1.825957930047     0.220417090247
    C            3.240865520436     0.910157946975    -0.281328559863
    H            3.438345160687    -1.190788415688     0.086031628456
    H            2.724371287934    -0.316892918166     1.409229218203
    H            3.247298252763     0.861399146189    -1.366934472920
    H            2.628106699510     1.757405728259     0.008132281983
    H            4.255485345650     1.116651787733     0.045148160480

  Mulliken Charges: (a.u.)
   Center  Symbol    Alpha    Beta     Spin     Total
       1     H     0.28150  0.28150  0.00000  0.43701
       2     O     4.37185  4.37185  0.00000 -0.74370
       3     C     2.99306  2.99306  0.00000  0.01389
       4     C     3.16015  3.16015  0.00000 -0.32030
       5     H     0.41807  0.41807  0.00000  0.16386
       6     H     0.43236  0.43236  0.00000  0.13529
       7     C     3.16251  3.16251  0.00000 -0.32501
       8     H     0.41408  0.41408  0.00000  0.17185
       9     H     0.42659  0.42659  0.00000  0.14682
      10     C     3.15145  3.15145  0.00000 -0.30290
      11     H     0.41991  0.41991  0.00000  0.16017
      12     H     0.42479  0.42479  0.00000  0.15041
      13     C     3.15249  3.15249  0.00000 -0.30499
      14     H     0.42258  0.42258  0.00000  0.15484
      15     H     0.42210  0.42210  0.00000  0.15581
      16     C     3.24130  3.24130  0.00000 -0.48261
      17     H     0.42057  0.42057  0.00000  0.15886
      18     H     0.42367  0.42367  0.00000  0.15267
      19     H     0.42171  0.42171  0.00000  0.15657
      20     H     0.42023  0.42023  0.00000  0.15954
      21     H     0.41904  0.41904  0.00000  0.16193

   Total alpha = 29.00000, Total beta = 29.00000, Total charge =  0.00000
