  ==> Input File <==

--------------------------------------------------------------------------
set {
	reference rhf
	basis cc-pvtz
}

set_num_threads( 4 )
memory 2 gb

molecule MOL {
0 1

O	 -1.278239	 1.034789	 -0.784693
C	 -1.204115	 0.062668	 -0.112312
C	 -2.386398	 -0.667698	 0.460323
O	 -0.068058	 -0.518372	 0.226882
H	 -2.382952	 -1.693172	 0.114333
H	 -3.296656	 -0.175702	 0.158400
H	 -2.312537	 -0.685191	 1.540100
C	 1.169086	 0.037484	 -0.230612
C	 1.569823	 -0.766879	 -1.451072
C	 2.201172	 -0.016693	 0.881355
H	 0.988651	 1.065228	 -0.506789
H	 0.806639	 -0.706801	 -2.216376
H	 2.496458	 -0.382979	 -1.860561
H	 1.714647	 -1.809289	 -1.193498
H	 3.142155	 0.392643	 0.532793
H	 1.876752	 0.561945	 1.734923
H	 2.369266	 -1.041021	 1.194054

	symmetry c1
}
set optking {
	frozen_dihedral = ("
		11 8 4 2
	")
}

ee = optimize('scf')
oeprop('DIPOLE', 'QUADRUPOLE', 'MULLIKEN_CHARGES')
f=open( 'psi4out.xyz', 'w' )
f.write( "17  " )
f.write( str(ee) + "\n" )
f.write( MOL.save_string_xyz() )
f.close()
--------------------------------------------------------------------------

    Molecular point group: c1
  Charge       = 0
  Multiplicity = 1
  Basis Set: CC-PVTZ
  Basis Set:
  @DF-RHF Final Energy:  -345.04214596386606
    Total Energy =                       -345.0421459638658916
    Molecular point group: c1
  Basis Set: CC-PVTZ
  Basis Set:
  Basis Set: CC-PVTZ
  Basis Set:
  @DF-RHF Final Energy:  -345.04282192326338
    Total Energy =                       -345.0428219232634888
  Basis Set: CC-PVTZ
  Basis Set:
  Basis Set: CC-PVTZ
  Basis Set:
  @DF-RHF Final Energy:  -345.04174066100859
    Total Energy =                       -345.0417406610080775
  Basis Set: CC-PVTZ
  Basis Set:
  Basis Set: CC-PVTZ
  Basis Set:
  @DF-RHF Final Energy:  -345.04295031979194
    Total Energy =                       -345.0429503197918848
  Basis Set: CC-PVTZ
  Basis Set:
  Basis Set: CC-PVTZ
  Basis Set:
  @DF-RHF Final Energy:  -345.04295724609068
    Total Energy =                       -345.0429572460907934
  Basis Set: CC-PVTZ
  Basis Set:
  Charge       = 0
  Multiplicity = 1
  Basis Set: CC-PVTZ
  Basis Set:

    Orbital Energies (a.u.)
    -----------------------

    Doubly Occupied:

       1A    -20.590785     2A    -20.531227     3A    -11.367053
       4A    -11.287150     5A    -11.230400     6A    -11.217941
       7A    -11.215854     8A     -1.467754     9A     -1.364540
      10A     -1.079888    11A     -1.005588    12A     -0.949353
      13A     -0.849638    14A     -0.769417    15A     -0.694885
      16A     -0.669585    17A     -0.663013    18A     -0.613826
      19A     -0.587387    20A     -0.579169    21A     -0.566897
      22A     -0.551630    23A     -0.536637    24A     -0.523347
      25A     -0.504344    26A     -0.482965    27A     -0.448489
      28A     -0.439845

  @DF-RHF Final Energy:  -345.04295735439399

   => Energetics <=

    Nuclear Repulsion Energy =            322.8006339794437167
    One-Electron Energy =               -1110.1099646103398300
    Two-Electron Energy =                 442.2663732765023497
    DFT Exchange-Correlation Energy =       0.0000000000000000
    Empirical Dispersion Energy =           0.0000000000000000
    PCM Polarization Energy =               0.0000000000000000
    EFP Energy =                            0.0000000000000000
    Total Energy =                       -345.0429573543937067
    Molecular point group: c1
  Basis Set: CC-PVTZ
  Basis Set:

  -Total Gradient:
     Atom            X                  Y                   Z
    ------   -----------------  -----------------  -----------------
       1       -0.000012046409     0.000000525053     0.000002542925
       2        0.000062942260     0.000639616236     0.000924135896
       3       -0.000006334446     0.000004225272    -0.000002895583
       4       -0.000184314307    -0.001058637876    -0.001624050223
       5        0.000002453064     0.000002770970     0.000000400079
       6       -0.000005777745    -0.000001283999     0.000002101765
       7       -0.000000381011     0.000001087105    -0.000001191599
       8        0.000369797802     0.000774008336     0.001890141965
       9        0.000006098133     0.000008847086     0.000003836387
      10        0.000015473168    -0.000004848007    -0.000027865207
      11       -0.000254883618    -0.000376572525    -0.001183508517
      12        0.000000598717     0.000003750463     0.000004540076
      13        0.000001064525    -0.000000036300     0.000001745589
      14       -0.000004044943     0.000004178315     0.000006691032
      15        0.000013219006     0.000000017903     0.000006765483
      16       -0.000006290858     0.000001860062    -0.000008186254
      17        0.000002426658     0.000000491906     0.000004796188

  **** Optimization is complete! (in 6 steps) ****
    Final optimized geometry and variables:
    Molecular point group: c1

    Geometry (in Angstrom), charge = 0, multiplicity = 1:

    O           -1.302213162789     1.131753532226    -0.666599923273
    C           -1.207929167278     0.182719563016     0.035289664257
    C           -2.373863469322    -0.527024481781     0.664791787709
    O           -0.064026995157    -0.390116421508     0.363709810616
    H           -2.380026814216    -1.562906135469     0.351215635668
    H           -3.292210242110    -0.044331333530     0.372589323803
    H           -2.269743537054    -0.510781411766     1.742011935791
    C            1.170647166478     0.158952218519    -0.108857310827
    C            1.619947926635    -0.626438162896    -1.327732591581
    C            2.153635781604     0.089613467447     1.042606736904
    H            0.993171191276     1.183577775584    -0.392495119544
    H            0.885199822881    -0.553160167972    -2.119117566635
    H            2.558544849577    -0.233265302155    -1.700378220054
    H            1.760124023525    -1.672053987492    -1.079262043732
    H            3.110870823318     0.496573695478     0.739256241723
    H            1.792954562679     0.660620920573     1.888718055930
    H            2.302019389401    -0.935750663355     1.359887789586

  Mulliken Charges: (a.u.)
   Center  Symbol    Alpha    Beta     Spin     Total
       1     O     4.19973  4.19973  0.00000 -0.39947
       2     C     2.80388  2.80388  0.00000  0.39224
       3     C     3.14015  3.14015  0.00000 -0.28030
       4     O     4.16606  4.16606  0.00000 -0.33212
       5     H     0.44599  0.44599  0.00000  0.10802
       6     H     0.43846  0.43846  0.00000  0.12308
       7     H     0.44622  0.44622  0.00000  0.10756
       8     C     2.93427  2.93427  0.00000  0.13146
       9     C     3.14824  3.14824  0.00000 -0.29647
      10     C     3.13786  3.13786  0.00000 -0.27572
      11     H     0.43778  0.43778  0.00000  0.12443
      12     H     0.44308  0.44308  0.00000  0.11385
      13     H     0.45121  0.45121  0.00000  0.09758
      14     H     0.45330  0.45330  0.00000  0.09339
      15     H     0.45383  0.45383  0.00000  0.09234
      16     H     0.44732  0.44732  0.00000  0.10536
      17     H     0.45261  0.45261  0.00000  0.09479

   Total alpha = 28.00000, Total beta = 28.00000, Total charge =  0.00000
