                              Psi4 1.0.54 Driver

  ==> Input File <==

--------------------------------------------------------------------------
set {
	reference rhf
	basis cc-pvtz
}

set_num_threads( 4 )
memory 2 gb

molecule MOL {
0 1

O	 0.749630	 1.305591	 -0.000460
C	 0.576499	 0.134701	 -0.003900
C	 -0.765656	 -0.550508	 -0.002152
O	 1.564816	 -0.744612	 -0.000631
C	 -1.945526	 0.411052	 0.000603
H	 -0.794329	 -1.203792	 -0.868145
H	 -0.791555	 -1.205429	 0.862701
C	 -3.282915	 -0.321280	 0.002596
H	 -1.880300	 1.059126	 -0.864925
H	 -1.877207	 1.057892	 0.866807
H	 -3.388495	 -0.952755	 -0.873419
H	 -4.107811	 0.380864	 0.004116
H	 -3.385717	 -0.953283	 0.878571
C	 1.911180	 -1.336205	 -1.236778
H	 1.072697	 -1.878378	 -1.647934
H	 2.723933	 -2.011784	 -1.025315
H	 2.225948	 -0.583809	 -1.944495

	symmetry c1
}
set optking {
	frozen_dihedral = ("
		14 4 2 1
	")
}

ee,wfn = optimize('scf', return_wfn=True)
oeprop( wfn, 'DIPOLE', 'QUADRUPOLE', 'MULLIKEN_CHARGES')
f=open( 'psi4out.xyz', 'w' )
f.write( "17  " )
f.write( str(ee) + "\n" )
f.write( MOL.save_string_xyz() )
f.close()
--------------------------------------------------------------------------

    Molecular point group: c1
  Charge       = 0
  Multiplicity = 1
  Basis Set: CC-PVTZ
  Basis Set:
  @DF-RHF Final Energy:  -345.01325928551165
    Total Energy =                       -345.0132592855117082
    Molecular point group: c1
  Basis Set: CC-PVTZ
  Basis Set:
  Basis Set: CC-PVTZ
  Basis Set:
  @DF-RHF Final Energy:  -345.01200020404639
    Total Energy =                       -345.0120002040466716
  Basis Set: CC-PVTZ
  Basis Set:
  Basis Set: CC-PVTZ
  Basis Set:
  @DF-RHF Final Energy:  -345.01446671516294
    Total Energy =                       -345.0144667151632802
  Basis Set: CC-PVTZ
  Basis Set:
  Basis Set: CC-PVTZ
  Basis Set:
  @DF-RHF Final Energy:  -345.01525770049346
    Total Energy =                       -345.0152577004934074
  Basis Set: CC-PVTZ
  Basis Set:
  Basis Set: CC-PVTZ
  Basis Set:
  @DF-RHF Final Energy:  -345.01528560029357
    Total Energy =                       -345.0152856002936232
  Basis Set: CC-PVTZ
  Basis Set:
  Basis Set: CC-PVTZ
  Basis Set:
  @DF-RHF Final Energy:  -345.01529077873693
    Total Energy =                       -345.0152907787369259
  Basis Set: CC-PVTZ
  Basis Set:
  Basis Set: CC-PVTZ
  Basis Set:
  @DF-RHF Final Energy:  -345.01529208582559
    Total Energy =                       -345.0152920858257062
  Basis Set: CC-PVTZ
  Basis Set:
  Charge       = 0
  Multiplicity = 1
  Basis Set: CC-PVTZ
  Basis Set:

    Orbital Energies (a.u.)
    -----------------------

    Doubly Occupied:

       1A    -20.578733     2A    -20.545651     3A    -11.368187
       4A    -11.290187     5A    -11.239543     6A    -11.223676
       7A    -11.215908     8A     -1.461774     9A     -1.370554
      10A     -1.082888    11A     -0.990963    12A     -0.955694
      13A     -0.836125    14A     -0.766888    15A     -0.701878
      16A     -0.681857    17A     -0.676413    18A     -0.637268
      19A     -0.619165    20A     -0.579854    21A     -0.567142
      22A     -0.542533    23A     -0.520219    24A     -0.497640
      25A     -0.492368    26A     -0.483097    27A     -0.457543
      28A     -0.438383

  @DF-RHF Final Energy:  -345.01529236187162

   => Energetics <=

    Nuclear Repulsion Energy =            313.1220006210697875
    One-Electron Energy =               -1090.6303206028064778
    Two-Electron Energy =                 432.4930276198646197
    DFT Exchange-Correlation Energy =       0.0000000000000000
    Empirical Dispersion Energy =           0.0000000000000000
    PCM Polarization Energy =               0.0000000000000000
    EFP Energy =                            0.0000000000000000
    Total Energy =                       -345.0152923618720706
    Molecular point group: c1
  Basis Set: CC-PVTZ
  Basis Set:

  -Total Gradient:
     Atom            X                  Y                   Z
    ------   -----------------  -----------------  -----------------
       1        0.000030097407    -0.000122828934     0.001458884450
       2       -0.000491742583    -0.000198537956    -0.002055261240
       3        0.000021824831    -0.000016727715     0.000029918760
       4        0.001173676826     0.001249690728     0.000396437733
       5        0.000001370554    -0.000010727073    -0.000013157546
       6        0.000006546715     0.000010476083    -0.000008350382
       7       -0.000002353684    -0.000002668226    -0.000006100960
       8       -0.000006192951     0.000005120061     0.000003242302
       9        0.000000623152     0.000002163487     0.000000094003
      10       -0.000001486067     0.000005017540     0.000005844702
      11        0.000001468070     0.000000999385    -0.000000217873
      12       -0.000004573007    -0.000001062082     0.000000732199
      13       -0.000000386873    -0.000001549167     0.000001045182
      14       -0.000745017410    -0.000910919471     0.000220631770
      15        0.000005593239    -0.000001712801    -0.000012887055
      16        0.000010029606    -0.000007056338    -0.000011016648
      17        0.000000522180     0.000000322486    -0.000009839397

  **** Optimization is complete! (in 8 steps) ****
    Final optimized geometry and variables:
    Molecular point group: c1

    Geometry (in Angstrom), charge = 0, multiplicity = 1:

    O            0.855396348444     1.460218630897     0.196745045637
    C            0.705620292133     0.295594721830     0.139052060083
    C           -0.627578813647    -0.404592739963     0.223027924481
    O            1.763992771238    -0.541470518448     0.074750184094
    C           -1.822578301170     0.536760968114     0.276912266508
    H           -0.710013826398    -1.085216893319    -0.618429212904
    H           -0.585814769061    -1.036255193483     1.105567199066
    C           -3.144875252361    -0.215527611291     0.379474048892
    H           -1.822802671682     1.164986719887    -0.606197383711
    H           -1.710210583024     1.205080088782     1.121439697241
    H           -3.295842056648    -0.868928130189    -0.473742238792
    H           -3.979456142286     0.473964410811     0.417676103534
    H           -3.181640059397    -0.828100606367     1.274265567053
    C            2.120297705912    -1.054129209101    -1.187430674496
    H            1.329277610154    -1.663153021412    -1.609262562579
    H            2.992788513461    -1.668782656605    -1.036750814854
    H            2.363478210507    -0.250507896916    -1.871562807906

  Mulliken Charges: (a.u.)
   Center  Symbol    Alpha    Beta     Spin     Total
       1     O     4.16732  4.16732  0.00000 -0.33463
       2     C     2.78863  2.78863  0.00000  0.42274
       3     C     3.11570  3.11570  0.00000 -0.23141
       4     O     4.16607  4.16607  0.00000 -0.33213
       5     C     3.08037  3.08037  0.00000 -0.16073
       6     H     0.44544  0.44544  0.00000  0.10912
       7     H     0.43856  0.43856  0.00000  0.12288
       8     C     3.15000  3.15000  0.00000 -0.30001
       9     H     0.44781  0.44781  0.00000  0.10437
      10     H     0.44345  0.44345  0.00000  0.11311
      11     H     0.45670  0.45670  0.00000  0.08659
      12     H     0.44488  0.44488  0.00000  0.11025
      13     H     0.45502  0.45502  0.00000  0.08995
      14     C     3.03605  3.03605  0.00000 -0.07211
      15     H     0.46610  0.46610  0.00000  0.06781
      16     H     0.44142  0.44142  0.00000  0.11716
      17     H     0.45648  0.45648  0.00000  0.08703

   Total alpha = 28.00000, Total beta = 28.00000, Total charge =  0.00000

*** Psi4 exiting successfully. Buy a developer a beer!
