  ==> Input File <==

--------------------------------------------------------------------------
set {
	reference rhf
	basis 6-31G*
}

set_num_threads( 4 )
memory 2 gb

molecule MOL {
0 1

H	 1.003333	 -3.086530	 -1.302671
O	 1.184988	 -2.457230	 -0.611485
C	 0.400508	 -1.396616	 -0.801495
C	 0.624473	 -0.343591	 0.253101
O	 -0.366923	 -1.332859	 -1.705928
C	 -0.265902	 0.883932	 0.072916
H	 0.471458	 -0.821183	 1.215320
H	 1.676963	 -0.073597	 0.219632
C	 -1.728698	 0.646073	 0.462102
H	 -0.209144	 1.219470	 -0.958188
H	 0.135059	 1.692851	 0.673903
C	 -2.482460	 -0.343073	 -0.431425
H	 -2.245265	 1.602650	 0.432430
H	 -1.779332	 0.308348	 1.496285
C	 -3.960546	 -0.461025	 -0.060175
H	 -2.395034	 -0.026811	 -1.468912
H	 -2.024850	 -1.327147	 -0.371646
H	 -4.472726	 -1.168004	 -0.705284
H	 -4.465146	 0.496508	 -0.151489
H	 -4.081218	 -0.800940	 0.964585

	symmetry c1
}
set optking {
	frozen_dihedral = ("
		7 4 6 10
	")
}

ee = optimize('scf')
oeprop('DIPOLE', 'QUADRUPOLE', 'MULLIKEN_CHARGES')
f=open( 'psi4out.xyz', 'w' )
f.write( "20  " )
f.write( str(ee) + "\n" )
f.write( MOL.save_string_xyz() )
f.close()
--------------------------------------------------------------------------

    Molecular point group: c1
  Charge       = 0
  Multiplicity = 1
  Basis Set: 6-31G*
  Basis Set:
  @DF-RHF Final Energy:  -383.93599998583710
    Total Energy =                       -383.9359999858372703
    Molecular point group: c1
  Basis Set: 6-31G*
  Basis Set:
  Basis Set: 6-31G*
  Basis Set:
  @DF-RHF Final Energy:  -383.94213291395602
    Total Energy =                       -383.9421329139560157
  Basis Set: 6-31G*
  Basis Set:
  Basis Set: 6-31G*
  Basis Set:
  @DF-RHF Final Energy:  -383.94403273892755
    Total Energy =                       -383.9440327389274898
  Basis Set: 6-31G*
  Basis Set:
  Basis Set: 6-31G*
  Basis Set:
  @DF-RHF Final Energy:  -383.94310927171836
    Total Energy =                       -383.9431092717182992
  Basis Set: 6-31G*
  Basis Set:
  @DF-RHF Final Energy:  -383.94587706454951
    Total Energy =                       -383.9458770645497907
  @DF-RHF Final Energy:  -383.94613395370925
    Total Energy =                       -383.9461339537086815
  @DF-RHF Final Energy:  -383.94634031069467
    Total Energy =                       -383.9463403106947226
  @DF-RHF Final Energy:  -383.94648339457785
    Total Energy =                       -383.9464833945778537
  @DF-RHF Final Energy:  -383.94653102930897
    Total Energy =                       -383.9465310293091989
  @DF-RHF Final Energy:  -383.94659112929247
    Total Energy =                       -383.9465911292920737
  Basis Set: 6-31G*
  Basis Set:
  @DF-RHF Final Energy:  -383.94661677947676
    Total Energy =                       -383.9466167794768126
  Basis Set: 6-31G*
  Basis Set:
  Basis Set: 6-31G*
  Basis Set:
  @DF-RHF Final Energy:  -383.94662114965337
    Total Energy =                       -383.9466211496531969
  Basis Set: 6-31G*
  Basis Set:
  Basis Set: 6-31G*
  Basis Set:
  @DF-RHF Final Energy:  -383.94662228502892
    Total Energy =                       -383.9466222850294344
  Basis Set: 6-31G*
  Basis Set:
  Charge       = 0
  Multiplicity = 1
  Basis Set: 6-31G*
  Basis Set:

    Orbital Energies (a.u.)
    -----------------------

    Doubly Occupied:

       1A    -20.614758     2A    -20.549665     3A    -11.381587
       4A    -11.240345     5A    -11.225439     6A    -11.218728
       7A    -11.214668     8A    -11.208591     9A     -1.475528
      10A     -1.365384    11A     -1.093969    12A     -1.037915
      13A     -0.958915    14A     -0.872083    15A     -0.813820
      16A     -0.774707    17A     -0.701496    18A     -0.691128
      19A     -0.661628    20A     -0.627994    21A     -0.600058
      22A     -0.595035    23A     -0.574676    24A     -0.552425
      25A     -0.539678    26A     -0.514689    27A     -0.495995
      28A     -0.483138    29A     -0.464923    30A     -0.459549
      31A     -0.457062    32A     -0.440329

  @DF-RHF Final Energy:  -383.94662259573897

   => Energetics <=

    Nuclear Repulsion Energy =            391.1667527109252660
    One-Electron Energy =               -1298.4149417322400950
    Two-Electron Energy =                 523.3015664255761976
    DFT Exchange-Correlation Energy =       0.0000000000000000
    Empirical Dispersion Energy =           0.0000000000000000
    PCM Polarization Energy =               0.0000000000000000
    EFP Energy =                            0.0000000000000000
    Total Energy =                       -383.9466225957386314
    Molecular point group: c1
  Basis Set: 6-31G*
  Basis Set:

  -Total Gradient:
     Atom            X                  Y                   Z
    ------   -----------------  -----------------  -----------------
       1        0.000015224026     0.000002216820    -0.000004411942
       2       -0.000018114949    -0.000010228059     0.000009147021
       3        0.000000059605     0.000010855951    -0.000003209407
       4       -0.000999918608    -0.000860942493    -0.000714963197
       5        0.000003060152     0.000001269118    -0.000005834170
       6       -0.001057914006    -0.000853383290    -0.000318732188
       7        0.001007675090     0.000845721082     0.000645114515
       8       -0.000012323708     0.000000523287     0.000003039376
       9       -0.000005540140    -0.000012383961    -0.000007480221
      10        0.001077407320     0.000873565167     0.000391814882
      11        0.000007686633    -0.000002742775    -0.000002935232
      12       -0.000011719832    -0.000002716484     0.000002504874
      13        0.000002837953    -0.000001616723    -0.000002090594
      14        0.000004462493    -0.000000731151     0.000002597685
      15       -0.000005421648     0.000003917418     0.000002991504
      16        0.000001660549    -0.000003074898    -0.000002748123
      17       -0.000000218426     0.000011885373     0.000001662141
      18       -0.000003384626     0.000000838429     0.000000811989
      19       -0.000000417331    -0.000000671465     0.000002042003
      20       -0.000005100555    -0.000002301348     0.000000679084

  **** Optimization is complete! (in 14 steps) ****
    Final optimized geometry and variables:
    Molecular point group: c1

    Geometry (in Angstrom), charge = 0, multiplicity = 1:

    H            1.561214864665    -2.510490553472    -0.881092724351
    O            1.570724899374    -1.950448278295    -0.110676189279
    C            1.325450141051    -0.702914039828    -0.505161461423
    C            1.393453909057     0.283634994512     0.633682501308
    O            1.126207217552    -0.429027201274    -1.644563895006
    C            0.473382571474     1.498849478704     0.476400580661
    H            1.227128862444    -0.229011753071     1.573717988492
    H            2.429069293516     0.617265361050     0.650964404822
    C           -0.993034826284     1.265933186045     0.860080207083
    H            0.550338100273     1.867846305586    -0.540400403122
    H            0.861606244117     2.285624967492     1.117141391608
    C           -1.748180999510     0.222173606546     0.032708760702
    H           -1.511925155462     2.218347750457     0.775800679765
    H           -1.043005468894     0.988718400323     1.912271710361
    C           -3.230420452495     0.155361025652     0.400795165034
    H           -1.642583086409     0.447497065417    -1.024288296214
    H           -1.307837649605    -0.760826913969     0.181571359696
    H           -3.746538029161    -0.597746045221    -0.186327625222
    H           -3.721771179209     1.107680706514     0.222494626792
    H           -3.364726392810    -0.093652648864     1.449898010975

  Mulliken Charges: (a.u.)
   Center  Symbol    Alpha    Beta     Spin     Total
       1     H     0.26813  0.26813  0.00000  0.46373
       2     O     4.35082  4.35082  0.00000 -0.70164
       3     C     2.62007  2.62007  0.00000  0.75986
       4     C     3.21208  3.21208  0.00000 -0.42416
       5     O     4.28241  4.28241  0.00000 -0.56481
       6     C     3.16115  3.16115  0.00000 -0.32231
       7     H     0.39856  0.39856  0.00000  0.20288
       8     H     0.39592  0.39592  0.00000  0.20817
       9     C     3.15183  3.15183  0.00000 -0.30366
      10     H     0.40220  0.40220  0.00000  0.19560
      11     H     0.41672  0.41672  0.00000  0.16657
      12     C     3.15924  3.15924  0.00000 -0.31848
      13     H     0.41948  0.41948  0.00000  0.16104
      14     H     0.42427  0.42427  0.00000  0.15147
      15     C     3.23942  3.23942  0.00000 -0.47884
      16     H     0.41059  0.41059  0.00000  0.17882
      17     H     0.42497  0.42497  0.00000  0.15007
      18     H     0.41814  0.41814  0.00000  0.16373
      19     H     0.42142  0.42142  0.00000  0.15717
      20     H     0.42260  0.42260  0.00000  0.15481

   Total alpha = 32.00000, Total beta = 32.00000, Total charge =  0.00000
