  ==> Input File <==

--------------------------------------------------------------------------
set {
	reference rhf
	basis 6-31G*
}

set_num_threads( 4 )
memory 2 gb

molecule MOL {
0 1

H	 -0.367348	 2.047014	 -0.308205
C	 0.352277	 1.337084	 0.083769
N	 -0.000016	 0.000074	 -0.335546
H	 1.328359	 1.600444	 -0.307950
H	 0.381933	 1.450534	 1.172486
C	 1.124629	 -0.697731	 -0.915642
C	 -0.612863	 -0.756913	 0.731949
H	 0.806525	 -1.667161	 -1.282201
H	 1.513284	 -0.134138	 -1.756341
H	 1.943130	 -0.855503	 -0.205679
H	 -1.492518	 -0.236712	 1.093851
H	 -0.927159	 -1.726352	 0.362024
H	 0.058269	 -0.919423	 1.581714

	symmetry c1
}
set optking {
	frozen_dihedral = ("
		6 3 2 1
	")
}

ee = optimize('scf')
oeprop('DIPOLE', 'QUADRUPOLE', 'MULLIKEN_CHARGES')
f=open( 'psi4out.xyz', 'w' )
f.write( "13  " )
f.write( str(ee) + "\n" )
f.write( MOL.save_string_xyz() )
f.close()
--------------------------------------------------------------------------

    Molecular point group: c1
  Charge       = 0
  Multiplicity = 1
  Basis Set: 6-31G*
  Basis Set:
  @DF-RHF Final Energy:  -173.26265217842047
    Total Energy =                       -173.2626521784205238
    Molecular point group: c1
  Basis Set: 6-31G*
  Basis Set:
  Basis Set: 6-31G*
  Basis Set:
  @DF-RHF Final Energy:  -173.26335507720486
    Total Energy =                       -173.2633550772048068
  Basis Set: 6-31G*
  Basis Set:
  Basis Set: 6-31G*
  Basis Set:
  @DF-RHF Final Energy:  -173.26352944042597
    Total Energy =                       -173.2635294404259128
  Basis Set: 6-31G*
  Basis Set:
  Basis Set: 6-31G*
  Basis Set:
  @DF-RHF Final Energy:  -173.26354437298892
    Total Energy =                       -173.2635443729888323
  Basis Set: 6-31G*
  Basis Set:
  Charge       = 0
  Multiplicity = 1
  Basis Set: 6-31G*
  Basis Set:

    Orbital Energies (a.u.)
    -----------------------

    Doubly Occupied:

       1A    -15.538677     2A    -11.235695     3A    -11.235361
       4A    -11.235336     5A     -1.219312     6A     -0.951842
       7A     -0.951324     8A     -0.805168     9A     -0.637078
      10A     -0.629247    11A     -0.627162    12A     -0.550150
      13A     -0.544491    14A     -0.514724    15A     -0.502025
      16A     -0.501060    17A     -0.336575

  @DF-RHF Final Energy:  -173.26354566078734

   => Energetics <=

    Nuclear Repulsion Energy =            138.7359226297614043
    One-Electron Energy =                -507.9684833135983126
    Two-Electron Energy =                 195.9690150230495931
    DFT Exchange-Correlation Energy =       0.0000000000000000
    Empirical Dispersion Energy =           0.0000000000000000
    PCM Polarization Energy =               0.0000000000000000
    EFP Energy =                            0.0000000000000000
    Total Energy =                       -173.2635456607873436
    Molecular point group: c1
  Basis Set: 6-31G*
  Basis Set:

  -Total Gradient:
     Atom            X                  Y                   Z
    ------   -----------------  -----------------  -----------------
       1        0.002187482830     0.000483428351    -0.003475892044
       2       -0.003143495812    -0.000145453189     0.003276016319
       3        0.001889032640    -0.001380874883     0.003065406178
       4       -0.000002522352     0.000006033950    -0.000024552841
       5        0.000007881993    -0.000032915645    -0.000004899791
       6       -0.000920339675     0.001080465147    -0.002874423179
       7       -0.000025439188     0.000060549275     0.000014311143
       8        0.000007831195    -0.000002988752     0.000003263377
       9        0.000026952394    -0.000023150608    -0.000013213780
      10       -0.000005835183    -0.000008577252    -0.000002331475
      11       -0.000021466710    -0.000018677893     0.000029564238
      12        0.000000413364    -0.000006797938     0.000011228274
      13       -0.000000495496    -0.000011040562    -0.000004476418

  **** Optimization is complete! (in 5 steps) ****
    Final optimized geometry and variables:
    Molecular point group: c1

    Geometry (in Angstrom), charge = 0, multiplicity = 1:

    H           -0.652050099115     2.076102494167    -0.194939344338
    C            0.105413682583     1.390848281949     0.174576697014
    N           -0.196031746224     0.024656614623    -0.214610809619
    H            1.047431882650     1.706622836335    -0.259921139850
    H            0.193901751031     1.509643347646     1.253535800764
    C            0.903206736987    -0.680110070229    -0.828687382822
    C           -0.863776762661    -0.729003267569     0.816803496228
    H            0.559362572773    -1.641927379240    -1.192903777138
    H            1.272241060647    -0.118819281742    -1.679007392921
    H            1.743581091688    -0.860380136266    -0.149749558755
    H           -1.744522907070    -0.192381899561     1.152327636654
    H           -1.189516160689    -1.686057084694     0.424588494811
    H           -0.231324054909    -0.917911645751     1.690791619250

  Mulliken Charges: (a.u.)
   Center  Symbol    Alpha    Beta     Spin     Total
       1     H     0.41640  0.41640  0.00000  0.16720
       2     C     3.14216  3.14216  0.00000 -0.28433
       3     N     3.77284  3.77284  0.00000 -0.54568
       4     H     0.42064  0.42064  0.00000  0.15871
       5     H     0.42731  0.42731  0.00000  0.14538
       6     C     3.13895  3.13895  0.00000 -0.27789
       7     C     3.13990  3.13990  0.00000 -0.27980
       8     H     0.41843  0.41843  0.00000  0.16314
       9     H     0.41682  0.41682  0.00000  0.16637
      10     H     0.43599  0.43599  0.00000  0.12802
      11     H     0.41676  0.41676  0.00000  0.16648
      12     H     0.41813  0.41813  0.00000  0.16375
      13     H     0.43568  0.43568  0.00000  0.12865

   Total alpha = 17.00000, Total beta = 17.00000, Total charge = -0.00000
