                              Psi4 1.0.54 Driver

  ==> Input File <==

--------------------------------------------------------------------------
set {
	reference rhf
	basis cc-pvtz
}

set_num_threads( 4 )
memory 2 gb

molecule MOL {
0 1

H	 -3.249481	 -0.429485	 0.684664
O	 -2.658848	 -0.704215	 -0.000460
C	 -1.605397	 0.107680	 0.001145
C	 -0.310616	 -0.658853	 0.000791
O	 -1.718351	 1.284629	 -0.000627
C	 0.926581	 0.227233	 0.000178
H	 -0.327628	 -1.313681	 -0.864448
H	 -0.327041	 -1.313334	 0.866298
C	 2.220156	 -0.582071	 -0.000088
H	 0.899945	 0.878221	 -0.866390
H	 0.900542	 0.878581	 0.866486
C	 3.466689	 0.296012	 -0.000457
H	 2.239073	 -1.234095	 -0.869382
H	 2.239505	 -1.233985	 0.869270
H	 3.493549	 0.935857	 -0.875887
H	 4.368821	 -0.304526	 -0.001199
H	 3.494559	 0.935166	 0.875458

	symmetry c1
}
set optking {
	frozen_dihedral = ("
		1 2 3 5
	")
}

ee,wfn = optimize('scf', return_wfn=True)
oeprop( wfn, 'DIPOLE', 'QUADRUPOLE', 'MULLIKEN_CHARGES')
f=open( 'psi4out.xyz', 'w' )
f.write( "17  " )
f.write( str(ee) + "\n" )
f.write( MOL.save_string_xyz() )
f.close()
--------------------------------------------------------------------------

    Molecular point group: c1
  Charge       = 0
  Multiplicity = 1
  Basis Set: CC-PVTZ
  Basis Set:
  @DF-RHF Final Energy:  -345.03712788500349
    Total Energy =                       -345.0371278850032013
    Molecular point group: c1
  Basis Set: CC-PVTZ
  Basis Set:
  Basis Set: CC-PVTZ
  Basis Set:
  @DF-RHF Final Energy:  -345.03470969073624
    Total Energy =                       -345.0347096907362356
  Basis Set: CC-PVTZ
  Basis Set:
  Basis Set: CC-PVTZ
  Basis Set:
  @DF-RHF Final Energy:  -345.03805229620554
    Total Energy =                       -345.0380522962054783
  Basis Set: CC-PVTZ
  Basis Set:
  Basis Set: CC-PVTZ
  Basis Set:
  @DF-RHF Final Energy:  -345.03814688466559
    Total Energy =                       -345.0381468846655935
  Basis Set: CC-PVTZ
  Basis Set:
  Basis Set: CC-PVTZ
  Basis Set:
  @DF-RHF Final Energy:  -345.03815604091017
    Total Energy =                       -345.0381560409099961
  Basis Set: CC-PVTZ
  Basis Set:
  Basis Set: CC-PVTZ
  Basis Set:
  @DF-RHF Final Energy:  -345.03815828825651
    Total Energy =                       -345.0381582882562839
  Basis Set: CC-PVTZ
  Basis Set:
  Charge       = 0
  Multiplicity = 1
  Basis Set: CC-PVTZ
  Basis Set:

    Orbital Energies (a.u.)
    -----------------------

    Doubly Occupied:

       1A    -20.594258     2A    -20.546049     3A    -11.374107
       4A    -11.239245     5A    -11.221442     6A    -11.220813
       7A    -11.210911     8A     -1.468811     9A     -1.370285
      10A     -1.092631    11A     -1.018879    12A     -0.912666
      13A     -0.824377    14A     -0.792360    15A     -0.706793
      16A     -0.682840    17A     -0.667962    18A     -0.637378
      19A     -0.592252    20A     -0.587091    21A     -0.554712
      22A     -0.538634    23A     -0.511693    24A     -0.493726
      25A     -0.480834    26A     -0.475864    27A     -0.473089
      28A     -0.445788

  @DF-RHF Final Energy:  -345.03815839643352

   => Energetics <=

    Nuclear Repulsion Energy =            304.3328318191562971
    One-Electron Energy =               -1073.2710031362087193
    Two-Electron Energy =                 423.9000129206191900
    DFT Exchange-Correlation Energy =       0.0000000000000000
    Empirical Dispersion Energy =           0.0000000000000000
    PCM Polarization Energy =               0.0000000000000000
    EFP Energy =                            0.0000000000000000
    Total Energy =                       -345.0381583964331753
    Molecular point group: c1
  Basis Set: CC-PVTZ
  Basis Set:

  -Total Gradient:
     Atom            X                  Y                   Z
    ------   -----------------  -----------------  -----------------
       1        0.004306491343    -0.007084484907     0.007428985594
       2       -0.004888448346     0.009052431561    -0.013898374750
       3       -0.000344175123    -0.002322113722     0.016452558662
       4        0.000015389826    -0.000088571451    -0.000041435320
       5        0.000964357303     0.000472505608    -0.009914848753
       6       -0.000020826605     0.000010255606    -0.000020800424
       7        0.000013086602    -0.000004739803    -0.000014799393
       8        0.000009388990    -0.000023232354    -0.000002327148
       9       -0.000015549482    -0.000029796432     0.000008771690
      10       -0.000002240847     0.000008747663    -0.000004734765
      11       -0.000004718206     0.000002016931     0.000009551852
      12       -0.000025940874     0.000016136285    -0.000004728913
      13       -0.000000614826    -0.000002927777    -0.000000191100
      14        0.000001805073    -0.000004429743     0.000002967013
      15        0.000002989541     0.000004127293    -0.000001785091
      16       -0.000013288316    -0.000007258408    -0.000001104430
      17        0.000002293942     0.000001333653     0.000002295277

  **** Optimization is complete! (in 7 steps) ****
    Final optimized geometry and variables:
    Molecular point group: c1

    Geometry (in Angstrom), charge = 0, multiplicity = 1:

    H           -3.352325798517    -0.477129549607     0.473571363363
    O           -2.668830837019    -0.700366525736    -0.137587362557
    C           -1.607390641668     0.114031037323     0.020847768295
    C           -0.311507174835    -0.649697900933     0.019595868418
    O           -1.715056152400     1.286521325640     0.057137396703
    C            0.928571078791     0.231429558375     0.010121597853
    H           -0.336437046586    -1.311926417039    -0.839811335815
    H           -0.326607508093    -1.300764147676     0.888949282146
    C            2.219780402921    -0.581650880310     0.010511788949
    H            0.901142040392     0.876914788648    -0.860816262124
    H            0.907601725461     0.888683398568     0.872133186089
    C            3.468911933575     0.292580502706    -0.000396402939
    H            2.233454241929    -1.239573550960    -0.854342243283
    H            2.240406986449    -1.227714126640     0.884288082591
    H            3.494704673882     0.925931067271    -0.880553957853
    H            4.369187959980    -0.310734166635     0.000125038248
    H            3.501706277510     0.938023603819     0.870742432227

  Mulliken Charges: (a.u.)
   Center  Symbol    Alpha    Beta     Spin     Total
       1     H     0.38142  0.38142  0.00000  0.23715
       2     O     4.17235  4.17235  0.00000 -0.34470
       3     C     2.80416  2.80416  0.00000  0.39168
       4     C     3.11084  3.11084  0.00000 -0.22168
       5     O     4.17528  4.17528  0.00000 -0.35056
       6     C     3.08370  3.08370  0.00000 -0.16739
       7     H     0.43711  0.43711  0.00000  0.12578
       8     H     0.44293  0.44293  0.00000  0.11414
       9     C     3.08570  3.08570  0.00000 -0.17141
      10     H     0.44598  0.44598  0.00000  0.10803
      11     H     0.44638  0.44638  0.00000  0.10724
      12     C     3.14917  3.14917  0.00000 -0.29834
      13     H     0.45445  0.45445  0.00000  0.09109
      14     H     0.45521  0.45521  0.00000  0.08957
      15     H     0.45347  0.45347  0.00000  0.09306
      16     H     0.44800  0.44800  0.00000  0.10401
      17     H     0.45383  0.45383  0.00000  0.09233

   Total alpha = 28.00000, Total beta = 28.00000, Total charge = -0.00000

*** Psi4 exiting successfully. Buy a developer a beer!
