  ==> Input File <==

--------------------------------------------------------------------------
set {
	reference rhf
	basis cc-pvtz
}

set_num_threads( 4 )
memory 2 gb

molecule MOL {
0 1

H	 -2.816458	 -0.841657	 -0.064679
N	 -1.878861	 -0.711874	 0.250184
C	 -1.341419	 0.551458	 -0.220231
H	 -1.333674	 -1.468530	 -0.105118
C	 0.082190	 0.731516	 0.254705
H	 -1.357065	 0.652078	 -1.304747
H	 -1.939897	 1.357530	 0.189797
O	 0.881195	 -0.248324	 -0.336237
H	 0.440901	 1.722476	 -0.020063
H	 0.119896	 0.643586	 1.338114
C	 2.167221	 -0.332576	 0.181700
H	 2.688944	 -1.115480	 -0.349574
H	 2.710819	 0.600653	 0.050252
H	 2.154171	 -0.576540	 1.241357

	symmetry c1
}
set optking {
	frozen_dihedral = ("
		11 8 5 3
	")
}

ee = optimize('scf')
oeprop('DIPOLE', 'QUADRUPOLE', 'MULLIKEN_CHARGES')
f=open( 'psi4out.xyz', 'w' )
f.write( "14  " )
f.write( str(ee) + "\n" )
f.write( MOL.save_string_xyz() )
f.close()
--------------------------------------------------------------------------

    Molecular point group: c1
  Charge       = 0
  Multiplicity = 1
  Basis Set: CC-PVTZ
  Basis Set:
  @DF-RHF Final Energy:  -248.22607845019931
    Total Energy =                       -248.2260784501991679
    Molecular point group: c1
  Basis Set: CC-PVTZ
  Basis Set:
  Basis Set: CC-PVTZ
  Basis Set:
  @DF-RHF Final Energy:  -248.22608337215576
    Total Energy =                       -248.2260833721559834
  Basis Set: CC-PVTZ
  Basis Set:
  Charge       = 0
  Multiplicity = 1
  Basis Set: CC-PVTZ
  Basis Set:

    Orbital Energies (a.u.)
    -----------------------

    Doubly Occupied:

       1A    -20.550575     2A    -15.523789     3A    -11.263831
       4A    -11.263485     5A    -11.239911     6A     -1.384294
       7A     -1.176264     8A     -1.000604     9A     -0.907462
      10A     -0.815816    11A     -0.685928    12A     -0.675349
      13A     -0.647421    14A     -0.613156    15A     -0.606755
      16A     -0.542037    17A     -0.530323    18A     -0.498146
      19A     -0.474399    20A     -0.420107    21A     -0.384084

  @DF-RHF Final Energy:  -248.22608402989917

   => Energetics <=

    Nuclear Repulsion Energy =            194.8222303089330865
    One-Electron Energy =                -723.6891613965098031
    Two-Electron Energy =                 280.6408470576774334
    DFT Exchange-Correlation Energy =       0.0000000000000000
    Empirical Dispersion Energy =           0.0000000000000000
    PCM Polarization Energy =               0.0000000000000000
    EFP Energy =                            0.0000000000000000
    Total Energy =                       -248.2260840298993116
    Molecular point group: c1
  Basis Set: CC-PVTZ
  Basis Set:

  -Total Gradient:
     Atom            X                  Y                   Z
    ------   -----------------  -----------------  -----------------
       1        0.000010717790     0.000012474092    -0.000005373101
       2        0.000007818459     0.000024031839     0.000014124763
       3       -0.000140647083    -0.000491202382     0.000513606867
       4        0.000004602217     0.000013979117     0.000001788854
       5        0.000044633926     0.000335656867    -0.000462529627
       6       -0.000019193468     0.000005290492    -0.000024200060
       7        0.000027981792     0.000003808050     0.000001948899
       8        0.000306308429     0.000598844895    -0.000563855175
       9        0.000008123732    -0.000004055940     0.000006760625
      10       -0.000005901279     0.000009314431    -0.000001275068
      11       -0.000235302257    -0.000500503811     0.000532976006
      12       -0.000011205767     0.000001904967    -0.000009267081
      13        0.000010252232    -0.000008013154    -0.000000387325
      14       -0.000008188722    -0.000001529463    -0.000004318578

  **** Optimization is complete! (in 3 steps) ****
    Final optimized geometry and variables:
    Molecular point group: c1

    Geometry (in Angstrom), charge = 0, multiplicity = 1:

    H           -2.809091638812    -0.819647310600    -0.080791889230
    N           -1.869673648686    -0.690993039000     0.229011152148
    C           -1.333462154409     0.571566118526    -0.244498569805
    H           -1.327528119860    -1.447896565208    -0.130288433478
    C            0.090047176863     0.752904019348     0.230804272093
    H           -1.349947332983     0.669597179403    -1.329330311197
    H           -1.932071242478     1.378631414656     0.163390915387
    O            0.890222380605    -0.227575455634    -0.358199431132
    H            0.451348584711     1.743764736016    -0.040325707296
    H            0.122604957180     0.662788819175     1.314000977110
    C            2.176641957698    -0.311971617045     0.159223679242
    H            2.698733507838    -1.092570387397    -0.375119400189
    H            2.720442190373     0.621671054776     0.030738718079
    H            2.163160681992    -0.559298425630     1.217855464174

  Mulliken Charges: (a.u.)
   Center  Symbol    Alpha    Beta     Spin     Total
       1     H     0.43012  0.43012  0.00000  0.13976
       2     N     3.69445  3.69445  0.00000 -0.38890
       3     C     3.02244  3.02244  0.00000 -0.04489
       4     H     0.42253  0.42253  0.00000  0.15493
       5     C     2.96963  2.96963  0.00000  0.06073
       6     H     0.46424  0.46424  0.00000  0.07151
       7     H     0.45847  0.45847  0.00000  0.08307
       8     O     4.18076  4.18076  0.00000 -0.36152
       9     H     0.46797  0.46797  0.00000  0.06406
      10     H     0.46934  0.46934  0.00000  0.06132
      11     C     3.03222  3.03222  0.00000 -0.06444
      12     H     0.44778  0.44778  0.00000  0.10443
      13     H     0.47101  0.47101  0.00000  0.05797
      14     H     0.46902  0.46902  0.00000  0.06196

   Total alpha = 21.00000, Total beta = 21.00000, Total charge = -0.00000
