  ==> Input File <==

--------------------------------------------------------------------------
set {
	reference rhf
	basis cc-pvtz
}

set_num_threads( 4 )
memory 2 gb

molecule MOL {
0 1

H	 -2.816458	 -0.841657	 -0.064679
N	 -1.878861	 -0.711874	 0.250184
C	 -1.341419	 0.551458	 -0.220231
H	 -1.333674	 -1.468530	 -0.105118
C	 0.082190	 0.731516	 0.254705
H	 -1.357065	 0.652078	 -1.304747
H	 -1.939897	 1.357530	 0.189797
O	 0.929335	 0.737691	 -0.854355
H	 0.173822	 1.669487	 0.800588
H	 0.348944	 -0.081286	 0.926362
C	 2.280722	 0.828451	 -0.546565
H	 2.833849	 0.827643	 -1.474701
H	 2.505000	 1.746384	 -0.007313
H	 2.608608	 -0.014131	 0.057677

	symmetry c1
}
set optking {
	frozen_dihedral = ("
		8 5 3 6
	")
}

ee = optimize('scf')
oeprop('DIPOLE', 'QUADRUPOLE', 'MULLIKEN_CHARGES')
f=open( 'psi4out.xyz', 'w' )
f.write( "14  " )
f.write( str(ee) + "\n" )
f.write( MOL.save_string_xyz() )
f.close()
--------------------------------------------------------------------------

    Molecular point group: c1
  Charge       = 0
  Multiplicity = 1
  Basis Set: CC-PVTZ
  Basis Set:
  @DF-RHF Final Energy:  -248.21878784648331
    Total Energy =                       -248.2187878464833943
    Molecular point group: c1
  Basis Set: CC-PVTZ
  Basis Set:
  Basis Set: CC-PVTZ
  Basis Set:
  @DF-RHF Final Energy:  -248.21934290795824
    Total Energy =                       -248.2193429079580937
  Basis Set: CC-PVTZ
  Basis Set:
  Basis Set: CC-PVTZ
  Basis Set:
  @DF-RHF Final Energy:  -248.21949939123297
    Total Energy =                       -248.2194993912329437
  Basis Set: CC-PVTZ
  Basis Set:
  Basis Set: CC-PVTZ
  Basis Set:
  @DF-RHF Final Energy:  -248.21950804864730
    Total Energy =                       -248.2195080486474126
  Basis Set: CC-PVTZ
  Basis Set:
  Charge       = 0
  Multiplicity = 1
  Basis Set: CC-PVTZ
  Basis Set:

    Orbital Energies (a.u.)
    -----------------------

    Doubly Occupied:

       1A    -20.549043     2A    -15.529405     3A    -11.263156
       4A    -11.262416     5A    -11.240137     6A     -1.382473
       7A     -1.178764     8A     -0.997985     9A     -0.902292
      10A     -0.822907    11A     -0.685736    12A     -0.668158
      13A     -0.652267    14A     -0.619004    15A     -0.593650
      16A     -0.556982    17A     -0.520437    18A     -0.499159
      19A     -0.472024    20A     -0.419010    21A     -0.385923

  @DF-RHF Final Energy:  -248.21950871877351

   => Energetics <=

    Nuclear Repulsion Energy =            191.6397077390245727
    One-Electron Energy =                -717.3165714034006442
    Two-Electron Energy =                 277.4573549456025603
    DFT Exchange-Correlation Energy =       0.0000000000000000
    Empirical Dispersion Energy =           0.0000000000000000
    PCM Polarization Energy =               0.0000000000000000
    EFP Energy =                            0.0000000000000000
    Total Energy =                       -248.2195087187734543
    Molecular point group: c1
  Basis Set: CC-PVTZ
  Basis Set:

  -Total Gradient:
     Atom            X                  Y                   Z
    ------   -----------------  -----------------  -----------------
       1       -0.000036728792    -0.000007766291    -0.000018415168
       2        0.000022572924    -0.000023325158     0.000042072728
       3       -0.000463074173     0.003307198020     0.000148012200
       4        0.000007773108    -0.000034338898    -0.000016180978
       5        0.000294579430    -0.002768699554     0.000119507321
       6        0.000331418577    -0.002240382782    -0.000167015070
       7        0.000018463745     0.000006091823     0.000009461433
       8       -0.000176847232     0.001752355629    -0.000118913262
       9       -0.000004231222     0.000008592487    -0.000010718340
      10        0.000002472215    -0.000010125290     0.000000229267
      11        0.000010688959     0.000023463452     0.000022035632
      12       -0.000019309005    -0.000007448628    -0.000001721241
      13        0.000012386965     0.000004072953    -0.000001781933
      14       -0.000000165494    -0.000009687763    -0.000006572589

  **** Optimization is complete! (in 5 steps) ****
    Final optimized geometry and variables:
    Molecular point group: c1

    Geometry (in Angstrom), charge = 0, multiplicity = 1:

    H           -2.892130269963    -1.204375852145     0.226779238901
    N           -1.928350867181    -1.129585806877     0.475585121729
    C           -1.374733092577     0.137865059016     0.016414364978
    H           -1.455625421380    -1.895598568244     0.041649459214
    C            0.071131626707     0.312022630294     0.482862179120
    H           -1.378422739970     0.230651115139    -1.065445534651
    H           -1.990950915417     0.930546357849     0.420180972213
    O            0.921347276664     0.301601622045    -0.625571041009
    H            0.190859667063     1.251045118929     1.019559203840
    H            0.330391387002    -0.489884931093     1.168596292329
    C            2.266413912451     0.443693252414    -0.312376228501
    H            2.826278896670     0.423383827642    -1.236263550759
    H            2.460510276426     1.387388573935     0.193343965857
    H            2.615778766568    -0.364646580000     0.326530037142

  Mulliken Charges: (a.u.)
   Center  Symbol    Alpha    Beta     Spin     Total
       1     H     0.42939  0.42939  0.00000  0.14122
       2     N     3.69245  3.69245  0.00000 -0.38490
       3     C     3.03041  3.03041  0.00000 -0.06081
       4     H     0.42755  0.42755  0.00000  0.14490
       5     C     2.97135  2.97135  0.00000  0.05730
       6     H     0.45817  0.45817  0.00000  0.08367
       7     H     0.45624  0.45624  0.00000  0.08752
       8     O     4.17375  4.17375  0.00000 -0.34751
       9     H     0.47273  0.47273  0.00000  0.05454
      10     H     0.46755  0.46755  0.00000  0.06491
      11     C     3.02896  3.02896  0.00000 -0.05791
      12     H     0.44739  0.44739  0.00000  0.10521
      13     H     0.47203  0.47203  0.00000  0.05594
      14     H     0.47204  0.47204  0.00000  0.05593

   Total alpha = 21.00000, Total beta = 21.00000, Total charge = -0.00000
