  ==> Input File <==

--------------------------------------------------------------------------
set {
	reference rhf
	basis 6-31G*
}

set_num_threads( 4 )
memory 2 gb

molecule MOL {
0 1

O	 3.907787	 -0.360760	 -0.118032
C	 2.843464	 0.164689	 -0.000222
C	 1.546494	 -0.624492	 -0.000609
C	 2.718020	 1.666091	 0.158555
C	 0.291004	 0.242674	 0.000989
H	 1.557904	 -1.283758	 -0.867573
H	 1.558622	 -1.285963	 0.864672
C	 -0.994322	 -0.586602	 0.000262
H	 0.309117	 0.896430	 -0.865270
H	 0.309661	 0.894078	 0.869017
C	 -2.259874	 0.272531	 0.000494
H	 -1.004862	 -1.240012	 -0.870939
H	 -1.005220	 -1.241071	 0.870675
C	 -3.549786	 -0.549746	 -0.000374
H	 -2.250389	 0.926680	 -0.869574
H	 -2.250838	 0.925513	 0.871430
C	 -4.809590	 0.315458	 -0.000369
H	 -3.560515	 -1.202009	 -0.871156
H	 -3.561123	 -1.202955	 0.869711
H	 -4.844746	 0.956611	 -0.876632
H	 -5.706986	 -0.295590	 -0.001609
H	 -4.845960	 0.954827	 0.877144
H	 2.219647	 1.908090	 1.092729
H	 3.700267	 2.117606	 0.145944
H	 2.117181	 2.082899	 -0.644501

	symmetry c1
}
set optking {
	frozen_dihedral = ("
		1 2 3 6
	")
}

ee = optimize('scf')
oeprop('DIPOLE', 'QUADRUPOLE', 'MULLIKEN_CHARGES')
f=open( 'psi4out.xyz', 'w' )
f.write( "25  " )
f.write( str(ee) + "\n" )
f.write( MOL.save_string_xyz() )
f.close()
--------------------------------------------------------------------------

    Molecular point group: c1
  Charge       = 0
  Multiplicity = 1
  Basis Set: 6-31G*
  Basis Set:
  @DF-RHF Final Energy:  -387.12918977024287
    Total Energy =                       -387.1291897702428741
    Molecular point group: c1
  Basis Set: 6-31G*
  Basis Set:
  Basis Set: 6-31G*
  Basis Set:
  @DF-RHF Final Energy:  -387.13059378024309
    Total Energy =                       -387.1305937802434300
  Basis Set: 6-31G*
  Basis Set:
  Basis Set: 6-31G*
  Basis Set:
  @DF-RHF Final Energy:  -387.13189160876505
    Total Energy =                       -387.1318916087653861
  Basis Set: 6-31G*
  Basis Set:
  Basis Set: 6-31G*
  Basis Set:
  @DF-RHF Final Energy:  -387.13199744591452
    Total Energy =                       -387.1319974459147488
  Basis Set: 6-31G*
  Basis Set:
  Basis Set: 6-31G*
  Basis Set:
  @DF-RHF Final Energy:  -387.13194705233252
    Total Energy =                       -387.1319470523317250
  Basis Set: 6-31G*
  Basis Set:
  Basis Set: 6-31G*
  Basis Set:
  @DF-RHF Final Energy:  -387.13203503989939
    Total Energy =                       -387.1320350398990513
  Basis Set: 6-31G*
  Basis Set:
  Basis Set: 6-31G*
  Basis Set:
  @DF-RHF Final Energy:  -387.13203649033613
    Total Energy =                       -387.1320364903360769
  Basis Set: 6-31G*
  Basis Set:
  Charge       = 0
  Multiplicity = 1
  Basis Set: 6-31G*
  Basis Set:

    Orbital Energies (a.u.)
    -----------------------

    Doubly Occupied:

       1A    -20.544764     2A    -11.325806     3A    -11.230823
       4A    -11.230226     5A    -11.227364     6A    -11.224182
       7A    -11.220737     8A    -11.220034     9A    -11.212682
      10A     -1.392050    11A     -1.101406    12A     -1.060372
      13A     -1.009552    14A     -0.971782    15A     -0.898395
      16A     -0.822007    17A     -0.797528    18A     -0.730649
      19A     -0.668511    20A     -0.648050    21A     -0.634667
      22A     -0.624154    23A     -0.596428    24A     -0.590232
      25A     -0.563975    26A     -0.559936    27A     -0.546261
      28A     -0.529174    29A     -0.525963    30A     -0.496462
      31A     -0.491157    32A     -0.470275    33A     -0.469587
      34A     -0.466922    35A     -0.460605    36A     -0.395236

  @DF-RHF Final Energy:  -387.13203649819678

   => Energetics <=

    Nuclear Repulsion Energy =            438.4050094705935976
    One-Electron Energy =               -1393.1581872600208953
    Two-Electron Energy =                 567.6211412912306287
    DFT Exchange-Correlation Energy =       0.0000000000000000
    Empirical Dispersion Energy =           0.0000000000000000
    PCM Polarization Energy =               0.0000000000000000
    EFP Energy =                            0.0000000000000000
    Total Energy =                       -387.1320364981967259
    Molecular point group: c1
  Basis Set: 6-31G*
  Basis Set:

  -Total Gradient:
     Atom            X                  Y                   Z
    ------   -----------------  -----------------  -----------------
       1        0.000041300153    -0.000047439034     0.000686720099
       2       -0.000105833468     0.000177669952    -0.001016209187
       3        0.000330443372    -0.000624632446     0.000736509702
       4        0.000012010202     0.000004393654    -0.000008800677
       5       -0.000012514064    -0.000006367749    -0.000032914034
       6       -0.000268849336     0.000509287266    -0.000383870247
       7       -0.000003319257    -0.000006069664    -0.000004957279
       8       -0.000000261071     0.000003029537     0.000000136246
       9       -0.000009245414    -0.000008676463     0.000001482917
      10        0.000005036405    -0.000000076233    -0.000002792462
      11       -0.000003811467    -0.000001439579     0.000009294055
      12        0.000001727614     0.000002889256    -0.000000458837
      13        0.000001556819    -0.000001283089    -0.000001639967
      14       -0.000002221200     0.000002222687     0.000010802357
      15        0.000000131246     0.000002241206     0.000002716847
      16       -0.000001311240    -0.000002065794     0.000002788592
      17       -0.000000532283    -0.000000837828    -0.000010799652
      18        0.000001105715    -0.000002744028     0.000002673409
      19       -0.000000813208     0.000002862344     0.000003304254
      20       -0.000000487192     0.000003938755     0.000000780916
      21        0.000000061543     0.000000098418    -0.000004044520
      22        0.000000479950    -0.000003770591     0.000001332185
      23       -0.000002285071    -0.000004562381    -0.000000764280
      24        0.000004969849     0.000005974750     0.000001324784
      25        0.000012661406    -0.000004642947     0.000007384776

  **** Optimization is complete! (in 8 steps) ****
    Final optimized geometry and variables:
    Molecular point group: c1

    Geometry (in Angstrom), charge = 0, multiplicity = 1:

    O            3.910807132692    -0.535175475016    -0.115777564757
    C            2.909545077961     0.105277778626    -0.006140016480
    C            1.563370438783    -0.612673036945    -0.007210428645
    C            2.966628860164     1.608528788358     0.159716918955
    C            0.292483189938     0.239129352254    -0.007331717061
    H            1.572813511589    -1.267964888397    -0.873235665232
    H            1.573051512277    -1.267627863059     0.860793096268
    C           -0.974558330823    -0.619254927524    -0.005496125079
    H            0.279628457983     0.887083587385    -0.880671133055
    H            0.278346406583     0.892546108244     0.861403389171
    C           -2.261193400053     0.207761272434    -0.007188143613
    H           -0.965823381273    -1.274319979806    -0.874601397873
    H           -0.965675798741    -1.270486062520     0.866613175700
    C           -3.529218387997    -0.647993041197    -0.005791043080
    H           -2.269598831584     0.859498818787    -0.879310497035
    H           -2.269924955426     0.862880241428     0.862424814353
    C           -4.810937366447     0.184273659297    -0.009369105859
    H           -3.522070388565    -1.303084427966    -0.874263204738
    H           -3.523632345318    -1.298085410051     0.866460731750
    H           -4.862627335145     0.821098020474    -0.887982239073
    H           -5.691692104639    -0.450240238400    -0.008959934394
    H           -4.864820455065     0.825282059778     0.866072366932
    H            2.515211675696     1.906276434760     1.101322543755
    H            3.999835064203     1.925382760606     0.139756451191
    H            2.418051438750     2.108115157118    -0.632272846708

  Mulliken Charges: (a.u.)
   Center  Symbol    Alpha    Beta     Spin     Total
       1     O     4.26380  4.26380  0.00000 -0.52759
       2     C     2.73709  2.73709  0.00000  0.52582
       3     C     3.20484  3.20484  0.00000 -0.40968
       4     C     3.29161  3.29161  0.00000 -0.58323
       5     C     3.16168  3.16168  0.00000 -0.32336
       6     H     0.39975  0.39975  0.00000  0.20050
       7     H     0.40092  0.40092  0.00000  0.19816
       8     C     3.15263  3.15263  0.00000 -0.30526
       9     H     0.41979  0.41979  0.00000  0.16042
      10     H     0.41997  0.41997  0.00000  0.16005
      11     C     3.15087  3.15087  0.00000 -0.30174
      12     H     0.42081  0.42081  0.00000  0.15838
      13     H     0.42128  0.42128  0.00000  0.15743
      14     C     3.15193  3.15193  0.00000 -0.30386
      15     H     0.42338  0.42338  0.00000  0.15325
      16     H     0.42354  0.42354  0.00000  0.15291
      17     C     3.23959  3.23959  0.00000 -0.47919
      18     H     0.42216  0.42216  0.00000  0.15569
      19     H     0.42227  0.42227  0.00000  0.15546
      20     H     0.42146  0.42146  0.00000  0.15707
      21     H     0.41829  0.41829  0.00000  0.16342
      22     H     0.42153  0.42153  0.00000  0.15693
      23     H     0.40778  0.40778  0.00000  0.18445
      24     H     0.39550  0.39550  0.00000  0.20901
      25     H     0.40752  0.40752  0.00000  0.18496

   Total alpha = 36.00000, Total beta = 36.00000, Total charge = -0.00000
