                              Psi4 1.0.54 Driver

  ==> Input File <==

--------------------------------------------------------------------------
set {
	reference rhf
	basis cc-pvtz
}

set_num_threads( 4 )
memory 2 gb

molecule MOL {
0 1

O	 0.437571	 1.085602	 1.147223
C	 0.386370	 0.032824	 0.607886
C	 1.522427	 -0.954864	 0.520096
O	 -0.695554	 -0.422406	 0.000602
C	 2.792742	 -0.477708	 1.205366
H	 1.692690	 -1.155447	 -0.531915
H	 1.170320	 -1.887753	 0.946328
H	 3.149468	 0.444272	 0.766144
H	 3.570353	 -1.225706	 1.109607
H	 2.622362	 -0.294676	 2.257838
C	 -1.852370	 0.402254	 0.000718
C	 -3.063338	 -0.501097	 -0.000437
H	 -1.831732	 1.039442	 -0.872158
H	 -1.832493	 1.038301	 0.874430
H	 -3.071944	 -1.133732	 -0.879113
H	 -3.966302	 0.097976	 -0.000483
H	 -3.072764	 -1.134834	 0.877435

	symmetry c1
}
set optking {
	frozen_dihedral = ("
		2 4 11 13
	")
}

ee,wfn = optimize('scf', return_wfn=True)
oeprop( wfn, 'DIPOLE', 'QUADRUPOLE', 'MULLIKEN_CHARGES')
f=open( 'psi4out.xyz', 'w' )
f.write( "17  " )
f.write( str(ee) + "\n" )
f.write( MOL.save_string_xyz() )
f.close()
--------------------------------------------------------------------------

    Molecular point group: c1
  Charge       = 0
  Multiplicity = 1
  Basis Set: CC-PVTZ
  Basis Set:
  @DF-RHF Final Energy:  -345.03912907859774
    Total Energy =                       -345.0391290785980232
    Molecular point group: c1
  Basis Set: CC-PVTZ
  Basis Set:
  Basis Set: CC-PVTZ
  Basis Set:
  @DF-RHF Final Energy:  -345.03925404250498
    Total Energy =                       -345.0392540425046946
  Basis Set: CC-PVTZ
  Basis Set:
  Basis Set: CC-PVTZ
  Basis Set:
  @DF-RHF Final Energy:  -345.03915081546495
    Total Energy =                       -345.0391508154649500
  Basis Set: CC-PVTZ
  Basis Set:
  Basis Set: CC-PVTZ
  Basis Set:
  @DF-RHF Final Energy:  -345.03943351427739
    Total Energy =                       -345.0394335142775049
  Basis Set: CC-PVTZ
  Basis Set:
  Charge       = 0
  Multiplicity = 1
  Basis Set: CC-PVTZ
  Basis Set:

    Orbital Energies (a.u.)
    -----------------------

    Doubly Occupied:

       1A    -20.592832     2A    -20.532493     3A    -11.364245
       4A    -11.281929     5A    -11.235615     6A    -11.220237
       7A    -11.213587     8A     -1.469068     9A     -1.365200
      10A     -1.070677    11A     -1.032217    12A     -0.912607
      13A     -0.848486    14A     -0.773240    15A     -0.701232
      16A     -0.688759    17A     -0.666364    18A     -0.629799
      19A     -0.588592    20A     -0.572257    21A     -0.557720
      22A     -0.527646    23A     -0.520645    24A     -0.515651
      25A     -0.501895    26A     -0.494278    27A     -0.454153
      28A     -0.438829

  @DF-RHF Final Energy:  -345.03943909948492

   => Energetics <=

    Nuclear Repulsion Energy =            315.2369226011142587
    One-Electron Energy =               -1095.0122166645317066
    Two-Electron Energy =                 434.7358549639325815
    DFT Exchange-Correlation Energy =       0.0000000000000000
    Empirical Dispersion Energy =           0.0000000000000000
    PCM Polarization Energy =               0.0000000000000000
    EFP Energy =                            0.0000000000000000
    Total Energy =                       -345.0394390994849232
    Molecular point group: c1
  Basis Set: CC-PVTZ
  Basis Set:

  -Total Gradient:
     Atom            X                  Y                   Z
    ------   -----------------  -----------------  -----------------
       1       -0.000205719159    -0.000104066494    -0.000160894959
       2       -0.000275796857    -0.000589927304     0.001372638143
       3        0.000010266513    -0.000025851435    -0.000007157393
       4        0.000373214324     0.000901386703    -0.002005381660
       5        0.000010144074    -0.000005415679     0.000003430021
       6        0.000008533400    -0.000011285067    -0.000007022665
       7        0.000018958287    -0.000013621500    -0.000012505990
       8       -0.000006341728    -0.000007218891     0.000000218769
       9       -0.000002970964    -0.000001701758    -0.000000490711
      10        0.000005845557    -0.000000564954     0.000000579703
      11        0.000727555122     0.001084499403     0.001800716437
      12       -0.000018096164     0.000032051677    -0.000059693583
      13       -0.000702786391    -0.001172265226    -0.000940920482
      14        0.000062392330    -0.000070073762    -0.000005895704
      15       -0.000015321943    -0.000001618294     0.000009650419
      16       -0.000009504902    -0.000013965413    -0.000006068653
      17        0.000019628502    -0.000000362004     0.000018798306

  **** Optimization is complete! (in 5 steps) ****
    Final optimized geometry and variables:
    Molecular point group: c1

    Geometry (in Angstrom), charge = 0, multiplicity = 1:

    O            0.569042835118     1.214505455335     0.628575470230
    C            0.476271801687     0.154867165719     0.109243283646
    C            1.580749866668    -0.869119044405     0.027120947357
    O           -0.622608627915    -0.282482437412    -0.481992137523
    C            2.873297838735    -0.419665768363     0.689116953912
    H            1.732223891757    -1.092820827549    -1.023102109020
    H            1.205449637936    -1.783366788718     0.473330697377
    H            3.252887897113     0.483018173735     0.229517534706
    H            3.626234356446    -1.193027805393     0.597592219269
    H            2.721559626138    -0.213250161932     1.740111354819
    C           -1.785645322203     0.534814048637    -0.475847792196
    C           -2.996813589984    -0.370313037034    -0.504913374153
    H           -1.759221406663     1.163581453601    -1.356756395099
    H           -1.778040898872     1.165691810254     0.397487813391
    H           -2.979410895889    -1.012184288943    -1.376668221850
    H           -3.900007713681     0.227843535575    -0.538240020257
    H           -3.032097263431    -0.994688946123     0.379235400646

  Mulliken Charges: (a.u.)
   Center  Symbol    Alpha    Beta     Spin     Total
       1     O     4.19774  4.19774  0.00000 -0.39547
       2     C     2.80489  2.80489  0.00000  0.39022
       3     C     3.09487  3.09487  0.00000 -0.18974
       4     O     4.15367  4.15367  0.00000 -0.30733
       5     C     3.13999  3.13999  0.00000 -0.27997
       6     H     0.44134  0.44134  0.00000  0.11731
       7     H     0.44207  0.44207  0.00000  0.11586
       8     H     0.44837  0.44837  0.00000  0.10325
       9     H     0.45062  0.45062  0.00000  0.09876
      10     H     0.44861  0.44861  0.00000  0.10277
      11     C     2.98539  2.98539  0.00000  0.02921
      12     C     3.13270  3.13270  0.00000 -0.26540
      13     H     0.45620  0.45620  0.00000  0.08760
      14     H     0.44554  0.44554  0.00000  0.10893
      15     H     0.45137  0.45137  0.00000  0.09726
      16     H     0.45458  0.45458  0.00000  0.09085
      17     H     0.45206  0.45206  0.00000  0.09589

   Total alpha = 28.00000, Total beta = 28.00000, Total charge = -0.00000

*** Psi4 exiting successfully. Buy a developer a beer!
