                              Psi4 1.0.54 Driver

  ==> Input File <==

--------------------------------------------------------------------------
set {
	reference rhf
	basis cc-pvtz
}

set_num_threads( 4 )
memory 2 gb

molecule MOL {
0 1

H	 1.948074	 1.547831	 -0.650744
O	 1.070726	 1.196990	 -0.680882
C	 1.050374	 0.054877	 0.000135
C	 -0.318151	 -0.570512	 0.000144
O	 2.014897	 -0.380872	 0.527189
C	 -1.454884	 0.441630	 -0.000560
H	 -0.371613	 -1.223646	 -0.864985
H	 -0.371920	 -1.222758	 0.865929
C	 -2.822577	 -0.232186	 0.000063
H	 -1.359760	 1.084704	 -0.867077
H	 -1.359641	 1.085996	 0.864983
H	 -2.954352	 -0.858985	 -0.875745
H	 -3.615886	 0.505352	 0.000019
H	 -2.953878	 -0.858359	 0.876394

	symmetry c1
}
set optking {
	frozen_dihedral = ("
		2 3 4 7
	")
}

ee,wfn = optimize('scf', return_wfn=True)
oeprop( wfn, 'DIPOLE', 'QUADRUPOLE', 'MULLIKEN_CHARGES')
f=open( 'psi4out.xyz', 'w' )
f.write( "14  " )
f.write( str(ee) + "\n" )
f.write( MOL.save_string_xyz() )
f.close()
--------------------------------------------------------------------------

    Molecular point group: c1
  Charge       = 0
  Multiplicity = 1
  Basis Set: CC-PVTZ
  Basis Set:
  @DF-RHF Final Energy:  -305.99825566612697
    Total Energy =                       -305.9982556661268518
    Molecular point group: c1
  Basis Set: CC-PVTZ
  Basis Set:
  Basis Set: CC-PVTZ
  Basis Set:
  @DF-RHF Final Energy:  -305.99861029049276
    Total Energy =                       -305.9986102904927066
  Basis Set: CC-PVTZ
  Basis Set:
  Basis Set: CC-PVTZ
  Basis Set:
  @DF-RHF Final Energy:  -305.99883655403528
    Total Energy =                       -305.9988365540351651
  Basis Set: CC-PVTZ
  Basis Set:
  Basis Set: CC-PVTZ
  Basis Set:
  @DF-RHF Final Energy:  -305.99891394869837
    Total Energy =                       -305.9989139486984300
  Basis Set: CC-PVTZ
  Basis Set:
  Basis Set: CC-PVTZ
  Basis Set:
  @DF-RHF Final Energy:  -305.99891775951494
    Total Energy =                       -305.9989177595148249
  Basis Set: CC-PVTZ
  Basis Set:
  Basis Set: CC-PVTZ
  Basis Set:
  @DF-RHF Final Energy:  -305.99892036008902
    Total Energy =                       -305.9989203600885617
  Basis Set: CC-PVTZ
  Basis Set:
  Charge       = 0
  Multiplicity = 1
  Basis Set: CC-PVTZ
  Basis Set:

    Orbital Energies (a.u.)
    -----------------------

    Doubly Occupied:

       1A    -20.606225     2A    -20.538087     3A    -11.373888
       4A    -11.239673     5A    -11.229798     6A    -11.218233
       7A     -1.478683     8A     -1.368279     9A     -1.086797
      10A     -0.979896    11A     -0.848931    12A     -0.819557
      13A     -0.704104    14A     -0.685328    15A     -0.662600
      16A     -0.623166    17A     -0.594113    18A     -0.565810
      19A     -0.551380    20A     -0.525273    21A     -0.499389
      22A     -0.490709    23A     -0.474823    24A     -0.440260

  @DF-RHF Final Energy:  -305.99892037371364

   => Energetics <=

    Nuclear Repulsion Energy =            240.8580410286877225
    One-Electron Energy =                -894.5039154605341309
    Two-Electron Energy =                 347.6469540581326783
    DFT Exchange-Correlation Energy =       0.0000000000000000
    Empirical Dispersion Energy =           0.0000000000000000
    PCM Polarization Energy =               0.0000000000000000
    EFP Energy =                            0.0000000000000000
    Total Energy =                       -305.9989203737137586
    Molecular point group: c1
  Basis Set: CC-PVTZ
  Basis Set:

  -Total Gradient:
     Atom            X                  Y                   Z
    ------   -----------------  -----------------  -----------------
       1        0.000002920022     0.000005038611    -0.000001455227
       2       -0.000152606668     0.000385291815     0.000645410610
       3        0.000278550132    -0.000682540115    -0.000773538658
       4       -0.000366559537     0.000986213523    -0.000340509139
       5       -0.000012597716     0.000019738457    -0.000011582320
       6       -0.000003651231     0.000001266789     0.000014867372
       7        0.000259374467    -0.000717247872     0.000472592550
       8       -0.000003591824     0.000001115045    -0.000001109804
       9        0.000000177312     0.000000453242    -0.000007600909
      10       -0.000002504060    -0.000002832512     0.000002778165
      11       -0.000000430930     0.000003500072     0.000001484789
      12       -0.000001065735    -0.000003085037    -0.000000189631
      13        0.000000598590    -0.000000325922    -0.000002071670
      14        0.000001387178     0.000003413907     0.000000923871

  **** Optimization is complete! (in 7 steps) ****
    Final optimized geometry and variables:
    Molecular point group: c1

    Geometry (in Angstrom), charge = 0, multiplicity = 1:

    H            2.153973320747     1.327836271333    -0.513969361560
    O            1.245170484646     1.073378663879    -0.571884709620
    C            1.098832366698    -0.089492796052     0.053792389543
    C           -0.306750084772    -0.630363539190     0.001267518878
    O            2.007699715178    -0.638476823429     0.575438660569
    C           -1.424160208766     0.409851833805    -0.002645794408
    H           -0.360069114452    -1.243411996564    -0.894652364184
    H           -0.402818723360    -1.306260665778     0.839894482255
    C           -2.802979079864    -0.240971704331    -0.007428983589
    H           -1.318881849250     1.054030453117    -0.865760055014
    H           -1.326456472442     1.046525515691     0.870668948303
    H           -2.940223956073    -0.861965164793    -0.886370950339
    H           -3.584177056701     0.509459968296    -0.007726069556
    H           -2.946121471870    -0.868042898860     0.865881348225

  Mulliken Charges: (a.u.)
   Center  Symbol    Alpha    Beta     Spin     Total
       1     H     0.38159  0.38159  0.00000  0.23682
       2     O     4.15742  4.15742  0.00000 -0.31483
       3     C     2.81221  2.81221  0.00000  0.37557
       4     C     3.09109  3.09109  0.00000 -0.18219
       5     O     4.19480  4.19480  0.00000 -0.38960
       6     C     3.08704  3.08704  0.00000 -0.17409
       7     H     0.44372  0.44372  0.00000  0.11256
       8     H     0.43518  0.43518  0.00000  0.12963
       9     C     3.15084  3.15084  0.00000 -0.30169
      10     H     0.44357  0.44357  0.00000  0.11285
      11     H     0.44901  0.44901  0.00000  0.10197
      12     H     0.45448  0.45448  0.00000  0.09103
      13     H     0.44552  0.44552  0.00000  0.10896
      14     H     0.45350  0.45350  0.00000  0.09300

   Total alpha = 24.00000, Total beta = 24.00000, Total charge = -0.00000

*** Psi4 exiting successfully. Buy a developer a beer!
