  ==> Input File <==

--------------------------------------------------------------------------
set {
	reference rhf
	basis cc-pvtz
}

set_num_threads( 4 )
memory 2 gb

molecule MOL {
0 1

H	 -3.158673	 -2.810111	 0.537118
O	 -2.870024	 -2.034158	 0.093527
C	 -1.605942	 -1.649985	 0.565677
C	 -1.175688	 -0.398187	 -0.171891
H	 -1.642099	 -1.455691	 1.635591
H	 -0.880706	 -2.444282	 0.401498
C	 0.196029	 0.106276	 0.266738
H	 -1.924545	 0.370689	 -0.009839
H	 -1.172450	 -0.610330	 -1.236270
C	 1.330220	 -0.826136	 -0.155230
H	 0.359542	 1.097229	 -0.145561
H	 0.212134	 0.218135	 1.348778
C	 2.719700	 -0.407669	 0.328325
H	 1.339388	 -0.911200	 -1.239363
H	 1.119001	 -1.821953	 0.224128
C	 3.241564	 0.893452	 -0.276737
H	 3.418299	 -1.204729	 0.093035
H	 2.711776	 -0.323368	 1.411960
H	 3.254204	 0.841071	 -1.360784
H	 2.634460	 1.745075	 0.005842
H	 4.254264	 1.092401	 0.054971

	symmetry c1
}
set optking {
	frozen_dihedral = ("
		8 4 7 10
	")
}

ee = optimize('scf')
oeprop('DIPOLE', 'QUADRUPOLE', 'MULLIKEN_CHARGES')
f=open( 'psi4out.xyz', 'w' )
f.write( "21  " )
f.write( str(ee) + "\n" )
f.write( MOL.save_string_xyz() )
f.close()
--------------------------------------------------------------------------

    Molecular point group: c1
  Charge       = 0
  Multiplicity = 1
  Basis Set: CC-PVTZ
  Basis Set:
  @DF-RHF Final Energy:  -310.33028494430158
    Total Energy =                       -310.3302849443011269
    Molecular point group: c1
  Basis Set: CC-PVTZ
  Basis Set:
  Basis Set: CC-PVTZ
  Basis Set:
  @DF-RHF Final Energy:  -310.33080297293492
    Total Energy =                       -310.3308029729349187
  Basis Set: CC-PVTZ
  Basis Set:
  Basis Set: CC-PVTZ
  Basis Set:
  @DF-RHF Final Energy:  -310.33100639509377
    Total Energy =                       -310.3310063950937092
  Basis Set: CC-PVTZ
  Basis Set:
  Basis Set: CC-PVTZ
  Basis Set:
  @DF-RHF Final Energy:  -310.33100593130536
    Total Energy =                       -310.3310059313053557
  Basis Set: CC-PVTZ
  Basis Set:
  Basis Set: CC-PVTZ
  Basis Set:
  @DF-RHF Final Energy:  -310.33102103337393
    Total Energy =                       -310.3310210333742134
  Basis Set: CC-PVTZ
  Basis Set:
  Basis Set: CC-PVTZ
  Basis Set:
  @DF-RHF Final Energy:  -310.33102224176781
    Total Energy =                       -310.3310222417677551
  Basis Set: CC-PVTZ
  Basis Set:
  Charge       = 0
  Multiplicity = 1
  Basis Set: CC-PVTZ
  Basis Set:

    Orbital Energies (a.u.)
    -----------------------

    Doubly Occupied:

       1A    -20.545060     2A    -11.264334     3A    -11.214072
       4A    -11.213281     5A    -11.212151     6A    -11.209204
       7A    -11.206265     8A     -1.362782     9A     -1.087302
      10A     -1.033148    11A     -0.952799    12A     -0.883919
      13A     -0.811255    14A     -0.772670    15A     -0.698571
      16A     -0.649918    17A     -0.633323    18A     -0.610192
      19A     -0.583470    20A     -0.571774    21A     -0.538462
      22A     -0.523879    23A     -0.515745    24A     -0.490098
      25A     -0.479597    26A     -0.460746    27A     -0.452251
      28A     -0.447148    29A     -0.433304

  @DF-RHF Final Energy:  -310.33102229492090

   => Energetics <=

    Nuclear Repulsion Energy =            315.8429688498537189
    One-Electron Energy =               -1046.6345439694594006
    Two-Electron Energy =                 420.4605528246843278
    DFT Exchange-Correlation Energy =       0.0000000000000000
    Empirical Dispersion Energy =           0.0000000000000000
    PCM Polarization Energy =               0.0000000000000000
    EFP Energy =                            0.0000000000000000
    Total Energy =                       -310.3310222949213539
    Molecular point group: c1
  Basis Set: CC-PVTZ
  Basis Set:

  -Total Gradient:
     Atom            X                  Y                   Z
    ------   -----------------  -----------------  -----------------
       1       -0.000001440360     0.000003096088     0.000003400698
       2       -0.000000339818    -0.000004694897    -0.000012143756
       3       -0.000000625845    -0.000008244772     0.000005027424
       4       -0.000046622518    -0.000060841474     0.000199148403
       5        0.000006729133     0.000003230322    -0.000001750954
       6       -0.000003470735    -0.000003128076     0.000000509173
       7       -0.000013050922    -0.000099327049     0.000143755235
       8        0.000041012547     0.000087406522    -0.000199037554
       9        0.000001637467    -0.000000404046     0.000002608231
      10        0.000022713807     0.000078475962    -0.000141196979
      11       -0.000001828140    -0.000005667500     0.000000620300
      12       -0.000004865420     0.000003306583     0.000000463259
      13       -0.000004529039    -0.000001494837     0.000001579123
      14        0.000002271063    -0.000000482321    -0.000002055389
      15        0.000002152817     0.000003572510    -0.000001128713
      16        0.000001790595     0.000005596871     0.000000919254
      17       -0.000006945334    -0.000003293527    -0.000000170783
      18        0.000002629649     0.000000255587     0.000001832038
      19        0.000001386586    -0.000000011830    -0.000000164959
      20        0.000001641824     0.000000673009    -0.000002046988
      21       -0.000000247359     0.000001976869    -0.000000167064

  **** Optimization is complete! (in 7 steps) ****
    Final optimized geometry and variables:
    Molecular point group: c1

    Geometry (in Angstrom), charge = 0, multiplicity = 1:

    H           -3.487685396691    -2.086076025293     0.372687538775
    O           -3.160682267095    -1.296828207270    -0.017489302665
    C           -1.858310380825    -1.037038957126     0.437579750990
    C           -1.360864615427     0.219974985615    -0.251023286336
    H           -1.854333425929    -0.890487547337     1.516061373729
    H           -1.209986468287    -1.879924137664     0.217915552626
    C            0.019451876941     0.692969127921     0.208587948596
    H           -2.087788102595     1.003423588861    -0.066389170250
    H           -1.357795217567     0.049594575571    -1.323214988520
    C            1.177908011056    -0.213884240028    -0.209578353874
    H            0.179334761497     1.686308505892    -0.194281548162
    H            0.022840624541     0.803041013413     1.291062369389
    C            2.558123496751     0.272406934167     0.238669893325
    H            1.171796606100    -0.323498395714    -1.291765573581
    H            1.024305009581    -1.208479863476     0.195988501172
    C            3.029034947751     1.564835965444    -0.424064618891
    H            3.281405931374    -0.508803146752     0.025861230538
    H            2.560122873858     0.399358369613     1.318187031522
    H            3.030809675720     1.469282211054    -1.505171802941
    H            2.398743003489     2.407564762891    -0.167766202313
    H            4.038619051063     1.808823414651    -0.113646429352

  Mulliken Charges: (a.u.)
   Center  Symbol    Alpha    Beta     Spin     Total
       1     H     0.39724  0.39724  0.00000  0.20551
       2     O     4.19553  4.19553  0.00000 -0.39106
       3     C     2.96145  2.96145  0.00000  0.07710
       4     C     3.09133  3.09133  0.00000 -0.18266
       5     H     0.47458  0.47458  0.00000  0.05085
       6     H     0.47332  0.47332  0.00000  0.05337
       7     C     3.11234  3.11234  0.00000 -0.22468
       8     H     0.44520  0.44520  0.00000  0.10959
       9     H     0.45136  0.45136  0.00000  0.09727
      10     C     3.09724  3.09724  0.00000 -0.19449
      11     H     0.44438  0.44438  0.00000  0.11124
      12     H     0.45402  0.45402  0.00000  0.09196
      13     C     3.08887  3.08887  0.00000 -0.17774
      14     H     0.45287  0.45287  0.00000  0.09425
      15     H     0.44972  0.44972  0.00000  0.10055
      16     C     3.15203  3.15203  0.00000 -0.30406
      17     H     0.44861  0.44861  0.00000  0.10277
      18     H     0.45489  0.45489  0.00000  0.09022
      19     H     0.45458  0.45458  0.00000  0.09084
      20     H     0.45376  0.45376  0.00000  0.09247
      21     H     0.44666  0.44666  0.00000  0.10668

   Total alpha = 29.00000, Total beta = 29.00000, Total charge = -0.00000
