  ==> Input File <==

--------------------------------------------------------------------------
set {
	reference rhf
	basis cc-pvtz
}

set_num_threads( 4 )
memory 2 gb

molecule MOL {
0 1

H	 2.358432	 0.559593	 -0.696229
C	 1.937402	 -0.327979	 -0.237852
N	 0.526300	 -0.128137	 0.000000
H	 2.449556	 -0.486136	 0.702746
H	 2.156326	 -1.174028	 -0.892714
C	 -0.247113	 0.037112	 -1.209233
H	 0.161334	 -0.885002	 0.536297
H	 -0.996493	 -0.743733	 -1.271440
H	 0.397975	 -0.057351	 -2.073512
H	 -0.763794	 0.997171	 -1.271673

	symmetry c1
}
set optking {
	frozen_dihedral = ("
		2 3 6 8
	")
}

ee = optimize('scf')
oeprop('DIPOLE', 'QUADRUPOLE', 'MULLIKEN_CHARGES')
f=open( 'psi4out.xyz', 'w' )
f.write( "10  " )
f.write( str(ee) + "\n" )
f.write( MOL.save_string_xyz() )
f.close()
--------------------------------------------------------------------------

    Molecular point group: c1
  Charge       = 0
  Multiplicity = 1
  Basis Set: CC-PVTZ
  Basis Set:
  @DF-RHF Final Energy:  -134.28742245419397
    Total Energy =                       -134.2874224541938872
    Molecular point group: c1
  Basis Set: CC-PVTZ
  Basis Set:
  Basis Set: CC-PVTZ
  Basis Set:
  @DF-RHF Final Energy:  -134.28805792304524
    Total Energy =                       -134.2880579230452724
  Basis Set: CC-PVTZ
  Basis Set:
  Basis Set: CC-PVTZ
  Basis Set:
  @DF-RHF Final Energy:  -134.28813382951816
    Total Energy =                       -134.2881338295181592
  Basis Set: CC-PVTZ
  Basis Set:
  Basis Set: CC-PVTZ
  Basis Set:
  @DF-RHF Final Energy:  -134.28813515075353
    Total Energy =                       -134.2881351507535044
  Basis Set: CC-PVTZ
  Basis Set:
  Charge       = 0
  Multiplicity = 1
  Basis Set: CC-PVTZ
  Basis Set:

    Orbital Energies (a.u.)
    -----------------------

    Doubly Occupied:

       1A    -15.529269     2A    -11.234419     3A    -11.233943
       4A     -1.196050     5A     -0.948039     6A     -0.855156
       7A     -0.660488     8A     -0.610464     9A     -0.588648
      10A     -0.546034    11A     -0.509922    12A     -0.506012
      13A     -0.358910

  @DF-RHF Final Energy:  -134.28813532159779

   => Energetics <=

    Nuclear Repulsion Energy =             84.4647395832706707
    One-Electron Energy =                -347.9510431718617838
    Two-Electron Energy =                 129.1981682669933207
    DFT Exchange-Correlation Energy =       0.0000000000000000
    Empirical Dispersion Energy =           0.0000000000000000
    PCM Polarization Energy =               0.0000000000000000
    EFP Energy =                            0.0000000000000000
    Total Energy =                       -134.2881353215977924
    Molecular point group: c1
  Basis Set: CC-PVTZ
  Basis Set:

  -Total Gradient:
     Atom            X                  Y                   Z
    ------   -----------------  -----------------  -----------------
       1       -0.000006713264    -0.000002514010    -0.000001313690
       2       -0.000040393917    -0.000580760865    -0.000027280935
       3        0.000236790982     0.000705103551    -0.000047814078
       4        0.000003042948     0.000002552425     0.000001229375
       5       -0.000016813487     0.000006551323     0.000006547375
       6       -0.000672581402     0.000328525242     0.000437886058
       7       -0.000000268188    -0.000015076536    -0.000004414047
       8        0.000491307825    -0.000437515730    -0.000370119714
       9        0.000002055865    -0.000005277931     0.000004084850
      10        0.000003572637    -0.000001587470     0.000001194806

  **** Optimization is complete! (in 5 steps) ****
    Final optimized geometry and variables:
    Molecular point group: c1

    Geometry (in Angstrom), charge = 0, multiplicity = 1:

    H            1.633531686316     0.714249796994    -0.190020107651
    C            1.205054196724    -0.168925856542     0.269260822873
    N           -0.209595894900     0.029060005693     0.488430509797
    H            1.702650831025    -0.314648452792     1.219967474423
    H            1.438124447556    -1.022092093200    -0.370714865700
    C           -1.006002511116     0.188660647211    -0.718334714417
    H           -0.572649805324    -0.707451372395     1.049268637539
    H           -1.766842567149    -0.580390429724    -0.801545230361
    H           -0.389716802080     0.119341076502    -1.608946027621
    H           -1.502973331526     1.152242805105    -0.737388572554

  Mulliken Charges: (a.u.)
   Center  Symbol    Alpha    Beta     Spin     Total
       1     H     0.45636  0.45636  0.00000  0.08728
       2     C     3.08279  3.08279  0.00000 -0.16558
       3     N     3.63344  3.63344  0.00000 -0.26688
       4     H     0.45329  0.45329  0.00000  0.09341
       5     H     0.47414  0.47414  0.00000  0.05171
       6     C     3.07693  3.07693  0.00000 -0.15386
       7     H     0.43993  0.43993  0.00000  0.12013
       8     H     0.46128  0.46128  0.00000  0.07745
       9     H     0.46582  0.46582  0.00000  0.06836
      10     H     0.45601  0.45601  0.00000  0.08797

   Total alpha = 13.00000, Total beta = 13.00000, Total charge = -0.00000
