  ==> Input File <==

--------------------------------------------------------------------------
set {
	reference rhf
	basis 6-31G*
}

set_num_threads( 4 )
memory 2 gb

molecule MOL {
0 1

H	 -3.261111	 -0.295142	 1.469456
C	 -3.306842	 -0.277400	 0.373456
C	 -2.660244	 0.921717	 -0.272021
O	 -3.838538	 -1.161155	 -0.216482
C	 -1.220012	 1.144545	 0.209990
H	 -2.705793	 0.797307	 -1.347733
H	 -3.263782	 1.790044	 -0.010477
C	 -0.252658	 0.041456	 -0.226725
H	 -0.873521	 2.100229	 -0.171974
H	 -1.211708	 1.231594	 1.295398
C	 1.180775	 0.282413	 0.250794
H	 -0.266029	 -0.034465	 -1.312038
H	 -0.597733	 -0.921000	 0.146291
C	 2.148627	 -0.814315	 -0.201312
H	 1.516199	 1.249228	 -0.115937
H	 1.192670	 0.346017	 1.338083
C	 3.580890	 -0.659131	 0.322722
H	 2.166869	 -0.852443	 -1.289387
H	 1.762857	 -1.776509	 0.128956
C	 3.696506	 -0.592334	 1.846464
H	 4.003556	 0.249706	 -0.098369
H	 4.191830	 -1.478411	 -0.050714
H	 3.082393	 0.208662	 2.249624
H	 3.384882	 -1.517966	 2.318765
H	 4.722828	 -0.403956	 2.146753

	symmetry c1
}
set optking {
	frozen_dihedral = ("
		20 17 14 18
	")
}

ee = optimize('scf')
oeprop('DIPOLE', 'QUADRUPOLE', 'MULLIKEN_CHARGES')
f=open( 'psi4out.xyz', 'w' )
f.write( "25  " )
f.write( str(ee) + "\n" )
f.write( MOL.save_string_xyz() )
f.close()
--------------------------------------------------------------------------

    Molecular point group: c1
  Charge       = 0
  Multiplicity = 1
  Basis Set: 6-31G*
  Basis Set:
  @DF-RHF Final Energy:  -387.12073785815608
    Total Energy =                       -387.1207378581555076
    Molecular point group: c1
  Basis Set: 6-31G*
  Basis Set:
  Basis Set: 6-31G*
  Basis Set:
  @DF-RHF Final Energy:  -387.12144888222502
    Total Energy =                       -387.1214488822254225
  Basis Set: 6-31G*
  Basis Set:
  Basis Set: 6-31G*
  Basis Set:
  @DF-RHF Final Energy:  -387.11923229243104
    Total Energy =                       -387.1192322924309792
  Basis Set: 6-31G*
  Basis Set:
  Basis Set: 6-31G*
  Basis Set:
  @DF-RHF Final Energy:  -387.12180167888152
    Total Energy =                       -387.1218016788808427
  Basis Set: 6-31G*
  Basis Set:
  @DF-RHF Final Energy:  -387.12184995650568
    Total Energy =                       -387.1218499565060256
  @DF-RHF Final Energy:  -387.12181775839883
    Total Energy =                       -387.1218177583991746
  Basis Set: 6-31G*
  Basis Set:
  @DF-RHF Final Energy:  -387.12186397326417
    Total Energy =                       -387.1218639732633164
  Basis Set: 6-31G*
  Basis Set:
  Basis Set: 6-31G*
  Basis Set:
  @DF-RHF Final Energy:  -387.12186388583837
    Total Energy =                       -387.1218638858385930
  Basis Set: 6-31G*
  Basis Set:
  Basis Set: 6-31G*
  Basis Set:
  @DF-RHF Final Energy:  -387.12186831300511
    Total Energy =                       -387.1218683130051659
  Basis Set: 6-31G*
  Basis Set:
  Charge       = 0
  Multiplicity = 1
  Basis Set: 6-31G*
  Basis Set:

    Orbital Energies (a.u.)
    -----------------------

    Doubly Occupied:

       1A    -20.562015     2A    -11.326169     3A    -11.235350
       4A    -11.234672     5A    -11.223970     6A    -11.219804
       7A    -11.218124     8A    -11.217076     9A    -11.210717
      10A     -1.401956    11A     -1.104041    12A     -1.069748
      13A     -1.013143    14A     -0.942372    15A     -0.876100
      16A     -0.821110    17A     -0.788026    18A     -0.779884
      19A     -0.664372    20A     -0.662485    21A     -0.633183
      22A     -0.623475    23A     -0.609530    24A     -0.589527
      25A     -0.567042    26A     -0.563151    27A     -0.525677
      28A     -0.523558    29A     -0.516326    30A     -0.496555
      31A     -0.488617    32A     -0.479697    33A     -0.463379
      34A     -0.459213    35A     -0.441595    36A     -0.409545

  @DF-RHF Final Energy:  -387.12186833402802

   => Energetics <=

    Nuclear Repulsion Energy =            439.7822736144011060
    One-Electron Energy =               -1395.8858802661122809
    Two-Electron Energy =                 568.9817383176836074
    DFT Exchange-Correlation Energy =       0.0000000000000000
    Empirical Dispersion Energy =           0.0000000000000000
    PCM Polarization Energy =               0.0000000000000000
    EFP Energy =                            0.0000000000000000
    Total Energy =                       -387.1218683340275675
    Molecular point group: c1
  Basis Set: 6-31G*
  Basis Set:

  -Total Gradient:
     Atom            X                  Y                   Z
    ------   -----------------  -----------------  -----------------
       1        0.000006479019    -0.000002419374     0.000001390180
       2       -0.000025467798     0.000015920457     0.000009088906
       3       -0.000004475363    -0.000012167511     0.000007826435
       4        0.000009378343    -0.000000938427    -0.000003851186
       5        0.000002022746    -0.000010683548     0.000021815302
       6        0.000007917536    -0.000002780219     0.000001912352
       7        0.000002828601    -0.000001810860     0.000002327772
       8        0.000011896406     0.000005396392    -0.000031230440
       9       -0.000013502376     0.000002525626    -0.000012079503
      10        0.000005561274     0.000004249457    -0.000002757170
      11        0.000019921652    -0.000003161572     0.000019804786
      12        0.000012871919     0.000007261322    -0.000001846121
      13       -0.000004556599    -0.000002684581    -0.000009586339
      14        0.000191186073    -0.001388444279     0.000105707951
      15        0.000009357698     0.000002231565    -0.000006881830
      16        0.000004953274     0.000010888621     0.000013213790
      17        0.000158790293    -0.001221692999     0.000056896521
      18       -0.000184430161     0.001492907475    -0.000088660505
      19       -0.000002206357    -0.000009152278     0.000000965155
      20       -0.000173250046     0.001116378075    -0.000072239935
      21        0.000009842427     0.000005455056    -0.000005443969
      22       -0.000025901467    -0.000004597398    -0.000008595358
      23       -0.000014281512     0.000002548468     0.000007506566
      24       -0.000003081101    -0.000010187411     0.000002570889
      25       -0.000001854482     0.000004957944    -0.000007854248

  **** Optimization is complete! (in 10 steps) ****
    Final optimized geometry and variables:
    Molecular point group: c1

    Geometry (in Angstrom), charge = 0, multiplicity = 1:

    H           -3.273957069944    -0.199091845305     1.134996075651
    C           -3.270685451110    -0.134316101053     0.039724206448
    C           -2.579745875317     1.080936825716    -0.524687544796
    O           -3.792948524594    -0.981139817462    -0.609869122908
    C           -1.157213784157     1.257627167865     0.024611825963
    H           -2.582714849975     1.004599465978    -1.605879728511
    H           -3.180235318623     1.947049111578    -0.249448731017
    C           -0.187823924875     0.162005684581    -0.426287860395
    H           -0.782215116676     2.225374521943    -0.295673652637
    H           -1.192033341790     1.291735900961     1.112257108682
    C            1.229805982507     0.361086705430     0.113769284714
    H           -0.162243020704     0.135549303485    -1.513606994331
    H           -0.558077189170    -0.811664442212    -0.110224935050
    C            2.193439941501    -0.742274102934    -0.332887264930
    H            1.608555871266     1.326492238213    -0.219404857145
    H            1.191288256523     0.405491949049     1.199109921193
    C            3.655558786404    -0.518373406738     0.070196039519
    H            2.146343458727    -0.817390517485    -1.417218437803
    H            1.851708619678    -1.698390748169     0.059459221298
    C            3.893785762901    -0.390628295857     1.575908180490
    H            4.028505092046     0.375715438502    -0.425638920667
    H            4.247641543487    -1.345654801940    -0.312771900193
    H            3.425638373036     0.497617966685     1.986427031673
    H            3.499369674743    -1.250925398213     2.110576209158
    H            4.955732699556    -0.327622624686     1.792290566077

  Mulliken Charges: (a.u.)
   Center  Symbol    Alpha    Beta     Spin     Total
       1     H     0.43261  0.43261  0.00000  0.13477
       2     C     2.83083  2.83083  0.00000  0.33835
       3     C     3.20818  3.20818  0.00000 -0.41636
       4     O     4.23775  4.23775  0.00000 -0.47549
       5     C     3.16654  3.16654  0.00000 -0.33308
       6     H     0.39970  0.39970  0.00000  0.20059
       7     H     0.40662  0.40662  0.00000  0.18677
       8     C     3.15471  3.15471  0.00000 -0.30942
       9     H     0.41285  0.41285  0.00000  0.17431
      10     H     0.41969  0.41969  0.00000  0.16062
      11     C     3.15486  3.15486  0.00000 -0.30972
      12     H     0.41816  0.41816  0.00000  0.16369
      13     H     0.41836  0.41836  0.00000  0.16327
      14     C     3.15267  3.15267  0.00000 -0.30533
      15     H     0.42354  0.42354  0.00000  0.15292
      16     H     0.42087  0.42087  0.00000  0.15827
      17     C     3.15228  3.15228  0.00000 -0.30455
      18     H     0.42118  0.42118  0.00000  0.15764
      19     H     0.42241  0.42241  0.00000  0.15517
      20     C     3.24204  3.24204  0.00000 -0.48408
      21     H     0.42337  0.42337  0.00000  0.15326
      22     H     0.41990  0.41990  0.00000  0.16020
      23     H     0.42026  0.42026  0.00000  0.15948
      24     H     0.42205  0.42205  0.00000  0.15590
      25     H     0.41858  0.41858  0.00000  0.16284

   Total alpha = 36.00000, Total beta = 36.00000, Total charge =  0.00000
