  ==> Input File <==

--------------------------------------------------------------------------
set {
	reference rhf
	basis 6-31G*
}

set_num_threads( 1 )
memory 2 gb

molecule MOL {
0 1

H	 -1.369502	 1.308720	 4.559471
C	 -0.839658	 1.111505	 3.644509
C	 -0.954190	 1.988689	 2.576529
C	 -0.044637	 -0.018673	 3.536944
H	 -1.571096	 2.864823	 2.661271
C	 -0.272613	 1.734437	 1.400396
H	 0.042932	 -0.697508	 4.365871
C	 0.638551	 -0.275213	 2.360587
H	 -0.349455	 2.402142	 0.563774
C	 0.525845	 0.601986	 1.288401
H	 1.254888	 -1.148579	 2.272947
C	 1.239129	 0.373821	 0.000060
O	 1.970282	 -0.730723	 0.000018
O	 1.166433	 1.102864	 -0.939126
C	 3.377318	 -0.566646	 -0.000065
H	 3.695437	 -0.028981	 -0.881264
H	 3.789299	 -1.563704	 0.000236
H	 3.695516	 -0.028316	 0.880770

	symmetry c1
}
set optking {
	frozen_dihedral = ("
		12 13 15 16,
		13 12 10 6
	")
}

ee = energy('scf')
oeprop('DIPOLE', 'QUADRUPOLE', 'MULLIKEN_CHARGES')
f=open( 'psi4out.xyz', 'w' )
f.write( "18  " )
f.write( str(ee) + "\n" )
f.write( MOL.save_string_xyz() )
f.close()
--------------------------------------------------------------------------

    Molecular point group: c1

    Geometry (in Angstrom), charge = 0, multiplicity = 1:

       Center              X                  Y                   Z               Mass
    ------------   -----------------  -----------------  -----------------  -----------------
           H         -2.130005465743     0.805354072273     3.257007549619     1.007825032070
           C         -1.600161465743     0.608139072273     2.342045549619    12.000000000000
           C         -1.714693465743     1.485323072273     1.274065549619    12.000000000000
           C         -0.805140465743    -0.522038927727     2.234480549619    12.000000000000
           H         -2.331599465743     2.361457072273     1.358807549619     1.007825032070
           C         -1.033116465743     1.231071072273     0.097932549619    12.000000000000
           H         -0.717571465743    -1.200873927727     3.063407549619     1.007825032070
           C         -0.121952465743    -0.778578927727     1.058123549619    12.000000000000
           H         -1.109958465743     1.898776072273    -0.738689450381     1.007825032070
           C         -0.234658465743     0.098620072273    -0.014062450381    12.000000000000
           H          0.494384534257    -1.651944927727     0.970483549619     1.007825032070
           C          0.478625534257    -0.129544927727    -1.302403450381    12.000000000000
           O          1.209778534257    -1.234088927727    -1.302445450381    15.994914619560
           O          0.405929534257     0.599498072273    -2.241589450381    15.994914619560
           C          2.616814534257    -1.070011927727    -1.302528450381    12.000000000000
           H          2.934933534257    -0.532346927727    -2.183727450381     1.007825032070
           H          3.028795534257    -2.067069927727    -1.302227450381     1.007825032070
           H          2.935012534257    -0.531681927727    -0.421693450381     1.007825032070

  Charge       = 0
  Multiplicity = 1
  Basis Set: 6-31G*
  Basis Set:

    Orbital Energies (a.u.)
    -----------------------

    Doubly Occupied:

       1A    -20.591171     2A    -20.551185     3A    -11.377939
       4A    -11.291885     5A    -11.247986     6A    -11.247561
       7A    -11.245093     8A    -11.243227     9A    -11.239952
      10A    -11.238765    11A     -1.466891    12A     -1.365887
      13A     -1.167075    14A     -1.046137    15A     -1.027050
      16A     -0.980343    17A     -0.867375    18A     -0.837171
      19A     -0.779675    20A     -0.739439    21A     -0.683478
      22A     -0.676651    23A     -0.666684    24A     -0.636517
      25A     -0.626029    26A     -0.605544    27A     -0.596313
      28A     -0.560768    29A     -0.526071    30A     -0.519410
      31A     -0.502197    32A     -0.494349    33A     -0.460484
      34A     -0.442291    35A     -0.347173    36A     -0.343168

  @DF-RHF Final Energy:  -457.33372451228666

   => Energetics <=

    Nuclear Repulsion Energy =            495.5691259827544286
    One-Electron Energy =               -1605.3278028216436724
    Two-Electron Energy =                 652.4249523266039432
    DFT Exchange-Correlation Energy =       0.0000000000000000
    Empirical Dispersion Energy =           0.0000000000000000
    PCM Polarization Energy =               0.0000000000000000
    EFP Energy =                            0.0000000000000000
    Total Energy =                       -457.3337245122852437

  Mulliken Charges: (a.u.)
   Center  Symbol    Alpha    Beta     Spin     Total
       1     H     0.39476  0.39476  0.00000  0.21047
       2     C     3.08977  3.08977  0.00000 -0.17953
       3     C     3.10687  3.10687  0.00000 -0.21373
       4     C     3.10663  3.10663  0.00000 -0.21325
       5     H     0.39494  0.39494  0.00000  0.21012
       6     C     3.08575  3.08575  0.00000 -0.17150
       7     H     0.39601  0.39601  0.00000  0.20797
       8     C     3.09009  3.09009  0.00000 -0.18017
       9     H     0.37578  0.37578  0.00000  0.24844
      10     C     3.07832  3.07832  0.00000 -0.15665
      11     H     0.38358  0.38358  0.00000  0.23283
      12     C     2.58946  2.58946  0.00000  0.82109
      13     O     4.31787  4.31787  0.00000 -0.63574
      14     O     4.27103  4.27103  0.00000 -0.54205
      15     C     3.09519  3.09519  0.00000 -0.19039
      16     H     0.40321  0.40321  0.00000  0.19357
      17     H     0.40380  0.40380  0.00000  0.19239
      18     H     0.41693  0.41693  0.00000  0.16613

   Total alpha = 36.00000, Total beta = 36.00000, Total charge = -0.00000
