  ==> Input File <==

--------------------------------------------------------------------------
set {
	reference rhf
	basis 6-31G*
}

set_num_threads( 4 )
memory 2 gb

molecule MOL {
0 1

O	 -0.277720	 1.288666	 -0.406763
C	 -0.442272	 0.127700	 -0.215828
C	 -1.776657	 -0.566088	 -0.190468
O	 0.550821	 -0.724572	 0.000672
H	 -1.800302	 -1.341882	 -0.946953
H	 -2.561745	 0.152602	 -0.372162
H	 -1.923427	 -1.041587	 0.772309
C	 1.863949	 -0.193559	 -0.000319
H	 2.028859	 0.409284	 -0.881648
H	 2.526261	 -1.045082	 -0.000003
H	 2.029520	 0.410555	 0.880008

	symmetry c1
}
set optking {
	frozen_dihedral = ("
		2 4 8 9
	")
}

ee = optimize('scf')
oeprop('DIPOLE', 'QUADRUPOLE', 'MULLIKEN_CHARGES')
f=open( 'psi4out.xyz', 'w' )
f.write( "11  " )
f.write( str(ee) + "\n" )
f.write( MOL.save_string_xyz() )
f.close()
--------------------------------------------------------------------------

    Molecular point group: c1
  Charge       = 0
  Multiplicity = 1
  Basis Set: 6-31G*
  Basis Set:
  @DF-RHF Final Energy:  -266.83624215621273
    Total Energy =                       -266.8362421562128475
    Molecular point group: c1
  Basis Set: 6-31G*
  Basis Set:
  Basis Set: 6-31G*
  Basis Set:
  @DF-RHF Final Energy:  -266.83619899657060
    Total Energy =                       -266.8361989965711132
  Basis Set: 6-31G*
  Basis Set:
  Basis Set: 6-31G*
  Basis Set:
  @DF-RHF Final Energy:  -266.83615801855706
    Total Energy =                       -266.8361580185569437
  Basis Set: 6-31G*
  Basis Set:
  Basis Set: 6-31G*
  Basis Set:
  @DF-RHF Final Energy:  -266.83626475948688
    Total Energy =                       -266.8362647594868804
  Basis Set: 6-31G*
  Basis Set:
  Charge       = 0
  Multiplicity = 1
  Basis Set: 6-31G*
  Basis Set:

    Orbital Energies (a.u.)
    -----------------------

    Doubly Occupied:

       1A    -20.605842     2A    -20.546504     3A    -11.376593
       4A    -11.282042     5A    -11.234701     6A     -1.471065
       7A     -1.364600     8A     -1.035983     9A     -0.953002
      10A     -0.778270    11A     -0.695972    12A     -0.680847
      13A     -0.677217    14A     -0.595281    15A     -0.592044
      16A     -0.560852    17A     -0.525215    18A     -0.523418
      19A     -0.457714    20A     -0.442372

  @DF-RHF Final Energy:  -266.83626608430831

   => Energetics <=

    Nuclear Repulsion Energy =            183.2979867484129386
    One-Electron Energy =                -727.4694315479412126
    Two-Electron Energy =                 277.3351787152198540
    DFT Exchange-Correlation Energy =       0.0000000000000000
    Empirical Dispersion Energy =           0.0000000000000000
    PCM Polarization Energy =               0.0000000000000000
    EFP Energy =                            0.0000000000000000
    Total Energy =                       -266.8362660843083631
    Molecular point group: c1
  Basis Set: 6-31G*
  Basis Set:

  -Total Gradient:
     Atom            X                  Y                   Z
    ------   -----------------  -----------------  -----------------
       1       -0.000004769792    -0.000012096379     0.000002654456
       2        0.000056649593    -0.000127872778    -0.000824178252
       3        0.000009176779    -0.000001234770    -0.000000548548
       4       -0.000160401947     0.000409961548     0.001290571667
       5        0.000001794983    -0.000000363472     0.000001530432
       6        0.000001465893     0.000001889637     0.000001185372
       7       -0.000000432473     0.000001077787     0.000001576010
       8        0.000413344752    -0.001057630817    -0.000944249121
       9       -0.000315068121     0.000789723140     0.000474151248
      10       -0.000001676997    -0.000002708494    -0.000001054202
      11       -0.000000082670    -0.000000745404    -0.000001639062

  **** Optimization is complete! (in 5 steps) ****
    Final optimized geometry and variables:
    Molecular point group: c1

    Geometry (in Angstrom), charge = 0, multiplicity = 1:

    O           -0.286360113293     1.305360586481    -0.236974494255
    C           -0.448168136616     0.142785375720    -0.053628401102
    C           -1.781171625628    -0.553925921047    -0.033988425668
    O            0.545409734353    -0.708866238890     0.163604624286
    H           -1.801740089189    -1.326502149487    -0.793832432253
    H           -2.567456778711     0.163844802602    -0.213732003323
    H           -1.928605995984    -1.033916989400     0.926546668584
    C            1.860845186524    -0.183330107504     0.153161531701
    H            2.026917284847     0.413045033694    -0.731206280951
    H            2.521599673418    -1.035830598058     0.168407205283
    H            2.025582215682     0.430821959832     1.027820349557

  Mulliken Charges: (a.u.)
   Center  Symbol    Alpha    Beta     Spin     Total
       1     O     4.28204  4.28204  0.00000 -0.56408
       2     C     2.62249  2.62249  0.00000  0.75501
       3     C     3.28176  3.28176  0.00000 -0.56352
       4     O     4.29948  4.29948  0.00000 -0.59896
       5     H     0.39999  0.39999  0.00000  0.20002
       6     H     0.39658  0.39658  0.00000  0.20683
       7     H     0.39983  0.39983  0.00000  0.20034
       8     C     3.09297  3.09297  0.00000 -0.18593
       9     H     0.40575  0.40575  0.00000  0.18850
      10     H     0.40839  0.40839  0.00000  0.18323
      11     H     0.41072  0.41072  0.00000  0.17855

   Total alpha = 20.00000, Total beta = 20.00000, Total charge = -0.00000
