  ==> Input File <==

--------------------------------------------------------------------------
set {
	reference rhf
	basis 6-31G*
}

set_num_threads( 1 )
memory 2 gb

molecule MOL {
0 1

H	 -2.589211	 -1.583839	 -0.735739
N	 -1.679874	 -1.490842	 -0.326554
C	 -1.443340	 -0.121853	 0.096559
H	 -1.010031	 -1.744730	 -1.026527
C	 -0.050595	 0.006576	 0.676991
H	 -1.550547	 0.610106	 -0.705154
H	 -2.163816	 0.132253	 0.868003
O	 0.874168	 -0.245412	 -0.342030
H	 0.098992	 1.008434	 1.078915
H	 0.075654	 -0.708986	 1.486476
C	 2.202317	 -0.244239	 0.074611
H	 2.711377	 -1.041390	 -0.449894
H	 2.692099	 0.699270	 -0.159667
H	 2.283185	 -0.418429	 1.145558

	symmetry c1
}
set optking {
	frozen_dihedral = ("
		8 5 3 6,
		6 3 2 4,
		11 8 5 3
	")
}

ee = energy('scf')
oeprop('DIPOLE', 'QUADRUPOLE', 'MULLIKEN_CHARGES')
f=open( 'psi4out.xyz', 'w' )
f.write( "14  " )
f.write( str(ee) + "\n" )
f.write( MOL.save_string_xyz() )
f.close()
--------------------------------------------------------------------------

    Molecular point group: c1

    Geometry (in Angstrom), charge = 0, multiplicity = 1:

       Center              X                  Y                   Z               Mass
    ------------   -----------------  -----------------  -----------------  -----------------
           H         -2.582702461903    -1.155069275550    -0.757694379226     1.007825032070
           N         -1.673365461903    -1.062072275550    -0.348509379226    14.003074004780
           C         -1.436831461903     0.306916724450     0.074603620774    12.000000000000
           H         -1.003522461903    -1.315960275550    -1.048482379226     1.007825032070
           C         -0.044086461903     0.435345724450     0.655035620774    12.000000000000
           H         -1.544038461903     1.038875724450    -0.727109379226     1.007825032070
           H         -2.157307461903     0.561022724450     0.846047620774     1.007825032070
           O          0.880676538097     0.183357724450    -0.363985379226    15.994914619560
           H          0.105500538097     1.437203724450     1.056959620774     1.007825032070
           H          0.082162538097    -0.280216275550     1.464520620774     1.007825032070
           C          2.208825538097     0.184530724450     0.052655620774    12.000000000000
           H          2.717885538097    -0.612620275550    -0.471849379226     1.007825032070
           H          2.698607538097     1.128039724450    -0.181622379226     1.007825032070
           H          2.289693538097     0.010340724450     1.123602620774     1.007825032070

  Charge       = 0
  Multiplicity = 1
  Basis Set: 6-31G*
  Basis Set:

    Orbital Energies (a.u.)
    -----------------------

    Doubly Occupied:

       1A    -20.555477     2A    -15.528371     3A    -11.266032
       4A    -11.265407     5A    -11.240507     6A     -1.380696
       7A     -1.173510     8A     -0.998618     9A     -0.907072
      10A     -0.816094    11A     -0.682691    12A     -0.673157
      13A     -0.644252    14A     -0.610023    15A     -0.605963
      16A     -0.539398    17A     -0.533084    18A     -0.495439
      19A     -0.474491    20A     -0.413812    21A     -0.380026

  @DF-RHF Final Energy:  -248.12221121119586

   => Energetics <=

    Nuclear Repulsion Energy =            194.7005986305308625
    One-Electron Energy =                -723.2773405935460005
    Two-Electron Energy =                 280.4545307518195614
    DFT Exchange-Correlation Energy =       0.0000000000000000
    Empirical Dispersion Energy =           0.0000000000000000
    PCM Polarization Energy =               0.0000000000000000
    EFP Energy =                            0.0000000000000000
    Total Energy =                       -248.1222112111955767

  Mulliken Charges: (a.u.)
   Center  Symbol    Alpha    Beta     Spin     Total
       1     H     0.33282  0.33282  0.00000  0.33437
       2     N     3.92535  3.92535  0.00000 -0.85069
       3     C     3.06910  3.06910  0.00000 -0.13820
       4     H     0.32371  0.32371  0.00000  0.35258
       5     C     2.99152  2.99152  0.00000  0.01696
       6     H     0.42657  0.42657  0.00000  0.14687
       7     H     0.42055  0.42055  0.00000  0.15891
       8     O     4.31113  4.31113  0.00000 -0.62225
       9     H     0.43112  0.43112  0.00000  0.13777
      10     H     0.42155  0.42155  0.00000  0.15689
      11     C     3.07660  3.07660  0.00000 -0.15320
      12     H     0.41612  0.41612  0.00000  0.16777
      13     H     0.42509  0.42509  0.00000  0.14982
      14     H     0.42879  0.42879  0.00000  0.14241

   Total alpha = 21.00000, Total beta = 21.00000, Total charge = -0.00000
