  ==> Input File <==

--------------------------------------------------------------------------
set {
	reference rhf
	basis 6-31G*
}

set_num_threads( 4 )
memory 2 gb

molecule MOL {
0 1

H	 3.296744	 -0.447908	 0.013499
C	 2.237514	 -0.262315	 0.010597
C	 1.719348	 0.766489	 -0.766531
C	 1.398538	 -1.049907	 0.781179
H	 2.377042	 1.373459	 -1.361974
C	 0.359528	 1.007559	 -0.772580
H	 1.802988	 -1.844793	 1.381030
C	 0.034522	 -0.807048	 0.774247
H	 -0.060792	 1.797588	 -1.366159
C	 -0.488460	 0.219100	 0.000000
H	 -0.622767	 -1.415845	 1.371143
C	 -1.949954	 0.470334	 0.000000
O	 -2.781584	 -0.381627	 0.000000
H	 -2.238022	 1.526388	 0.000000

	symmetry c1
}
set optking {
	frozen_dihedral = ("
		8 10 12 14
	")
}

ee = optimize('scf')
oeprop('DIPOLE', 'QUADRUPOLE', 'MULLIKEN_CHARGES')
f=open( 'psi4out.xyz', 'w' )
f.write( "14  " )
f.write( str(ee) + "\n" )
f.write( MOL.save_string_xyz() )
f.close()
--------------------------------------------------------------------------

    Molecular point group: c1
  Charge       = 0
  Multiplicity = 1
  Basis Set: 6-31G*
  Basis Set:
  @DF-RHF Final Energy:  -343.42721980881259
    Total Energy =                       -343.4272198088120831
    Molecular point group: c1
  Basis Set: 6-31G*
  Basis Set:
  Basis Set: 6-31G*
  Basis Set:
  @DF-RHF Final Energy:  -343.42510658001163
    Total Energy =                       -343.4251065800117431
  Basis Set: 6-31G*
  Basis Set:
  Basis Set: 6-31G*
  Basis Set:
  @DF-RHF Final Energy:  -343.42798953223445
    Total Energy =                       -343.4279895322350740
  Basis Set: 6-31G*
  Basis Set:
  Basis Set: 6-31G*
  Basis Set:
  @DF-RHF Final Energy:  -343.42810007915443
    Total Energy =                       -343.4281000791542056
  Basis Set: 6-31G*
  Basis Set:
  Basis Set: 6-31G*
  Basis Set:
  @DF-RHF Final Energy:  -343.42810260279026
    Total Energy =                       -343.4281026027904318
  Basis Set: 6-31G*
  Basis Set:
  Charge       = 0
  Multiplicity = 1
  Basis Set: 6-31G*
  Basis Set:

    Orbital Energies (a.u.)
    -----------------------

    Doubly Occupied:

       1A    -20.565164     2A    -11.332506     3A    -11.252195
       4A    -11.248894     5A    -11.248238     6A    -11.247042
       7A    -11.244824     8A    -11.243142     9A     -1.405218
      10A     -1.170592    11A     -1.046520    12A     -1.030818
      13A     -0.888518    14A     -0.842934    15A     -0.791883
      16A     -0.720873    17A     -0.677386    18A     -0.651948
      19A     -0.624567    20A     -0.617527    21A     -0.602235
      22A     -0.546249    23A     -0.526823    24A     -0.506457
      25A     -0.502634    26A     -0.422058    27A     -0.348662
      28A     -0.346737

  @DF-RHF Final Energy:  -343.42810329779996

   => Energetics <=

    Nuclear Repulsion Energy =            322.9316548671317264
    One-Electron Energy =               -1105.4142283196681547
    Two-Electron Energy =                 439.0544701547363502
    DFT Exchange-Correlation Energy =       0.0000000000000000
    Empirical Dispersion Energy =           0.0000000000000000
    PCM Polarization Energy =               0.0000000000000000
    EFP Energy =                            0.0000000000000000
    Total Energy =                       -343.4281032978000212
    Molecular point group: c1
  Basis Set: 6-31G*
  Basis Set:

  -Total Gradient:
     Atom            X                  Y                   Z
    ------   -----------------  -----------------  -----------------
       1        0.000003574952     0.000013792875     0.000000161282
       2       -0.000027521251    -0.000113373140     0.000076007146
       3       -0.000119076768     0.000061049619    -0.000059435548
       4        0.000147407446     0.000046133161    -0.000036596962
       5        0.000010671750    -0.000005018736     0.000010077707
       6        0.000156752637     0.000017879555    -0.000062459445
       7       -0.000008604339    -0.000003646041    -0.000002644457
       8        0.000686509370     0.003705302303     0.004050474249
       9       -0.000007823468    -0.000006670551     0.000007355545
      10       -0.001150418571    -0.005298691489    -0.003744024651
      11        0.000001307288    -0.000001053915     0.000005543041
      12        0.000118261545     0.001357844075    -0.007030072731
      13       -0.000007299141     0.000023226866    -0.000005618287
      14        0.000196258553     0.000203225419     0.006791233109

  **** Optimization is complete! (in 6 steps) ****
    Final optimized geometry and variables:
    Molecular point group: c1

    Geometry (in Angstrom), charge = 0, multiplicity = 1:

    H            3.305914200629    -0.417178884151     0.023563679011
    C            2.244926248534    -0.243497616418     0.002521828668
    C            1.728561261450     0.779137182321    -0.777724705789
    C            1.399574228721    -1.036138119449     0.765339418026
    H            2.385707283014     1.396790318760    -1.362618527634
    C            0.363884581512     1.012002035576    -0.788709299688
    H            1.805238473455    -1.818674765597     1.380672562613
    C            0.033886264898    -0.818180938483     0.735775860048
    H           -0.038238511953     1.820625117991    -1.375007619382
    C           -0.489622930791     0.196983111355    -0.056235089815
    H           -0.633302809400    -1.429258842620     1.314898795867
    C           -1.949511716431     0.482678218881    -0.023899360780
    O           -2.789743222897    -0.348818978000     0.111463612749
    H           -2.220025793929     1.542652281261    -0.048658221950

  Mulliken Charges: (a.u.)
   Center  Symbol    Alpha    Beta     Spin     Total
       1     H     0.39469  0.39469  0.00000  0.21063
       2     C     3.09327  3.09327  0.00000 -0.18653
       3     C     3.10276  3.10276  0.00000 -0.20552
       4     C     3.10265  3.10265  0.00000 -0.20531
       5     H     0.39491  0.39491  0.00000  0.21019
       6     C     3.10250  3.10250  0.00000 -0.20500
       7     H     0.39431  0.39431  0.00000  0.21139
       8     C     3.09282  3.09282  0.00000 -0.18565
       9     H     0.39347  0.39347  0.00000  0.21307
      10     C     3.04463  3.04463  0.00000 -0.08927
      11     H     0.38104  0.38104  0.00000  0.23791
      12     C     2.84009  2.84009  0.00000  0.31981
      13     O     4.24019  4.24019  0.00000 -0.48038
      14     H     0.42268  0.42268  0.00000  0.15465

   Total alpha = 28.00000, Total beta = 28.00000, Total charge =  0.00000
