                              Psi4 1.0.54 Driver

  ==> Input File <==

--------------------------------------------------------------------------
set {
	reference rhf
	basis cc-pvtz
}

set_num_threads( 4 )
memory 2 gb

molecule MOL {
0 1

H	 -2.109964	 0.694386	 -2.400866
N	 -1.144776	 0.599195	 -2.167585
C	 -0.807131	 -0.787074	 -1.902260
H	 -0.974403	 1.153740	 -1.355520
C	 0.654671	 -0.916602	 -1.540313
H	 -1.399475	 -1.232173	 -1.103786
H	 -0.986131	 -1.366206	 -2.801490
O	 0.881195	 -0.248324	 -0.336237
H	 0.918695	 -1.968432	 -1.439731
H	 1.266211	 -0.485586	 -2.329726
C	 2.208068	 -0.234417	 0.074171
H	 2.725499	 -1.027054	 -0.446768
H	 2.688377	 0.712084	 -0.164856
H	 2.295137	 -0.403407	 1.144883

	symmetry c1
}
set optking {
	frozen_dihedral = ("
		5 8 11 13
	")
}

ee,wfn = optimize('scf', return_wfn=True)
oeprop( wfn, 'DIPOLE', 'QUADRUPOLE', 'MULLIKEN_CHARGES')
f=open( 'psi4out.xyz', 'w' )
f.write( "14  " )
f.write( str(ee) + "\n" )
f.write( MOL.save_string_xyz() )
f.close()
--------------------------------------------------------------------------

    Molecular point group: c1
  Charge       = 0
  Multiplicity = 1
  Basis Set: CC-PVTZ
  Basis Set:
  @DF-RHF Final Energy:  -248.22245696906128
    Total Energy =                       -248.2224569690611133
    Molecular point group: c1
  Basis Set: CC-PVTZ
  Basis Set:
  Basis Set: CC-PVTZ
  Basis Set:
  @DF-RHF Final Energy:  -248.22330077308209
    Total Energy =                       -248.2233007730820873
  Basis Set: CC-PVTZ
  Basis Set:
  Basis Set: CC-PVTZ
  Basis Set:
  @DF-RHF Final Energy:  -248.22355348275335
    Total Energy =                       -248.2235534827534593
  Basis Set: CC-PVTZ
  Basis Set:
  Charge       = 0
  Multiplicity = 1
  Basis Set: CC-PVTZ
  Basis Set:

    Orbital Energies (a.u.)
    -----------------------

    Doubly Occupied:

       1A    -20.548155     2A    -15.523261     3A    -11.264269
       4A    -11.263249     5A    -11.239496     6A     -1.381008
       7A     -1.175690     8A     -1.000488     9A     -0.907778
      10A     -0.815357    11A     -0.684626    12A     -0.674080
      13A     -0.645057    14A     -0.612231    15A     -0.607078
      16A     -0.541069    17A     -0.534728    18A     -0.497340
      19A     -0.473942    20A     -0.415794    21A     -0.383641

  @DF-RHF Final Energy:  -248.22355522868835

   => Energetics <=

    Nuclear Repulsion Energy =            194.4653101503317600
    One-Electron Energy =                -723.0010595422124879
    Two-Electron Energy =                 280.3121941631923164
    DFT Exchange-Correlation Energy =       0.0000000000000000
    Empirical Dispersion Energy =           0.0000000000000000
    PCM Polarization Energy =               0.0000000000000000
    EFP Energy =                            0.0000000000000000
    Total Energy =                       -248.2235552286883831
    Molecular point group: c1
  Basis Set: CC-PVTZ
  Basis Set:

  -Total Gradient:
     Atom            X                  Y                   Z
    ------   -----------------  -----------------  -----------------
       1        0.000001185087    -0.000006020620     0.000001075759
       2        0.000003742559    -0.000008792355    -0.000007358504
       3       -0.000017307795     0.000011273971     0.000016170561
       4        0.000004780384    -0.000009621969    -0.000000210385
       5       -0.000313782684    -0.001724779350     0.000983227269
       6       -0.000004438500     0.000001056464    -0.000003735161
       7       -0.000003643563    -0.000001331166    -0.000005735932
       8        0.000398393554     0.002826612814    -0.000838081919
       9        0.000007691873     0.000017022983     0.000029417075
      10        0.000003442326    -0.000001922940     0.000018451489
      11        0.000652145023    -0.002099132268    -0.002454027819
      12        0.000050468546    -0.000004283523    -0.000000690502
      13       -0.000812304177     0.000971256666     0.002235504833
      14        0.000029627371     0.000028661293     0.000025993236

  **** Optimization is complete! (in 4 steps) ****
    Final optimized geometry and variables:
    Molecular point group: c1

    Geometry (in Angstrom), charge = 0, multiplicity = 1:

    H           -2.479252575687     0.973781209152    -1.244992798888
    N           -1.512975187847     0.884998440630    -1.013766539205
    C           -1.167495439582    -0.497727003101    -0.740453163904
    H           -1.343586908450     1.445145407450    -0.205369946543
    C            0.296510878787    -0.618378008570    -0.384658736677
    H           -1.753605912519    -0.939723924368     0.064366722984
    H           -1.348188367754    -1.084352990020    -1.634579722156
    O            0.521808763477     0.059568116048     0.815488048832
    H            0.564508608493    -1.667715798882    -0.276307827778
    H            0.899955365531    -0.191350293449    -1.182144224904
    C            1.845266735684     0.098525717507     1.249007163807
    H            2.438069011268    -0.701165586725     0.816827715446
    H            2.304036757044     1.051822205828     1.004329193506
    H            1.857776539660    -0.012165451539     2.325911480346

  Mulliken Charges: (a.u.)
   Center  Symbol    Alpha    Beta     Spin     Total
       1     H     0.43032  0.43032  0.00000  0.13937
       2     N     3.69421  3.69421  0.00000 -0.38843
       3     C     3.02382  3.02382  0.00000 -0.04763
       4     H     0.42229  0.42229  0.00000  0.15542
       5     C     2.96761  2.96761  0.00000  0.06477
       6     H     0.46479  0.46479  0.00000  0.07042
       7     H     0.45874  0.45874  0.00000  0.08251
       8     O     4.18329  4.18329  0.00000 -0.36658
       9     H     0.46928  0.46928  0.00000  0.06144
      10     H     0.46956  0.46956  0.00000  0.06087
      11     C     3.02875  3.02875  0.00000 -0.05750
      12     H     0.47174  0.47174  0.00000  0.05652
      13     H     0.46147  0.46147  0.00000  0.07706
      14     H     0.45412  0.45412  0.00000  0.09177

   Total alpha = 21.00000, Total beta = 21.00000, Total charge = -0.00000

*** Psi4 exiting successfully. Buy a developer a beer!
