                              Psi4 1.0.54 Driver

  ==> Input File <==

--------------------------------------------------------------------------
set {
	reference rhf
	basis cc-pvtz
}

set_num_threads( 4 )
memory 2 gb

molecule MOL {
0 1

H	 0.029738	 3.900720	 -1.541770
O	 -0.420560	 3.137463	 -1.854135
C	 -0.283447	 2.086343	 -0.939539
C	 1.113052	 1.497824	 -0.974568
H	 -0.519158	 2.403669	 0.071339
H	 -1.000442	 1.328249	 -1.220418
O	 1.172093	 0.457955	 -0.054438
H	 1.847370	 2.267157	 -0.730031
H	 1.333369	 1.144208	 -1.979551
C	 2.395478	 -0.199028	 -0.000366
H	 2.505946	 -0.901710	 -0.823354
H	 3.174616	 0.545641	 -0.071768
H	 2.513730	 -0.742241	 0.934223

	symmetry c1
}
set optking {
	frozen_dihedral = ("
		4 7 10 13
	")
}

ee,wfn = optimize('scf', return_wfn=True)
oeprop( wfn, 'DIPOLE', 'QUADRUPOLE', 'MULLIKEN_CHARGES')
f=open( 'psi4out.xyz', 'w' )
f.write( "13  " )
f.write( str(ee) + "\n" )
f.write( MOL.save_string_xyz() )
f.close()
--------------------------------------------------------------------------

    Molecular point group: c1
  Charge       = 0
  Multiplicity = 1
  Basis Set: CC-PVTZ
  Basis Set:
  @DF-RHF Final Energy:  -268.06046606249777
    Total Energy =                       -268.0604660624977100
    Molecular point group: c1
  Basis Set: CC-PVTZ
  Basis Set:
  Basis Set: CC-PVTZ
  Basis Set:
  @DF-RHF Final Energy:  -268.06122297513036
    Total Energy =                       -268.0612229751302493
  Basis Set: CC-PVTZ
  Basis Set:
  Basis Set: CC-PVTZ
  Basis Set:
  @DF-RHF Final Energy:  -268.06142798200551
    Total Energy =                       -268.0614279820055117
  Basis Set: CC-PVTZ
  Basis Set:
  Charge       = 0
  Multiplicity = 1
  Basis Set: CC-PVTZ
  Basis Set:

    Orbital Energies (a.u.)
    -----------------------

    Doubly Occupied:

       1A    -20.555218     2A    -20.552794     3A    -11.269404
       4A    -11.267679     5A    -11.267359     6A     -1.391070
       7A     -1.369092     8A     -1.019671     9A     -0.914059
      10A     -0.842838    11A     -0.711698    12A     -0.676172
      13A     -0.662649    14A     -0.638627    15A     -0.598937
      16A     -0.569060    17A     -0.549295    18A     -0.490046
      19A     -0.484079    20A     -0.441606    21A     -0.423633

  @DF-RHF Final Energy:  -268.06142880922738

   => Energetics <=

    Nuclear Repulsion Energy =            190.4397004236635098
    One-Electron Energy =                -743.6122911764116452
    Two-Electron Energy =                 285.1111619435206990
    DFT Exchange-Correlation Energy =       0.0000000000000000
    Empirical Dispersion Energy =           0.0000000000000000
    PCM Polarization Energy =               0.0000000000000000
    EFP Energy =                            0.0000000000000000
    Total Energy =                       -268.0614288092274933
    Molecular point group: c1
  Basis Set: CC-PVTZ
  Basis Set:

  -Total Gradient:
     Atom            X                  Y                   Z
    ------   -----------------  -----------------  -----------------
       1        0.000004049927     0.000008042253    -0.000000328800
       2        0.000072479851    -0.000060411093     0.000042407978
       3       -0.000067439065    -0.000067096352     0.000061759617
       4        0.000745163071     0.001265462825     0.001265335675
       5       -0.000013474584     0.000018631379     0.000002108986
       6       -0.000008554773    -0.000005362008     0.000003323919
       7       -0.000641448845    -0.001321856393    -0.001679159356
       8        0.000011252835    -0.000023188769     0.000025095261
       9        0.000005523367    -0.000015235170     0.000005067820
      10       -0.001042470557    -0.001765256591    -0.000681457697
      11       -0.000027180815     0.000000802621    -0.000009449276
      12       -0.000013427265     0.000022521883    -0.000007737020
      13        0.000975526852     0.001942945414     0.000973032892

  **** Optimization is complete! (in 4 steps) ****
    Final optimized geometry and variables:
    Molecular point group: c1

    Geometry (in Angstrom), charge = 0, multiplicity = 1:

    H           -0.744393931316     2.483441990517    -0.777899684835
    O           -1.200774913778     1.723501174574    -1.089549237611
    C           -1.074522081280     0.673268111157    -0.172384255164
    C            0.317073865666     0.073239590795    -0.203611925866
    H           -1.308773577770     0.994898561978     0.837519856506
    H           -1.797778596876    -0.079094304571    -0.452567034104
    O            0.366763462524    -0.958523701569     0.726399251000
    H            1.057832067132     0.837107183189     0.036364855783
    H            0.533352930278    -0.288143202808    -1.206941029428
    C            1.578602904262    -1.638804437336     0.785945885531
    H            1.667832403753    -2.363660881109    -0.018606251572
    H            2.420655660459    -0.953319635041     0.726501653155
    H            1.630291802392    -2.147552975981     1.737880553035

  Mulliken Charges: (a.u.)
   Center  Symbol    Alpha    Beta     Spin     Total
       1     H     0.39407  0.39407  0.00000  0.21186
       2     O     4.20215  4.20215  0.00000 -0.40429
       3     C     2.97389  2.97389  0.00000  0.05222
       4     C     2.96508  2.96508  0.00000  0.06983
       5     H     0.46711  0.46711  0.00000  0.06579
       6     H     0.45255  0.45255  0.00000  0.09491
       7     O     4.17662  4.17662  0.00000 -0.35325
       8     H     0.48079  0.48079  0.00000  0.03842
       9     H     0.47063  0.47063  0.00000  0.05875
      10     C     3.03035  3.03035  0.00000 -0.06071
      11     H     0.46511  0.46511  0.00000  0.06978
      12     H     0.47368  0.47368  0.00000  0.05264
      13     H     0.44798  0.44798  0.00000  0.10405

   Total alpha = 21.00000, Total beta = 21.00000, Total charge = -0.00000

*** Psi4 exiting successfully. Buy a developer a beer!
