  ==> Input File <==

--------------------------------------------------------------------------
set {
	reference rhf
	basis 6-31G*
}

set_num_threads( 4 )
memory 2 gb

molecule MOL {
0 1

O	 -2.821601	 1.309235	 -0.001213
C	 -2.668563	 0.129746	 -0.000350
C	 -3.801572	 -0.864014	 -0.000442
O	 -1.481751	 -0.454642	 0.000584
H	 -4.417280	 -0.689587	 -0.874708
H	 -3.443784	 -1.883046	 -0.000565
H	 -4.417179	 -0.689832	 0.873954
C	 -0.334255	 0.388708	 0.000906
C	 0.891947	 -0.504646	 0.000751
H	 -0.365390	 1.025305	 -0.873475
H	 -0.365484	 1.024911	 0.875569
C	 2.191998	 0.301789	 0.000897
H	 0.855148	 -1.151283	 -0.871571
H	 0.855132	 -1.151660	 0.872805
C	 3.319848	 -0.386054	 0.772360
H	 2.513385	 0.474012	 -1.024839
H	 2.010509	 1.284412	 0.432864
C	 4.618706	 0.418826	 0.771339
H	 3.502761	 -1.368001	 0.341782
H	 3.001242	 -0.556842	 1.798222
H	 4.981175	 0.577293	 -0.240352
H	 5.398597	 -0.094095	 1.325342
H	 4.475983	 1.394386	 1.227324

	symmetry c1
}
set optking {
	frozen_dihedral = ("
		16 12 9 13
	")
}

ee = optimize('scf')
oeprop('DIPOLE', 'QUADRUPOLE', 'MULLIKEN_CHARGES')
f=open( 'psi4out.xyz', 'w' )
f.write( "23  " )
f.write( str(ee) + "\n" )
f.write( MOL.save_string_xyz() )
f.close()
--------------------------------------------------------------------------

    Molecular point group: c1
  Charge       = 0
  Multiplicity = 1
  Basis Set: 6-31G*
  Basis Set:
  @DF-RHF Final Energy:  -422.97655657512365
    Total Energy =                       -422.9765565751231406
    Molecular point group: c1
  Basis Set: 6-31G*
  Basis Set:
  Basis Set: 6-31G*
  Basis Set:
  @DF-RHF Final Energy:  -422.97676637493026
    Total Energy =                       -422.9767663749307758
  Basis Set: 6-31G*
  Basis Set:
  Basis Set: 6-31G*
  Basis Set:
  @DF-RHF Final Energy:  -422.97682415551685
    Total Energy =                       -422.9768241555168515
  Basis Set: 6-31G*
  Basis Set:
  Basis Set: 6-31G*
  Basis Set:
  @DF-RHF Final Energy:  -422.97670364401932
    Total Energy =                       -422.9767036440196080
  Basis Set: 6-31G*
  Basis Set:
  Basis Set: 6-31G*
  Basis Set:
  @DF-RHF Final Energy:  -422.97684219398860
    Total Energy =                       -422.9768421939887730
  Basis Set: 6-31G*
  Basis Set:
  Basis Set: 6-31G*
  Basis Set:
  @DF-RHF Final Energy:  -422.97684043273944
    Total Energy =                       -422.9768404327390954
  Basis Set: 6-31G*
  Basis Set:
  Basis Set: 6-31G*
  Basis Set:
  @DF-RHF Final Energy:  -422.97684443377318
    Total Energy =                       -422.9768444337734081
  Basis Set: 6-31G*
  Basis Set:
  Charge       = 0
  Multiplicity = 1
  Basis Set: 6-31G*
  Basis Set:

    Orbital Energies (a.u.)
    -----------------------

    Doubly Occupied:

       1A    -20.602846     2A    -20.540486     3A    -11.374055
       4A    -11.281441     5A    -11.232347     6A    -11.224410
       7A    -11.223838     8A    -11.221598     9A    -11.212757
      10A     -1.467888    11A     -1.360694    12A     -1.093225
      13A     -1.042104    14A     -1.003098    15A     -0.930305
      16A     -0.842090    17A     -0.802223    18A     -0.775129
      19A     -0.690911    20A     -0.684893    21A     -0.669128
      22A     -0.643535    23A     -0.608695    24A     -0.587024
      25A     -0.581267    26A     -0.568824    27A     -0.558254
      28A     -0.536178    29A     -0.524781    30A     -0.503093
      31A     -0.492877    32A     -0.478062    33A     -0.469427
      34A     -0.464194    35A     -0.450967    36A     -0.435121

  @DF-RHF Final Energy:  -422.97684443918166

   => Energetics <=

    Nuclear Repulsion Energy =            449.9013425647077042
    One-Electron Energy =               -1467.4008377167770050
    Two-Electron Energy =                 594.5226507128878666
    DFT Exchange-Correlation Energy =       0.0000000000000000
    Empirical Dispersion Energy =           0.0000000000000000
    PCM Polarization Energy =               0.0000000000000000
    EFP Energy =                            0.0000000000000000
    Total Energy =                       -422.9768444391814910
    Molecular point group: c1
  Basis Set: 6-31G*
  Basis Set:

  -Total Gradient:
     Atom            X                  Y                   Z
    ------   -----------------  -----------------  -----------------
       1        0.000000055938    -0.000000317515     0.000001099290
       2        0.000000306943     0.000001071920     0.000000373702
       3       -0.000000264816    -0.000000277582     0.000004332919
       4        0.000002182849    -0.000000622536    -0.000004079365
       5        0.000000460702    -0.000001399844    -0.000001868924
       6       -0.000000050109     0.000000062716    -0.000000460767
       7       -0.000000445130     0.000001351027    -0.000001973334
       8        0.000000813159     0.000003101501     0.000006869945
       9        0.002700334712    -0.004178029399     0.002478913612
      10       -0.000001084285    -0.000001170361    -0.000000468153
      11       -0.000001452982     0.000000255469     0.000000067086
      12       -0.002950283971     0.004637186893    -0.000583558453
      13       -0.001786282049     0.002750495764    -0.001981136434
      14       -0.000001918004     0.000002364543     0.000000437642
      15       -0.000003560920     0.000004561584     0.000010914459
      16        0.002038777843    -0.003212912633     0.000072591528
      17        0.000002555968    -0.000003172473     0.000001144651
      18        0.000001112131    -0.000003284079    -0.000006393640
      19        0.000002049331     0.000002582068     0.000000834388
      20       -0.000002164156    -0.000001753396     0.000002356724
      21       -0.000000193208     0.000003446681    -0.000000673306
      22       -0.000000132667    -0.000001476403    -0.000001967780
      23       -0.000000817273    -0.000002063949     0.000002644212

  **** Optimization is complete! (in 8 steps) ****
    Final optimized geometry and variables:
    Molecular point group: c1

    Geometry (in Angstrom), charge = 0, multiplicity = 1:

    O           -2.804265923441     1.261390547516    -0.188536200116
    C           -2.649495276735     0.082150454788    -0.196384828013
    C           -3.780603234948    -0.912741523883    -0.241870473440
    O           -1.462370750760    -0.500897656980    -0.165884209982
    H           -4.370416901911    -0.728591723100    -1.131849292420
    H           -3.421531814105    -1.931327206996    -0.243408883879
    H           -4.422095886877    -0.749633478479     0.615901220175
    C           -0.316432247513     0.343021453244    -0.121001573669
    C            0.912522902903    -0.548382000806    -0.090910023521
    H           -0.319588323609     0.988540011513    -0.989745651576
    H           -0.375376478851     0.970577867879     0.758423643207
    C            2.210854820762     0.274807713602    -0.119069363417
    H            0.865331845257    -1.201929920730    -0.956191683347
    H            0.869457674959    -1.173727324201     0.795344989282
    C            3.369025474718    -0.417061293084     0.605788055441
    H            2.509544925933     0.440365021547    -1.151108456878
    H            2.049622126456     1.254238796191     0.326644504829
    C            4.677943212020     0.366249862153     0.521788310487
    H            3.513163581004    -1.409850023228     0.184622390352
    H            3.101261336955    -0.564620157772     1.649622233554
    H            4.992505050649     0.495920259048    -0.509877763764
    H            5.476688144899    -0.146040984665     1.048874516078
    H            4.572439873583     1.354317874681     0.960963111937

  Mulliken Charges: (a.u.)
   Center  Symbol    Alpha    Beta     Spin     Total
       1     O     4.28384  4.28384  0.00000 -0.56768
       2     C     2.61540  2.61540  0.00000  0.76920
       3     C     3.28775  3.28775  0.00000 -0.57549
       4     O     4.31268  4.31268  0.00000 -0.62536
       5     H     0.39751  0.39751  0.00000  0.20498
       6     H     0.39989  0.39989  0.00000  0.20021
       7     H     0.39752  0.39752  0.00000  0.20497
       8     C     2.99869  2.99869  0.00000  0.00262
       9     C     3.16470  3.16470  0.00000 -0.32941
      10     H     0.41055  0.41055  0.00000  0.17890
      11     H     0.41064  0.41064  0.00000  0.17871
      12     C     3.16158  3.16158  0.00000 -0.32316
      13     H     0.41235  0.41235  0.00000  0.17529
      14     H     0.41307  0.41307  0.00000  0.17385
      15     C     3.15281  3.15281  0.00000 -0.30562
      16     H     0.41827  0.41827  0.00000  0.16345
      17     H     0.41985  0.41985  0.00000  0.16030
      18     C     3.24030  3.24030  0.00000 -0.48060
      19     H     0.42120  0.42120  0.00000  0.15761
      20     H     0.42157  0.42157  0.00000  0.15686
      21     H     0.42105  0.42105  0.00000  0.15790
      22     H     0.41796  0.41796  0.00000  0.16409
      23     H     0.42081  0.42081  0.00000  0.15838

   Total alpha = 36.00000, Total beta = 36.00000, Total charge =  0.00000
