                              Psi4 1.0.54 Driver

  ==> Input File <==

--------------------------------------------------------------------------
set {
	reference rhf
	basis cc-pvtz
}

set_num_threads( 4 )
memory 2 gb

molecule MOL {
0 1

H	 -4.026471	 1.126592	 -0.714026
O	 -3.314571	 0.561229	 -0.950160
C	 -2.197743	 0.828702	 -0.144201
C	 -1.073436	 -0.100752	 -0.554288
H	 -1.883677	 1.863913	 -0.260277
H	 -2.440356	 0.675902	 0.905381
C	 0.196029	 0.106276	 0.266738
H	 -0.865134	 0.055849	 -1.607998
H	 -1.419853	 -1.124411	 -0.454113
C	 1.330220	 -0.826136	 -0.155230
H	 0.514374	 1.140230	 0.175585
H	 -0.023169	 -0.055095	 1.320063
C	 2.719700	 -0.407669	 0.328325
H	 1.339388	 -0.911200	 -1.239363
H	 1.119001	 -1.821953	 0.224128
C	 3.241564	 0.893452	 -0.276737
H	 3.418299	 -1.204729	 0.093035
H	 2.711776	 -0.323368	 1.411960
H	 3.254204	 0.841071	 -1.360784
H	 2.634460	 1.745075	 0.005842
H	 4.254264	 1.092401	 0.054971

	symmetry c1
}
set optking {
	frozen_dihedral = ("
		4 7 10 14
	")
}

ee,wfn = optimize('scf', return_wfn=True)
oeprop( wfn, 'DIPOLE', 'QUADRUPOLE', 'MULLIKEN_CHARGES')
f=open( 'psi4out.xyz', 'w' )
f.write( "21  " )
f.write( str(ee) + "\n" )
f.write( MOL.save_string_xyz() )
f.close()
--------------------------------------------------------------------------

    Molecular point group: c1
  Charge       = 0
  Multiplicity = 1
  Basis Set: CC-PVTZ
  Basis Set:
  @DF-RHF Final Energy:  -310.33163581132072
    Total Energy =                       -310.3316358113204956
    Molecular point group: c1
  Basis Set: CC-PVTZ
  Basis Set:
  Basis Set: CC-PVTZ
  Basis Set:
  @DF-RHF Final Energy:  -310.33138052799501
    Total Energy =                       -310.3313805279953499
  Basis Set: CC-PVTZ
  Basis Set:
  Basis Set: CC-PVTZ
  Basis Set:
  @DF-RHF Final Energy:  -310.33187071833265
    Total Energy =                       -310.3318707183327092
  Basis Set: CC-PVTZ
  Basis Set:
  Basis Set: CC-PVTZ
  Basis Set:
  @DF-RHF Final Energy:  -310.33189857658459
    Total Energy =                       -310.3318985765845923
  Basis Set: CC-PVTZ
  Basis Set:
  Basis Set: CC-PVTZ
  Basis Set:
  @DF-RHF Final Energy:  -310.33191435682409
    Total Energy =                       -310.3319143568240861
  Basis Set: CC-PVTZ
  Basis Set:
  Basis Set: CC-PVTZ
  Basis Set:
  @DF-RHF Final Energy:  -310.33191566968287
    Total Energy =                       -310.3319156696825303
  Basis Set: CC-PVTZ
  Basis Set:
  Charge       = 0
  Multiplicity = 1
  Basis Set: CC-PVTZ
  Basis Set:

    Orbital Energies (a.u.)
    -----------------------

    Doubly Occupied:

       1A    -20.545367     2A    -11.264935     3A    -11.213403
       4A    -11.213070     5A    -11.211157     6A    -11.209058
       7A    -11.206018     8A     -1.363222     9A     -1.086952
      10A     -1.034496    11A     -0.955713    12A     -0.875982
      13A     -0.806925    14A     -0.781004    15A     -0.696284
      16A     -0.662596    17A     -0.618948    18A     -0.612855
      19A     -0.588978    20A     -0.566526    21A     -0.542371
      22A     -0.521555    23A     -0.507370    24A     -0.488889
      25A     -0.480807    26A     -0.461747    27A     -0.454223
      28A     -0.444114    29A     -0.437413

  @DF-RHF Final Energy:  -310.33191573017427

   => Energetics <=

    Nuclear Repulsion Energy =            313.0694458727215306
    One-Electron Energy =               -1041.0987615645522055
    Two-Electron Energy =                 417.6973999616565152
    DFT Exchange-Correlation Energy =       0.0000000000000000
    Empirical Dispersion Energy =           0.0000000000000000
    PCM Polarization Energy =               0.0000000000000000
    EFP Energy =                            0.0000000000000000
    Total Energy =                       -310.3319157301741598
    Molecular point group: c1
  Basis Set: CC-PVTZ
  Basis Set:

  -Total Gradient:
     Atom            X                  Y                   Z
    ------   -----------------  -----------------  -----------------
       1        0.000005672609    -0.000002018555    -0.000002605093
       2       -0.000005171032     0.000005491567     0.000000113399
       3       -0.000001258358    -0.000004982587     0.000000456421
       4        0.000708425786     0.001560001032    -0.001461562593
       5       -0.000001555345    -0.000006870801    -0.000001079281
       6        0.000006622727     0.000000664937    -0.000004642493
       7       -0.001442294270    -0.002745606810     0.002074250525
       8       -0.000003469953    -0.000001296388     0.000004972677
       9        0.000000389881     0.000008547711     0.000001428404
      10        0.002633741557     0.003619784599    -0.000744525526
      11       -0.000005426532    -0.000012455295    -0.000002015891
      12       -0.000003842825     0.000006274367     0.000001440082
      13        0.000006039212    -0.000004927918    -0.000007958497
      14       -0.001902409258    -0.002431735453     0.000130491956
      15        0.000001478592     0.000007992212     0.000000344258
      16       -0.000002591248     0.000001307327     0.000005399351
      17       -0.000004527838     0.000003573340     0.000001680185
      18        0.000007566085     0.000006901333    -0.000006768252
      19       -0.000001700187    -0.000001600643     0.000015819399
      20        0.000009674978    -0.000009010184    -0.000003371285
      21       -0.000005364591    -0.000000033791    -0.000001867747

  **** Optimization is complete! (in 7 steps) ****
    Final optimized geometry and variables:
    Molecular point group: c1

    Geometry (in Angstrom), charge = 0, multiplicity = 1:

    H           -4.124092091236     0.899569233138    -0.449319557452
    O           -3.394093946088     0.373012484825    -0.717537793173
    C           -2.291236707385     0.616396253527     0.114823837768
    C           -1.136936333800    -0.248995483324    -0.348235328051
    H           -2.007107383526     1.665916163404     0.073067331538
    H           -2.536320864137     0.384551112625     1.149139157415
    C            0.127010815005    -0.046361565913     0.482071982650
    H           -0.932795546186    -0.022802629043    -1.389567803991
    H           -1.449861040002    -1.288063935296    -0.310682937212
    C            1.272116728393    -0.968162437484     0.056842628653
    H            0.434905888096     0.991157226642     0.394071883222
    H           -0.088098517097    -0.209885531997     1.534974508512
    C            2.651422588885    -0.568976090024     0.582585877671
    H            1.294892873987    -1.044679544548    -1.027338563508
    H            1.045497235729    -1.971466113114     0.407634966633
    C            3.247821825592     0.672335586144    -0.076798175233
    H            3.332666785315    -1.400446637490     0.431290914940
    H            2.595230978928    -0.417042557809     1.657520203086
    H            3.341829083309     0.533663142024    -1.148869930272
    H            2.641593090572     1.554639254380     0.089522156373
    H            4.236597991100     0.879413656166     0.316502305136

  Mulliken Charges: (a.u.)
   Center  Symbol    Alpha    Beta     Spin     Total
       1     H     0.39753  0.39753  0.00000  0.20494
       2     O     4.19445  4.19445  0.00000 -0.38891
       3     C     2.96326  2.96326  0.00000  0.07349
       4     C     3.08490  3.08490  0.00000 -0.16981
       5     H     0.47508  0.47508  0.00000  0.04983
       6     H     0.47464  0.47464  0.00000  0.05073
       7     C     3.10248  3.10248  0.00000 -0.20497
       8     H     0.45067  0.45067  0.00000  0.09866
       9     H     0.45081  0.45081  0.00000  0.09838
      10     C     3.09520  3.09520  0.00000 -0.19041
      11     H     0.45483  0.45483  0.00000  0.09035
      12     H     0.45352  0.45352  0.00000  0.09296
      13     C     3.09002  3.09002  0.00000 -0.18004
      14     H     0.45362  0.45362  0.00000  0.09277
      15     H     0.44878  0.44878  0.00000  0.10244
      16     C     3.14999  3.14999  0.00000 -0.29997
      17     H     0.44814  0.44814  0.00000  0.10373
      18     H     0.45534  0.45534  0.00000  0.08933
      19     H     0.45449  0.45449  0.00000  0.09103
      20     H     0.45502  0.45502  0.00000  0.08996
      21     H     0.44724  0.44724  0.00000  0.10552

   Total alpha = 29.00000, Total beta = 29.00000, Total charge =  0.00000

*** Psi4 exiting successfully. Buy a developer a beer!
