                              Psi4 1.0.54 Driver

  ==> Input File <==

--------------------------------------------------------------------------
set {
	reference rhf
	basis cc-pvtz
}

set_num_threads( 4 )
memory 2 gb

molecule MOL {
0 1

H	 -1.248320	 3.331060	 2.212665
O	 -0.437509	 2.845592	 2.237665
C	 -0.412802	 2.013505	 1.200383
C	 0.851476	 1.198227	 1.169509
O	 -1.300845	 1.951823	 0.422215
C	 0.926581	 0.227233	 0.000178
H	 0.919083	 0.678055	 2.119550
H	 1.681589	 1.897123	 1.156254
C	 2.220156	 -0.582071	 -0.000088
H	 0.074237	 -0.441870	 0.035473
H	 0.837678	 0.778690	 -0.929022
C	 3.466689	 0.296012	 -0.000457
H	 2.239073	 -1.234095	 -0.869382
H	 2.239505	 -1.233985	 0.869270
H	 3.493549	 0.935857	 -0.875887
H	 4.368821	 -0.304526	 -0.001199
H	 3.494559	 0.935166	 0.875458

	symmetry c1
}
set optking {
	frozen_dihedral = ("
		10 6 9 13
	")
}

ee,wfn = optimize('scf', return_wfn=True)
oeprop( wfn, 'DIPOLE', 'QUADRUPOLE', 'MULLIKEN_CHARGES')
f=open( 'psi4out.xyz', 'w' )
f.write( "17  " )
f.write( str(ee) + "\n" )
f.write( MOL.save_string_xyz() )
f.close()
--------------------------------------------------------------------------

    Molecular point group: c1
  Charge       = 0
  Multiplicity = 1
  Basis Set: CC-PVTZ
  Basis Set:
  @DF-RHF Final Energy:  -345.04576779061210
    Total Energy =                       -345.0457677906118761
    Molecular point group: c1
  Basis Set: CC-PVTZ
  Basis Set:
  Basis Set: CC-PVTZ
  Basis Set:
  @DF-RHF Final Energy:  -345.04592626340957
    Total Energy =                       -345.0459262634098536
  Basis Set: CC-PVTZ
  Basis Set:
  Basis Set: CC-PVTZ
  Basis Set:
  @DF-RHF Final Energy:  -345.04675308268872
    Total Energy =                       -345.0467530826887810
  Basis Set: CC-PVTZ
  Basis Set:
  Basis Set: CC-PVTZ
  Basis Set:
  @DF-RHF Final Energy:  -345.04571699716831
    Total Energy =                       -345.0457169971681424
  Basis Set: CC-PVTZ
  Basis Set:
  Basis Set: CC-PVTZ
  Basis Set:
  @DF-RHF Final Energy:  -345.04695194932299
    Total Energy =                       -345.0469519493232724
  Basis Set: CC-PVTZ
  Basis Set:
  Basis Set: CC-PVTZ
  Basis Set:
  @DF-RHF Final Energy:  -345.04698712307504
    Total Energy =                       -345.0469871230749845
  Basis Set: CC-PVTZ
  Basis Set:
  Charge       = 0
  Multiplicity = 1
  Basis Set: CC-PVTZ
  Basis Set:

    Orbital Energies (a.u.)
    -----------------------

    Doubly Occupied:

       1A    -20.603879     2A    -20.540586     3A    -11.373536
       4A    -11.238752     5A    -11.221636     6A    -11.221015
       7A    -11.212963     8A     -1.477498     9A     -1.369025
      10A     -1.092770    11A     -1.016837    12A     -0.920359
      13A     -0.832533    14A     -0.778507    15A     -0.703709
      16A     -0.693407    17A     -0.668314    18A     -0.624976
      19A     -0.609730    20A     -0.583598    21A     -0.563243
      22A     -0.546728    23A     -0.519602    24A     -0.484786
      25A     -0.478140    26A     -0.473856    27A     -0.471796
      28A     -0.447084

  @DF-RHF Final Energy:  -345.04699319317677

   => Energetics <=

    Nuclear Repulsion Energy =            308.2724229437205281
    One-Electron Energy =               -1081.1011067048493715
    Two-Electron Energy =                 427.7816905679521824
    DFT Exchange-Correlation Energy =       0.0000000000000000
    Empirical Dispersion Energy =           0.0000000000000000
    PCM Polarization Energy =               0.0000000000000000
    EFP Energy =                            0.0000000000000000
    Total Energy =                       -345.0469931931766041
    Molecular point group: c1
  Basis Set: CC-PVTZ
  Basis Set:

  -Total Gradient:
     Atom            X                  Y                   Z
    ------   -----------------  -----------------  -----------------
       1       -0.000006931950     0.000005298128     0.000003422392
       2       -0.000058031117     0.000068150543     0.000062716236
       3        0.000036127924    -0.000087146604    -0.000124560257
       4       -0.000005600606    -0.000027386122    -0.000016721646
       5        0.000009818286     0.000048549781     0.000081200310
       6        0.000126712054     0.000362363083    -0.002497686794
       7       -0.000005426056     0.000009884375    -0.000001643288
       8       -0.000002776777     0.000005266550     0.000002497166
       9       -0.001040016840    -0.001682641959     0.001502409039
      10        0.000058989885    -0.000055395694     0.001877847492
      11       -0.000016038776     0.000020584679    -0.000009604192
      12       -0.000036189746    -0.000046925731     0.000030717695
      13        0.000876365120     0.001357019347    -0.000909834527
      14        0.000021515795    -0.000006921821     0.000009524117
      15       -0.000004931518     0.000021199915    -0.000019382100
      16        0.000039392996    -0.000019970899    -0.000016174689
      17        0.000007021328     0.000028072428     0.000025273046

  **** Optimization is complete! (in 7 steps) ****
    Final optimized geometry and variables:
    Molecular point group: c1

    Geometry (in Angstrom), charge = 0, multiplicity = 1:

    H           -2.050554854337     1.993392612237     1.659065709293
    O           -1.214470084127     1.552946763749     1.632652811972
    C           -1.173504944667     0.793989871780     0.540783535459
    C            0.133411303164     0.056851989259     0.424182226560
    O           -2.077655760812     0.737337017691    -0.218938847836
    C            0.219339280378    -0.830668715148    -0.811822500163
    H            0.253888946738    -0.522850556196     1.334220171086
    H            0.915979913546     0.805834741934     0.444226628440
    C            1.491530002823    -1.677371364584    -0.876003625730
    H           -0.641386024284    -1.488023186974    -0.813456903715
    H            0.139476285215    -0.214840420618    -1.700488983308
    C            2.795557431561    -0.881734363362    -0.865382706827
    H            1.458107332632    -2.258214750320    -1.791849840193
    H            1.496514460175    -2.389928892637    -0.055871053555
    H            2.806180226299    -0.139396382319    -1.657229989818
    H            3.644249528619    -1.537971213720    -1.018854760459
    H            2.952936317514    -0.365832286866     0.074510655334

  Mulliken Charges: (a.u.)
   Center  Symbol    Alpha    Beta     Spin     Total
       1     H     0.38234  0.38234  0.00000  0.23532
       2     O     4.16019  4.16019  0.00000 -0.32038
       3     C     2.80451  2.80451  0.00000  0.39098
       4     C     3.11335  3.11335  0.00000 -0.22669
       5     O     4.19090  4.19090  0.00000 -0.38179
       6     C     3.08977  3.08977  0.00000 -0.17954
       7     H     0.43771  0.43771  0.00000  0.12458
       8     H     0.43649  0.43649  0.00000  0.12703
       9     C     3.09351  3.09351  0.00000 -0.18701
      10     H     0.44069  0.44069  0.00000  0.11861
      11     H     0.44514  0.44514  0.00000  0.10971
      12     C     3.15532  3.15532  0.00000 -0.31063
      13     H     0.44582  0.44582  0.00000  0.10836
      14     H     0.45293  0.45293  0.00000  0.09415
      15     H     0.45273  0.45273  0.00000  0.09454
      16     H     0.44450  0.44450  0.00000  0.11100
      17     H     0.45412  0.45412  0.00000  0.09177

   Total alpha = 28.00000, Total beta = 28.00000, Total charge =  0.00000

*** Psi4 exiting successfully. Buy a developer a beer!
