                              Psi4 1.0.54 Driver

  ==> Input File <==

--------------------------------------------------------------------------
set {
	reference rhf
	basis cc-pvtz
}

set_num_threads( 4 )
memory 2 gb

molecule MOL {
0 1

O	 -0.694481	 1.313155	 -0.204815
C	 -0.862519	 0.151932	 -0.046791
C	 -2.171428	 -0.477048	 0.339095
O	 0.085519	 -0.757083	 -0.192238
H	 -2.467997	 -1.191667	 -0.417688
H	 -2.923379	 0.287970	 0.444097
H	 -2.053854	 -1.015120	 1.270901
C	 1.392072	 -0.330814	 -0.560604
C	 2.205669	 0.087600	 0.646413
H	 1.315178	 0.473433	 -1.275510
H	 1.834017	 -1.189495	 -1.043410
H	 3.212831	 0.341170	 0.335320
H	 1.769736	 0.953805	 1.124989
H	 2.264829	 -0.719611	 1.366485

	symmetry c1
}
set optking {
	frozen_dihedral = ("
		8 4 2 1
	")
}

ee,wfn = optimize('scf', return_wfn=True)
oeprop( wfn, 'DIPOLE', 'QUADRUPOLE', 'MULLIKEN_CHARGES')
f=open( 'psi4out.xyz', 'w' )
f.write( "14  " )
f.write( str(ee) + "\n" )
f.write( MOL.save_string_xyz() )
f.close()
--------------------------------------------------------------------------

    Molecular point group: c1
  Charge       = 0
  Multiplicity = 1
  Basis Set: CC-PVTZ
  Basis Set:
  @DF-RHF Final Energy:  -305.99117150551871
    Total Energy =                       -305.9911715055186505
    Molecular point group: c1
  Basis Set: CC-PVTZ
  Basis Set:
  Charge       = 0
  Multiplicity = 1
  Basis Set: CC-PVTZ
  Basis Set:

    Orbital Energies (a.u.)
    -----------------------

    Doubly Occupied:

       1A    -20.594391     2A    -20.533096     3A    -11.368021
       4A    -11.283165     5A    -11.231606     6A    -11.216986
       7A     -1.470589     8A     -1.365806     9A     -1.056082
      10A     -0.999473    11A     -0.883734    12A     -0.767206
      13A     -0.701279    14A     -0.685703    15A     -0.660710
      16A     -0.611850    17A     -0.587386    18A     -0.571142
      19A     -0.560214    20A     -0.529768    21A     -0.519024
      22A     -0.494847    23A     -0.454502    24A     -0.442315

  @DF-RHF Final Energy:  -305.99117155256778

   => Energetics <=

    Nuclear Repulsion Energy =            249.1632077734240625
    One-Electron Energy =                -911.1309696576525994
    Two-Electron Energy =                 355.9765903316606455
    DFT Exchange-Correlation Energy =       0.0000000000000000
    Empirical Dispersion Energy =           0.0000000000000000
    PCM Polarization Energy =               0.0000000000000000
    EFP Energy =                            0.0000000000000000
    Total Energy =                       -305.9911715525679483
    Molecular point group: c1
  Basis Set: CC-PVTZ
  Basis Set:

  -Total Gradient:
     Atom            X                  Y                   Z
    ------   -----------------  -----------------  -----------------
       1       -0.000004960109     0.000001300450    -0.000015011218
       2        0.000026734442    -0.000000378606     0.000062281145
       3       -0.000004091924    -0.000000422755    -0.000020296016
       4       -0.000003185864    -0.000006750554    -0.000023508472
       5       -0.000002138373    -0.000001280035     0.000000142156
       6        0.000002619062     0.000000873097    -0.000001868392
       7        0.000005478689     0.000003295818    -0.000001160195
       8        0.000001147139     0.000002499636     0.000000430197
       9       -0.000024758643     0.000011390466    -0.000000189323
      10        0.000000226105    -0.000002677912    -0.000000831042
      11       -0.000002078574    -0.000001543634     0.000001196626
      12       -0.000002154886    -0.000002973672    -0.000003710139
      13        0.000003763718    -0.000002807783    -0.000000304926
      14        0.000003399218    -0.000000524520     0.000002829598

  **** Optimization is complete! (in 2 steps) ****
    Final optimized geometry and variables:
    Molecular point group: c1

    Geometry (in Angstrom), charge = 0, multiplicity = 1:

    O           -0.694935036962     1.313258470141    -0.205229067684
    C           -0.862586765716     0.152046428960    -0.046772332055
    C           -2.171315402946    -0.477169003966     0.338981925596
    O            0.085627693353    -0.756866217803    -0.191979019185
    H           -2.467526014455    -1.192035073920    -0.417688644416
    H           -2.923469782138     0.287659945813     0.443635335870
    H           -2.053750314116    -1.014953061533     1.270931466442
    C            1.392160832772    -0.330783074366    -0.560654977184
    C            2.205927138672     0.087371521971     0.646343416327
    H            1.315195092769     0.473450492019    -1.275493012311
    H            1.833817551030    -1.189552644982    -1.043550607136
    H            3.213054877943     0.340892809912     0.335204521031
    H            1.770114196503     0.953554077897     1.125075443192
    H            2.265050399491    -0.719926897920     1.366298947655

  Mulliken Charges: (a.u.)
   Center  Symbol    Alpha    Beta     Spin     Total
       1     O     4.19918  4.19918  0.00000 -0.39837
       2     C     2.80177  2.80177  0.00000  0.39647
       3     C     3.13847  3.13847  0.00000 -0.27694
       4     O     4.15735  4.15735  0.00000 -0.31470
       5     H     0.44560  0.44560  0.00000  0.10880
       6     H     0.43828  0.43828  0.00000  0.12344
       7     H     0.44599  0.44599  0.00000  0.10802
       8     C     2.98550  2.98550  0.00000  0.02899
       9     C     3.14820  3.14820  0.00000 -0.29640
      10     H     0.44882  0.44882  0.00000  0.10235
      11     H     0.44471  0.44471  0.00000  0.11058
      12     H     0.45147  0.45147  0.00000  0.09706
      13     H     0.44229  0.44229  0.00000  0.11543
      14     H     0.45237  0.45237  0.00000  0.09525

   Total alpha = 24.00000, Total beta = 24.00000, Total charge = -0.00000

*** Psi4 exiting successfully. Buy a developer a beer!
