                              Psi4 1.0.54 Driver

  ==> Input File <==

--------------------------------------------------------------------------
set {
	reference rhf
	basis cc-pvtz
}

set_num_threads( 4 )
memory 2 gb

molecule MOL {
0 1

H	 -2.469965	 -0.729505	 2.065566
C	 -2.423823	 -1.522815	 1.322994
O	 -1.205231	 -1.526153	 0.657741
H	 -2.529851	 -2.474120	 1.823660
H	 -3.256038	 -1.396527	 0.632810
C	 -0.932893	 -0.359278	 -0.046440
C	 0.452023	 -0.432171	 -0.638927
H	 -1.654965	 -0.227564	 -0.852190
H	 -0.997175	 0.508342	 0.606655
O	 1.401606	 -0.295166	 0.366636
H	 0.571051	 -1.383041	 -1.153815
H	 0.563610	 0.364464	 -1.374382
C	 2.714315	 -0.441627	 -0.061017
H	 2.765292	 -0.641548	 -1.128869
H	 3.305661	 0.447341	 0.150952
H	 3.143725	 -1.278506	 0.470147

	symmetry c1
}
set optking {
	frozen_dihedral = ("
		7 10 13 14
	")
}

ee,wfn = optimize('scf', return_wfn=True)
oeprop( wfn, 'DIPOLE', 'QUADRUPOLE', 'MULLIKEN_CHARGES')
f=open( 'psi4out.xyz', 'w' )
f.write( "16  " )
f.write( str(ee) + "\n" )
f.write( MOL.save_string_xyz() )
f.close()
--------------------------------------------------------------------------

    Molecular point group: c1
  Charge       = 0
  Multiplicity = 1
  Basis Set: CC-PVTZ
  Basis Set:
  @DF-RHF Final Energy:  -307.09376386742690
    Total Energy =                       -307.0937638674271284
    Molecular point group: c1
  Basis Set: CC-PVTZ
  Basis Set:
  Basis Set: CC-PVTZ
  Basis Set:
  @DF-RHF Final Energy:  -307.09415600534652
    Total Energy =                       -307.0941560053465764
  Basis Set: CC-PVTZ
  Basis Set:
  Basis Set: CC-PVTZ
  Basis Set:
  @DF-RHF Final Energy:  -307.09427773483566
    Total Energy =                       -307.0942777348359414
  Basis Set: CC-PVTZ
  Basis Set:
  Charge       = 0
  Multiplicity = 1
  Basis Set: CC-PVTZ
  Basis Set:

    Orbital Energies (a.u.)
    -----------------------

    Doubly Occupied:

       1A    -20.547401     2A    -20.544047     3A    -11.267827
       4A    -11.266549     5A    -11.261313     6A    -11.261057
       7A     -1.389435     8A     -1.371348     9A     -1.031692
      10A     -0.937238    11A     -0.892175    12A     -0.823943
      13A     -0.684819    14A     -0.680958    15A     -0.658639
      16A     -0.636218    17A     -0.630277    18A     -0.597287
      19A     -0.554727    20A     -0.538235    21A     -0.508708
      22A     -0.479031    23A     -0.463816    24A     -0.420856
      25A     -0.410069

  @DF-RHF Final Energy:  -307.09427857993205

   => Energetics <=

    Nuclear Repulsion Energy =            258.6132950687604080
    One-Electron Energy =                -931.6998280472186025
    Two-Electron Energy =                 365.9922543985261427
    DFT Exchange-Correlation Energy =       0.0000000000000000
    Empirical Dispersion Energy =           0.0000000000000000
    PCM Polarization Energy =               0.0000000000000000
    EFP Energy =                            0.0000000000000000
    Total Energy =                       -307.0942785799320518
    Molecular point group: c1
  Basis Set: CC-PVTZ
  Basis Set:

  -Total Gradient:
     Atom            X                  Y                   Z
    ------   -----------------  -----------------  -----------------
       1       -0.000000795633    -0.000001055461    -0.000000529661
       2       -0.000012051543     0.000002597133     0.000005050848
       3        0.000012178207     0.000012584672     0.000014489958
       4        0.000000925939     0.000000827912     0.000000457476
       5        0.000004849912     0.000000654455     0.000000095547
       6       -0.000041052871    -0.000027898356    -0.000064975160
       7       -0.000073440424     0.000115077216    -0.000037607264
       8       -0.000051138984     0.000004544469     0.000000080839
       9        0.000022483731    -0.000032364673    -0.000012025403
      10        0.000181141058    -0.000069794235    -0.000001869499
      11        0.000011158739     0.000010347949     0.000041718506
      12        0.000007225239    -0.000021926458     0.000000289538
      13       -0.000038727450     0.000011636675     0.000063356285
      14       -0.000032942589    -0.000009745123     0.000003003564
      15       -0.000014657454     0.000007220047    -0.000006796352
      16        0.000024844121    -0.000002706224    -0.000004739222

  **** Optimization is complete! (in 4 steps) ****
    Final optimized geometry and variables:
    Molecular point group: c1

    Geometry (in Angstrom), charge = 0, multiplicity = 1:

    H           -2.466753178891     0.042240308159     1.794206434958
    C           -2.424285219153    -0.753126110653     1.053630718340
    O           -1.209144968798    -0.758178388822     0.382210333256
    H           -2.527723167855    -1.703047794136     1.557474555075
    H           -3.260055853394    -0.628832553265     0.367350504813
    C           -0.940501825422     0.406799326056    -0.326524937485
    C            0.442185516335     0.333686009041    -0.924209403364
    H           -1.665612388229     0.535204312927    -1.130276938020
    H           -1.003359688248     1.276199350852     0.324159334431
    O            1.392662956341     0.469316385766     0.082310302129
    H            0.555994115755    -0.616962301762    -1.439065890427
    H            0.548225490320     1.130984151948    -1.659075793529
    C            2.724236986811     0.322993713088    -0.304908058093
    H            2.819131131394     0.119057465006    -1.366517251168
    H            3.273025947492     1.231431950634    -0.083627645187
    H            3.176456565350    -0.497144538535     0.240460189320

  Mulliken Charges: (a.u.)
   Center  Symbol    Alpha    Beta     Spin     Total
       1     H     0.47016  0.47016  0.00000  0.05968
       2     C     3.03200  3.03200  0.00000 -0.06400
       3     O     4.17035  4.17035  0.00000 -0.34070
       4     H     0.44646  0.44646  0.00000  0.10708
       5     H     0.47375  0.47375  0.00000  0.05250
       6     C     2.96361  2.96361  0.00000  0.07279
       7     C     2.95848  2.95848  0.00000  0.08303
       8     H     0.47620  0.47620  0.00000  0.04760
       9     H     0.47119  0.47119  0.00000  0.05762
      10     O     4.17528  4.17528  0.00000 -0.35057
      11     H     0.47051  0.47051  0.00000  0.05898
      12     H     0.47620  0.47620  0.00000  0.04759
      13     C     3.02695  3.02695  0.00000 -0.05390
      14     H     0.47372  0.47372  0.00000  0.05256
      15     H     0.45914  0.45914  0.00000  0.08173
      16     H     0.45599  0.45599  0.00000  0.08802

   Total alpha = 25.00000, Total beta = 25.00000, Total charge =  0.00000

*** Psi4 exiting successfully. Buy a developer a beer!
