                              Psi4 1.0.54 Driver

  ==> Input File <==

--------------------------------------------------------------------------
set {
	reference rhf
	basis cc-pvtz
}

set_num_threads( 4 )
memory 2 gb

molecule MOL {
0 1

H	 -2.171709	 0.882708	 0.500286
C	 -2.016894	 0.001719	 -0.114152
O	 -0.775228	 0.000056	 -0.739966
H	 -2.760846	 0.003757	 -0.898169
H	 -2.174774	 -0.879864	 0.498643
C	 -0.486737	 0.960164	 -1.737085
C	 0.939456	 0.630094	 -2.163595
C	 -1.432918	 0.817093	 -2.930782
C	 -0.544666	 2.379795	 -1.169734
H	 0.990721	 -0.382725	 -2.542636
H	 1.609541	 0.707033	 -1.316736
H	 1.279941	 1.307500	 -2.937650
H	 -1.436839	 -0.206058	 -3.286894
H	 -1.109942	 1.458997	 -3.741668
H	 -2.448923	 1.096349	 -2.681157
H	 0.076787	 2.457124	 -0.285706
H	 -0.182825	 3.089749	 -1.903841
H	 -1.553274	 2.672181	 -0.905557

	symmetry c1
}
set optking {
	frozen_dihedral = ("
		6 3 2 5
	")
}

ee,wfn = optimize('scf', return_wfn=True)
oeprop( wfn, 'DIPOLE', 'QUADRUPOLE', 'MULLIKEN_CHARGES')
f=open( 'psi4out.xyz', 'w' )
f.write( "18  " )
f.write( str(ee) + "\n" )
f.write( MOL.save_string_xyz() )
f.close()
--------------------------------------------------------------------------

    Molecular point group: c1
  Charge       = 0
  Multiplicity = 1
  Basis Set: CC-PVTZ
  Basis Set:
  @DF-RHF Final Energy:  -271.27402808087174
    Total Energy =                       -271.2740280808714601
    Molecular point group: c1
  Basis Set: CC-PVTZ
  Basis Set:
  Basis Set: CC-PVTZ
  Basis Set:
  @DF-RHF Final Energy:  -271.27607495434364
    Total Energy =                       -271.2760749543438124
  Basis Set: CC-PVTZ
  Basis Set:
  Basis Set: CC-PVTZ
  Basis Set:
  @DF-RHF Final Energy:  -271.27665297890769
    Total Energy =                       -271.2766529789074639
  Basis Set: CC-PVTZ
  Basis Set:
  Basis Set: CC-PVTZ
  Basis Set:
  @DF-RHF Final Energy:  -271.27666017159356
    Total Energy =                       -271.2766601715934485
  Basis Set: CC-PVTZ
  Basis Set:
  Basis Set: CC-PVTZ
  Basis Set:
  @DF-RHF Final Energy:  -271.27667726401887
    Total Energy =                       -271.2766772640189288
  Basis Set: CC-PVTZ
  Basis Set:
  Basis Set: CC-PVTZ
  Basis Set:
  @DF-RHF Final Energy:  -271.27668037510580
    Total Energy =                       -271.2766803751059115
  Basis Set: CC-PVTZ
  Basis Set:
  Charge       = 0
  Multiplicity = 1
  Basis Set: CC-PVTZ
  Basis Set:

    Orbital Energies (a.u.)
    -----------------------

    Doubly Occupied:

       1A    -20.540473     2A    -11.280146     3A    -11.258189
       4A    -11.207803     5A    -11.206392     6A    -11.201832
       7A     -1.373535     8A     -1.074593     9A     -0.946973
      10A     -0.940636    11A     -0.913193    12A     -0.753530
      13A     -0.656648    14A     -0.646769    15A     -0.639584
      16A     -0.593350    17A     -0.575371    18A     -0.553312
      19A     -0.534707    20A     -0.525028    21A     -0.515162
      22A     -0.489036    23A     -0.487837    24A     -0.440842
      25A     -0.407251

  @DF-RHF Final Energy:  -271.27668102031123

   => Energetics <=

    Nuclear Repulsion Energy =            272.6919645065896702
    One-Electron Energy =                -908.4129100001010784
    Two-Electron Energy =                 364.4442644732001781
    DFT Exchange-Correlation Energy =       0.0000000000000000
    Empirical Dispersion Energy =           0.0000000000000000
    PCM Polarization Energy =               0.0000000000000000
    EFP Energy =                            0.0000000000000000
    Total Energy =                       -271.2766810203112300
    Molecular point group: c1
  Basis Set: CC-PVTZ
  Basis Set:

  -Total Gradient:
     Atom            X                  Y                   Z
    ------   -----------------  -----------------  -----------------
       1       -0.000002193302    -0.000002749863     0.000007159808
       2        0.000181794972     0.000159375797     0.000352674091
       3        0.000233967908     0.000315662862     0.000401379358
       4       -0.000002721577    -0.000002339488    -0.000007691495
       5       -0.000230153071    -0.000230985217    -0.000425274908
       6       -0.000187750241    -0.000259469228    -0.000316807433
       7        0.000005486832     0.000019133653    -0.000021497317
       8       -0.000016433885    -0.000009456390     0.000024533906
       9       -0.000003770116     0.000017838411    -0.000008929976
      10        0.000000264272     0.000000995040    -0.000002833804
      11       -0.000002437161    -0.000005092455    -0.000000109902
      12        0.000005043295    -0.000000380165     0.000000418011
      13        0.000001258741    -0.000005420384     0.000001471783
      14        0.000010605463    -0.000003648586     0.000009000542
      15       -0.000003334767     0.000007371831    -0.000004874068
      16       -0.000003115553    -0.000012886856     0.000006625070
      17        0.000010884990     0.000010908309    -0.000001294960
      18        0.000002603198     0.000001142729    -0.000013948706

  **** Optimization is complete! (in 7 steps) ****
    Final optimized geometry and variables:
    Molecular point group: c1

    Geometry (in Angstrom), charge = 0, multiplicity = 1:

    H           -1.316726504036     0.025667026541     2.075084297215
    C           -1.268184456516    -0.788550408862     1.359018100789
    O           -0.052793209291    -0.823856426256     0.683833668006
    H           -2.117865431673    -0.709848526765     0.688884121447
    H           -1.354717092009    -1.721595377323     1.897791319768
    C            0.246847865053     0.168982953548    -0.277467611585
    C            1.691025364740    -0.121164164763    -0.671131420284
    C           -0.661612639556     0.031995464228    -1.501102157725
    C            0.140799474002     1.572887806047     0.320194849907
    H            1.775423955182    -1.126509367452    -1.063840093503
    H            2.337510575946    -0.042103413976     0.193693848943
    H            2.035157506490     0.575537184987    -1.426253294273
    H           -0.621914375410    -0.980262573619    -1.884438127936
    H           -0.338425156701     0.707056425983    -2.284710814268
    H           -1.692805069060     0.270732108787    -1.273296203894
    H            0.738335471586     1.646330032115     1.221044930683
    H            0.502734703570     2.307844698347    -0.388667644808
    H           -0.881478397668     1.833045469314     0.565842566863

  Mulliken Charges: (a.u.)
   Center  Symbol    Alpha    Beta     Spin     Total
       1     H     0.46758  0.46758  0.00000  0.06485
       2     C     3.04459  3.04459  0.00000 -0.08919
       3     O     4.19025  4.19025  0.00000 -0.38050
       4     H     0.47039  0.47039  0.00000  0.05922
       5     H     0.44116  0.44116  0.00000  0.11768
       6     C     2.87414  2.87414  0.00000  0.25171
       7     C     3.14154  3.14154  0.00000 -0.28307
       8     C     3.16088  3.16088  0.00000 -0.32177
       9     C     3.16686  3.16686  0.00000 -0.33373
      10     H     0.44841  0.44841  0.00000  0.10317
      11     H     0.44929  0.44929  0.00000  0.10142
      12     H     0.45934  0.45934  0.00000  0.08133
      13     H     0.44585  0.44585  0.00000  0.10830
      14     H     0.44952  0.44952  0.00000  0.10095
      15     H     0.44920  0.44920  0.00000  0.10160
      16     H     0.44498  0.44498  0.00000  0.11004
      17     H     0.44719  0.44719  0.00000  0.10562
      18     H     0.44882  0.44882  0.00000  0.10236

   Total alpha = 25.00000, Total beta = 25.00000, Total charge = -0.00000

*** Psi4 exiting successfully. Buy a developer a beer!
