  ==> Input File <==

--------------------------------------------------------------------------
set {
	reference rhf
	basis 6-31G*
}

set_num_threads( 1 )
memory 2 gb

molecule MOL {
0 1

H	 3.856627	 0.327942	 -0.369657
N	 3.092854	 -0.246221	 -0.068770
C	 1.865559	 0.531981	 0.018834
H	 3.342103	 -0.611187	 0.830955
C	 0.645745	 -0.382037	 -0.029944
H	 1.841966	 1.207024	 -0.831236
H	 1.815756	 1.155410	 0.915079
C	 -0.679275	 0.379305	 0.025956
H	 0.698998	 -0.976915	 -0.937203
H	 0.693479	 -1.083846	 0.802235
C	 -1.903357	 -0.536963	 -0.023547
H	 -0.726309	 1.082987	 -0.803784
H	 -0.717680	 0.977832	 0.934877
C	 -3.225172	 0.228290	 0.028445
H	 -1.867824	 -1.134999	 -0.931459
H	 -1.860449	 -1.239604	 0.805977
H	 -3.313397	 0.915643	 -0.808262
H	 -4.073500	 -0.448134	 -0.008893
H	 -3.306061	 0.809945	 0.942516

	symmetry c1
}
set optking {
	frozen_dihedral = ("
		6 3 5 9,
		12 8 5 9,
		12 8 11 15
	")
}

ee = energy('scf')
oeprop('DIPOLE', 'QUADRUPOLE', 'MULLIKEN_CHARGES')
f=open( 'psi4out.xyz', 'w' )
f.write( "19  " )
f.write( str(ee) + "\n" )
f.write( MOL.save_string_xyz() )
f.close()
--------------------------------------------------------------------------

    Molecular point group: c1

    Geometry (in Angstrom), charge = 0, multiplicity = 1:

       Center              X                  Y                   Z               Mass
    ------------   -----------------  -----------------  -----------------  -----------------
           H          3.855400031387     0.325773990142    -0.367582672023     1.007825032070
           N          3.091627031387    -0.248389009858    -0.066695672023    14.003074004780
           C          1.864332031387     0.529812990142     0.020908327977    12.000000000000
           H          3.340876031387    -0.613355009858     0.833029327977     1.007825032070
           C          0.644518031387    -0.384205009858    -0.027869672023    12.000000000000
           H          1.840739031387     1.204855990142    -0.829161672023     1.007825032070
           H          1.814529031387     1.153241990142     0.917153327977     1.007825032070
           C         -0.680501968613     0.377136990142     0.028030327977    12.000000000000
           H          0.697771031387    -0.979083009858    -0.935128672023     1.007825032070
           H          0.692252031387    -1.086014009858     0.804309327977     1.007825032070
           C         -1.904583968613    -0.539131009858    -0.021472672023    12.000000000000
           H         -0.727535968613     1.080818990142    -0.801709672023     1.007825032070
           H         -0.718906968613     0.975663990142     0.936951327977     1.007825032070
           C         -3.226398968613     0.226121990142     0.030519327977    12.000000000000
           H         -1.869050968613    -1.137167009858    -0.929384672023     1.007825032070
           H         -1.861675968613    -1.241772009858     0.808051327977     1.007825032070
           H         -3.314623968613     0.913474990142    -0.806187672023     1.007825032070
           H         -4.074726968613    -0.450302009858    -0.006818672023     1.007825032070
           H         -3.307287968613     0.807776990142     0.944590327977     1.007825032070

  Charge       = 0
  Multiplicity = 1
  Basis Set: 6-31G*
  Basis Set:

    Orbital Energies (a.u.)
    -----------------------

    Doubly Occupied:

       1A    -15.532739     2A    -11.239983     3A    -11.212726
       4A    -11.210992     5A    -11.206615     6A    -11.206132
       7A     -1.176552     8A     -1.071615     9A     -0.997342
      10A     -0.899582    11A     -0.811188    12A     -0.787034
      13A     -0.670404    14A     -0.638041    15A     -0.616202
      16A     -0.584261    17A     -0.565422    18A     -0.550621
      19A     -0.524425    20A     -0.500524    21A     -0.476613
      22A     -0.463302    23A     -0.459202    24A     -0.451787
      25A     -0.380422

  @DF-RHF Final Energy:  -251.35102352231675

   => Energetics <=

    Nuclear Repulsion Energy =            245.5395156602974964
    One-Electron Energy =                -825.3135233101772883
    Two-Electron Energy =                 328.4229841275633248
    DFT Exchange-Correlation Energy =       0.0000000000000000
    Empirical Dispersion Energy =           0.0000000000000000
    PCM Polarization Energy =               0.0000000000000000
    EFP Energy =                            0.0000000000000000
    Total Energy =                       -251.3510235223164386

  Mulliken Charges: (a.u.)
   Center  Symbol    Alpha    Beta     Spin     Total
       1     H     0.33195  0.33195  0.00000  0.33610
       2     N     3.92191  3.92191  0.00000 -0.84382
       3     C     3.06488  3.06488  0.00000 -0.12976
       4     H     0.33440  0.33440  0.00000  0.33119
       5     C     3.14543  3.14543  0.00000 -0.29085
       6     H     0.42214  0.42214  0.00000  0.15572
       7     H     0.43296  0.43296  0.00000  0.13408
       8     C     3.15574  3.15574  0.00000 -0.31149
       9     H     0.41454  0.41454  0.00000  0.17093
      10     H     0.42681  0.42681  0.00000  0.14638
      11     C     3.15054  3.15054  0.00000 -0.30109
      12     H     0.42463  0.42463  0.00000  0.15073
      13     H     0.42552  0.42552  0.00000  0.14896
      14     C     3.23918  3.23918  0.00000 -0.47835
      15     H     0.42207  0.42207  0.00000  0.15586
      16     H     0.42324  0.42324  0.00000  0.15353
      17     H     0.42205  0.42205  0.00000  0.15590
      18     H     0.41957  0.41957  0.00000  0.16085
      19     H     0.42244  0.42244  0.00000  0.15512

   Total alpha = 25.00000, Total beta = 25.00000, Total charge = -0.00000
