                              Psi4 1.0.54 Driver

  ==> Input File <==

--------------------------------------------------------------------------
set {
	reference rhf
	basis cc-pvtz
}

set_num_threads( 4 )
memory 2 gb

molecule MOL {
0 1

H	 -3.144994	 -1.202467	 -0.018751
O	 -2.321472	 -0.864941	 -0.318626
C	 -2.021813	 0.336996	 0.342658
C	 -0.669613	 0.837286	 -0.127252
H	 -2.780861	 1.084746	 0.127159
H	 -2.006390	 0.184138	 1.420053
C	 0.490865	 -0.082543	 0.241244
H	 -0.708709	 0.967192	 -1.204587
H	 -0.507562	 1.822272	 0.303070
C	 1.839800	 0.429565	 -0.255472
H	 0.305636	 -1.070211	 -0.165276
H	 0.527397	 -0.195943	 1.322876
C	 3.023867	 -0.286573	 0.385556
H	 1.891200	 0.313458	 -1.334629
H	 1.916286	 1.496257	 -0.060514
H	 2.994733	 -1.351088	 0.178492
H	 3.965943	 0.097743	 0.011257
H	 3.020546	 -0.160985	 1.463360

	symmetry c1
}
set optking {
	frozen_dihedral = ("
		14 10 7 11
	")
}

ee,wfn = optimize('scf', return_wfn=True)
oeprop( wfn, 'DIPOLE', 'QUADRUPOLE', 'MULLIKEN_CHARGES')
f=open( 'psi4out.xyz', 'w' )
f.write( "18  " )
f.write( str(ee) + "\n" )
f.write( MOL.save_string_xyz() )
f.close()
--------------------------------------------------------------------------

    Molecular point group: c1
  Charge       = 0
  Multiplicity = 1
  Basis Set: CC-PVTZ
  Basis Set:
  @DF-RHF Final Energy:  -271.28620795988240
    Total Energy =                       -271.2862079598825176
    Molecular point group: c1
  Basis Set: CC-PVTZ
  Basis Set:
  Basis Set: CC-PVTZ
  Basis Set:
  @DF-RHF Final Energy:  -271.28628614363140
    Total Energy =                       -271.2862861436315143
  Basis Set: CC-PVTZ
  Basis Set:
  Basis Set: CC-PVTZ
  Basis Set:
  @DF-RHF Final Energy:  -271.28632375279653
    Total Energy =                       -271.2863237527963634
  Basis Set: CC-PVTZ
  Basis Set:
  Charge       = 0
  Multiplicity = 1
  Basis Set: CC-PVTZ
  Basis Set:

    Orbital Energies (a.u.)
    -----------------------

    Doubly Occupied:

       1A    -20.546320     2A    -11.265891     3A    -11.210314
       4A    -11.209091     5A    -11.204941     6A    -11.202805
       7A     -1.364172     8A     -1.076328     9A     -1.010099
      10A     -0.914312    11A     -0.818252    12A     -0.784510
      13A     -0.708604    14A     -0.642295    15A     -0.627954
      16A     -0.583854    17A     -0.572552    18A     -0.557795
      19A     -0.524750    20A     -0.501471    21A     -0.489559
      22A     -0.468058    23A     -0.459577    24A     -0.449496
      25A     -0.430858

  @DF-RHF Final Energy:  -271.28632392879388

   => Energetics <=

    Nuclear Repulsion Energy =            249.2541081740076550
    One-Electron Energy =                -861.8331480979697972
    Two-Electron Energy =                 341.2927159951683507
    DFT Exchange-Correlation Energy =       0.0000000000000000
    Empirical Dispersion Energy =           0.0000000000000000
    PCM Polarization Energy =               0.0000000000000000
    EFP Energy =                            0.0000000000000000
    Total Energy =                       -271.2863239287937631
    Molecular point group: c1
  Basis Set: CC-PVTZ
  Basis Set:

  -Total Gradient:
     Atom            X                  Y                   Z
    ------   -----------------  -----------------  -----------------
       1       -0.000001383949    -0.000009645301    -0.000006689132
       2       -0.000004094700    -0.000024524817     0.000023119987
       3       -0.000023725658     0.000032492863    -0.000052516863
       4        0.000019790053    -0.000002081553     0.000061558418
       5       -0.000008743253     0.000002246142     0.000008949675
       6        0.000008306951    -0.000004941557    -0.000012531427
       7        0.001668643941    -0.001745877815     0.002570052603
       8       -0.000009901014    -0.000005486595     0.000014445755
       9        0.000002323890     0.000012887797    -0.000002382391
      10       -0.001495545036     0.003061418668    -0.000881777237
      11       -0.001164488770     0.000993209669    -0.002035847576
      12       -0.000005283259     0.000003523110    -0.000011723603
      13        0.000005789384     0.000012774986    -0.000002063623
      14        0.001003018775    -0.002309613136     0.000326753884
      15       -0.000004741759    -0.000012246106    -0.000000482523
      16        0.000004464527     0.000013264738     0.000004428753
      17       -0.000001177611    -0.000010768382     0.000011780479
      18        0.000006747489    -0.000006632715    -0.000015075178

  **** Optimization is complete! (in 4 steps) ****
    Final optimized geometry and variables:
    Molecular point group: c1

    Geometry (in Angstrom), charge = 0, multiplicity = 1:

    H           -3.123589411207    -1.280679153827    -0.104906748311
    O           -2.300440858555    -0.929009653386    -0.388883401549
    C           -2.036491504181     0.280448053218     0.274070175132
    C           -0.683297504244     0.802984712301    -0.168017164655
    H           -2.803908434386     1.013749056953     0.039478149205
    H           -2.041728004786     0.131400701440     1.352121715520
    C            0.486295372870    -0.092456043465     0.234628401779
    H           -0.699820921258     0.923531812112    -1.247172080505
    H           -0.549731519519     1.794182931277     0.257451612512
    C            1.829064637253     0.417412560577    -0.285378495679
    H            0.304424782856    -1.087801760425    -0.153420607792
    H            0.519431196939    -0.171197520365     1.318735190116
    C            3.020157222168    -0.305390974125     0.337460962179
    H            1.866953958542     0.280676184874    -1.362265675717
    H            1.917724986667     1.483918411209    -0.098484977862
    H            2.965652067107    -1.373901679958     0.156831994077
    H            3.957187718001     0.051819819552    -0.074547794404
    H            3.052041550419    -0.154853335693     1.411468793977

  Mulliken Charges: (a.u.)
   Center  Symbol    Alpha    Beta     Spin     Total
       1     H     0.39563  0.39563  0.00000  0.20873
       2     O     4.19894  4.19894  0.00000 -0.39789
       3     C     2.97370  2.97370  0.00000  0.05260
       4     C     3.09083  3.09083  0.00000 -0.18167
       5     H     0.46520  0.46520  0.00000  0.06960
       6     H     0.47369  0.47369  0.00000  0.05262
       7     C     3.08753  3.08753  0.00000 -0.17506
       8     H     0.45234  0.45234  0.00000  0.09531
       9     H     0.45437  0.45437  0.00000  0.09126
      10     C     3.08385  3.08385  0.00000 -0.16770
      11     H     0.44394  0.44394  0.00000  0.11212
      12     H     0.45976  0.45976  0.00000  0.08049
      13     C     3.14963  3.14963  0.00000 -0.29925
      14     H     0.45313  0.45313  0.00000  0.09375
      15     H     0.45712  0.45712  0.00000  0.08577
      16     H     0.45452  0.45452  0.00000  0.09097
      17     H     0.44950  0.44950  0.00000  0.10099
      18     H     0.45633  0.45633  0.00000  0.08734

   Total alpha = 25.00000, Total beta = 25.00000, Total charge =  0.00000

*** Psi4 exiting successfully. Buy a developer a beer!
