                              Psi4 1.0.54 Driver

  ==> Input File <==

--------------------------------------------------------------------------
set {
	reference rhf
	basis cc-pvtz
}

set_num_threads( 4 )
memory 2 gb

molecule MOL {
0 1

H	 1.128311	 0.207724	 1.465118
C	 1.134565	 0.093781	 0.372499
C	 0.062554	 0.862911	 -0.350953
O	 1.948932	 -0.587720	 -0.146651
C	 0.213370	 0.793906	 -1.873814
H	 0.073333	 1.885553	 0.003422
H	 -0.888072	 0.418309	 -0.065098
C	 1.455311	 1.512008	 -2.393971
H	 -0.670996	 1.227875	 -2.325635
H	 0.233368	 -0.246345	 -2.186742
H	 1.437552	 2.562231	 -2.125138
H	 1.514957	 1.444885	 -3.473591
H	 2.365516	 1.086096	 -1.986341

	symmetry c1
}
set optking {
	frozen_dihedral = ("
		6 3 2 4
	")
}

ee,wfn = optimize('scf', return_wfn=True)
oeprop( wfn, 'DIPOLE', 'QUADRUPOLE', 'MULLIKEN_CHARGES')
f=open( 'psi4out.xyz', 'w' )
f.write( "13  " )
f.write( str(ee) + "\n" )
f.write( MOL.save_string_xyz() )
f.close()
--------------------------------------------------------------------------

    Molecular point group: c1
  Charge       = 0
  Multiplicity = 1
  Basis Set: CC-PVTZ
  Basis Set:
  @DF-RHF Final Energy:  -231.07055679345882
    Total Energy =                       -231.0705567934588771
    Molecular point group: c1
  Basis Set: CC-PVTZ
  Basis Set:
  Basis Set: CC-PVTZ
  Basis Set:
  @DF-RHF Final Energy:  -231.07111931690855
    Total Energy =                       -231.0711193169084936
  Basis Set: CC-PVTZ
  Basis Set:
  Basis Set: CC-PVTZ
  Basis Set:
  @DF-RHF Final Energy:  -231.07113092925806
    Total Energy =                       -231.0711309292578335
  Basis Set: CC-PVTZ
  Basis Set:
  Basis Set: CC-PVTZ
  Basis Set:
  @DF-RHF Final Energy:  -231.07055945341489
    Total Energy =                       -231.0705594534148588
  Basis Set: CC-PVTZ
  Basis Set:
  Basis Set: CC-PVTZ
  Basis Set:
  @DF-RHF Final Energy:  -231.07164320086204
    Total Energy =                       -231.0716432008620700
  Basis Set: CC-PVTZ
  Basis Set:
  Basis Set: CC-PVTZ
  Basis Set:
  @DF-RHF Final Energy:  -231.07166246877887
    Total Energy =                       -231.0716624687788112
  Basis Set: CC-PVTZ
  Basis Set:
  Basis Set: CC-PVTZ
  Basis Set:
  @DF-RHF Final Energy:  -231.07166432791993
    Total Energy =                       -231.0716643279199332
  Basis Set: CC-PVTZ
  Basis Set:
  Charge       = 0
  Multiplicity = 1
  Basis Set: CC-PVTZ
  Basis Set:

    Orbital Energies (a.u.)
    -----------------------

    Doubly Occupied:

       1A    -20.553587     2A    -11.323868     3A    -11.237240
       4A    -11.223799     5A    -11.208395     6A     -1.409297
       7A     -1.079276     8A     -0.974049     9A     -0.851028
      10A     -0.766071    11A     -0.688743    12A     -0.642887
      13A     -0.625508    14A     -0.584966    15A     -0.566669
      16A     -0.524410    17A     -0.497068    18A     -0.484657
      19A     -0.483251    20A     -0.414135

  @DF-RHF Final Energy:  -231.07166454017161

   => Energetics <=

    Nuclear Repulsion Energy =            176.5076439271279867
    One-Electron Energy =                -662.8808095228780530
    Two-Electron Energy =                 255.3015010555783988
    DFT Exchange-Correlation Energy =       0.0000000000000000
    Empirical Dispersion Energy =           0.0000000000000000
    PCM Polarization Energy =               0.0000000000000000
    EFP Energy =                            0.0000000000000000
    Total Energy =                       -231.0716645401716391
    Molecular point group: c1
  Basis Set: CC-PVTZ
  Basis Set:

  -Total Gradient:
     Atom            X                  Y                   Z
    ------   -----------------  -----------------  -----------------
       1       -0.000002574574    -0.000017908999    -0.000012166218
       2       -0.000084504753    -0.000102361365     0.000008013861
       3       -0.000062068016     0.000022167462     0.000084450305
       4        0.000110517483     0.000063364616    -0.000003834281
       5       -0.000024756950    -0.000009102184     0.000010931702
       6        0.000066578895     0.000033181761    -0.000083715637
       7       -0.000019637071     0.000006695284    -0.000000788959
       8       -0.000006093892     0.000022172991    -0.000024565128
       9        0.000007438400     0.000003236940     0.000007475529
      10       -0.000002069580    -0.000008513626    -0.000008696526
      11        0.000005558637    -0.000012248450    -0.000001612311
      12        0.000003738390    -0.000002247880     0.000019832486
      13        0.000007873033     0.000001563450     0.000004675176

  **** Optimization is complete! (in 7 steps) ****
    Final optimized geometry and variables:
    Molecular point group: c1

    Geometry (in Angstrom), charge = 0, multiplicity = 1:

    H            0.101984418158    -0.223118798769     2.387438066273
    C            0.162061693705    -0.391855606295     1.305007956605
    C           -0.882730221342     0.335679377457     0.501028192880
    O            0.989474062119    -1.111850833932     0.863622391115
    C           -0.762272533349     0.195853327567    -1.012837477551
    H           -0.857915801612     1.380129510392     0.805098032106
    H           -1.841697519762    -0.042877089140     0.850706327528
    C            0.404035286437     0.978230848364    -1.610106958012
    H           -1.689219773830     0.539448897252    -1.459631492884
    H           -0.663309169778    -0.853268049329    -1.263602801065
    H            0.309610989187     2.039029837227    -1.399628464391
    H            0.432402302339     0.858792881374    -2.686688814352
    H            1.350819369239     0.637003985581    -1.213217902907

  Mulliken Charges: (a.u.)
   Center  Symbol    Alpha    Beta     Spin     Total
       1     H     0.45093  0.45093  0.00000  0.09813
       2     C     2.91830  2.91830  0.00000  0.16341
       3     C     3.09775  3.09775  0.00000 -0.19550
       4     O     4.16724  4.16724  0.00000 -0.33448
       5     C     3.08432  3.08432  0.00000 -0.16864
       6     H     0.44738  0.44738  0.00000  0.10525
       7     H     0.43940  0.43940  0.00000  0.12120
       8     C     3.15138  3.15138  0.00000 -0.30277
       9     H     0.44739  0.44739  0.00000  0.10522
      10     H     0.44640  0.44640  0.00000  0.10720
      11     H     0.45860  0.45860  0.00000  0.08280
      12     H     0.44776  0.44776  0.00000  0.10447
      13     H     0.44314  0.44314  0.00000  0.11371

   Total alpha = 20.00000, Total beta = 20.00000, Total charge = -0.00000

*** Psi4 exiting successfully. Buy a developer a beer!
