  ==> Input File <==

--------------------------------------------------------------------------
set {
	reference rhf
	basis 6-31G*
}

set_num_threads( 1 )
memory 2 gb

molecule MOL {
0 1

H	 -2.499100	 -0.730091	 -0.745082
O	 -2.347518	 -0.290803	 0.079804
C	 -1.184022	 0.487508	 -0.006784
C	 0.062599	 -0.378592	 0.031606
H	 -1.176523	 1.099369	 -0.904519
H	 -1.187323	 1.153111	 0.844927
O	 1.171513	 0.459272	 -0.058250
H	 0.050699	 -1.089204	 -0.797170
H	 0.078739	 -0.954914	 0.954740
C	 0.978686	 1.731301	 0.474576
H	 0.740936	 1.686327	 1.535746
H	 1.899506	 2.282838	 0.344959
H	 0.176143	 2.258664	 -0.036897

	symmetry c1
}
set optking {
	frozen_dihedral = ("
		8 4 3 5,
		1 2 3 5,
		4 7 10 13
	")
}

ee = energy('scf')
oeprop('DIPOLE', 'QUADRUPOLE', 'MULLIKEN_CHARGES')
f=open( 'psi4out.xyz', 'w' )
f.write( "13  " )
f.write( str(ee) + "\n" )
f.write( MOL.save_string_xyz() )
f.close()
--------------------------------------------------------------------------

    Molecular point group: c1

    Geometry (in Angstrom), charge = 0, multiplicity = 1:

       Center              X                  Y                   Z               Mass
    ------------   -----------------  -----------------  -----------------  -----------------
           H         -2.203844914791    -1.131498317149    -0.844271449790     1.007825032070
           O         -2.052262914791    -0.692210317149    -0.019385449790    15.994914619560
           C         -0.888766914791     0.086100682851    -0.105973449790    12.000000000000
           C          0.357854085209    -0.779999317149    -0.067583449790    12.000000000000
           H         -0.881267914791     0.697961682851    -1.003708449790     1.007825032070
           H         -0.892067914791     0.751703682851     0.745737550210     1.007825032070
           O          1.466768085209     0.057864682851    -0.157439449790    15.994914619560
           H          0.345954085209    -1.490611317149    -0.896359449790     1.007825032070
           H          0.373994085209    -1.356321317149     0.855550550210     1.007825032070
           C          1.273941085209     1.329893682851     0.375386550210    12.000000000000
           H          1.036191085209     1.284919682851     1.436556550210     1.007825032070
           H          2.194761085209     1.881430682851     0.245769550210     1.007825032070
           H          0.471398085209     1.857256682851    -0.136086449790     1.007825032070

  Charge       = 0
  Multiplicity = 1
  Basis Set: 6-31G*
  Basis Set:

    Orbital Energies (a.u.)
    -----------------------

    Doubly Occupied:

       1A    -20.562887     2A    -20.559532     3A    -11.273359
       4A    -11.271799     5A    -11.269574     6A     -1.391273
       7A     -1.367673     8A     -1.009914     9A     -0.950786
      10A     -0.823532    11A     -0.720621    12A     -0.687012
      13A     -0.657849    14A     -0.636029    15A     -0.591590
      16A     -0.559363    17A     -0.549470    18A     -0.526722
      19A     -0.485545    20A     -0.435977    21A     -0.406891

  @DF-RHF Final Energy:  -267.92979786776903

   => Energetics <=

    Nuclear Repulsion Energy =            196.6171413429619577
    One-Electron Energy =                -755.6189750182804801
    Two-Electron Energy =                 291.0720358075498098
    DFT Exchange-Correlation Energy =       0.0000000000000000
    Empirical Dispersion Energy =           0.0000000000000000
    PCM Polarization Energy =               0.0000000000000000
    EFP Energy =                            0.0000000000000000
    Total Energy =                       -267.9297978677686842

  Mulliken Charges: (a.u.)
   Center  Symbol    Alpha    Beta     Spin     Total
       1     H     0.28111  0.28111  0.00000  0.43778
       2     O     4.37426  4.37426  0.00000 -0.74853
       3     C     3.02277  3.02277  0.00000 -0.04554
       4     C     2.98996  2.98996  0.00000  0.02009
       5     H     0.42104  0.42104  0.00000  0.15792
       6     H     0.40856  0.40856  0.00000  0.18289
       7     O     4.30703  4.30703  0.00000 -0.61406
       8     H     0.42285  0.42285  0.00000  0.15430
       9     H     0.42070  0.42070  0.00000  0.15859
      10     C     3.09488  3.09488  0.00000 -0.18976
      11     H     0.42534  0.42534  0.00000  0.14933
      12     H     0.40747  0.40747  0.00000  0.18506
      13     H     0.42403  0.42403  0.00000  0.15194

   Total alpha = 21.00000, Total beta = 21.00000, Total charge =  0.00000
