                              Psi4 1.0.54 Driver

  ==> Input File <==

--------------------------------------------------------------------------
set {
	reference rhf
	basis cc-pvtz
}

set_num_threads( 4 )
memory 2 gb

molecule MOL {
0 1

H	 -2.644180	 -0.653737	 1.272255
C	 -2.092774	 -0.380414	 0.391915
O	 -0.808934	 -0.154049	 0.752536
F	 -2.163230	 -1.351640	 -0.507133
F	 -2.627232	 0.691260	 -0.169301
C	 0.085006	 0.250800	 -0.215074
C	 -0.537160	 1.439596	 -0.943737
Cl	 0.423708	 -1.057756	 -1.363333
H	 1.026645	 0.567170	 0.198293
F	 0.272632	 1.883307	 -1.871303
F	 -0.737434	 2.410194	 -0.084002
F	 -1.680759	 1.138792	 -1.495052

	symmetry c1
}
set optking {
	frozen_dihedral = ("
		9 6 3 2
	")
}

ee,wfn = optimize('scf', return_wfn=True)
oeprop( wfn, 'DIPOLE', 'QUADRUPOLE', 'MULLIKEN_CHARGES')
f=open( 'psi4out.xyz', 'w' )
f.write( "12  " )
f.write( str(ee) + "\n" )
f.write( MOL.save_string_xyz() )
f.close()
--------------------------------------------------------------------------

    Molecular point group: c1
  Charge       = 0
  Multiplicity = 1
  Basis Set: CC-PVTZ
  Basis Set:
  @DF-RHF Final Energy: -1146.50256085055571
    Total Energy =                      -1146.5025608505557102
    Molecular point group: c1
  Basis Set: CC-PVTZ
  Basis Set:
  Basis Set: CC-PVTZ
  Basis Set:
  @DF-RHF Final Energy: -1146.56469417856624
    Total Energy =                      -1146.5646941785662420
  Basis Set: CC-PVTZ
  Basis Set:
  Basis Set: CC-PVTZ
  Basis Set:
  @DF-RHF Final Energy: -1146.58568061058008
    Total Energy =                      -1146.5856806105798569
  Basis Set: CC-PVTZ
  Basis Set:
  Basis Set: CC-PVTZ
  Basis Set:
  @DF-RHF Final Energy: -1146.59904167666946
    Total Energy =                      -1146.5990416766690032
  Basis Set: CC-PVTZ
  Basis Set:
  @DF-RHF Final Energy: -1146.60570065650768
    Total Energy =                      -1146.6057006565074516
  @DF-RHF Final Energy: -1146.60894208075342
    Total Energy =                      -1146.6089420807534225
  @DF-RHF Final Energy: -1146.61032511393068
    Total Energy =                      -1146.6103251139311396
  @DF-RHF Final Energy: -1146.61075150209581
    Total Energy =                      -1146.6107515020967185
  @DF-RHF Final Energy: -1146.61088442563255
    Total Energy =                      -1146.6108844256323209
  @DF-RHF Final Energy: -1146.61090533484003
    Total Energy =                      -1146.6109053348404814
  @DF-RHF Final Energy: -1146.61091574802936
    Total Energy =                      -1146.6109157480289014
  @DF-RHF Final Energy: -1146.61092588613951
    Total Energy =                      -1146.6109258861399667
  @DF-RHF Final Energy: -1146.61093435869725
    Total Energy =                      -1146.6109343586972500
  @DF-RHF Final Energy: -1146.61093926502554
    Total Energy =                      -1146.6109392650246264
  Basis Set: CC-PVTZ
  Basis Set:
  @DF-RHF Final Energy: -1146.61094290244773
    Total Energy =                      -1146.6109429024477322
  Basis Set: CC-PVTZ
  Basis Set:
  Basis Set: CC-PVTZ
  Basis Set:
  @DF-RHF Final Energy: -1146.61094419576284
    Total Energy =                      -1146.6109441957630679
  Basis Set: CC-PVTZ
  Basis Set:
  Basis Set: CC-PVTZ
  Basis Set:
  @DF-RHF Final Energy: -1146.61094519740891
    Total Energy =                      -1146.6109451974089097
  Basis Set: CC-PVTZ
  Basis Set:
  Charge       = 0
  Multiplicity = 1
  Basis Set: CC-PVTZ
  Basis Set:

    Orbital Energies (a.u.)
    -----------------------

    Doubly Occupied:

       1A   -104.855152     2A    -26.354272     3A    -26.353846
       4A    -26.353807     5A    -26.338212     6A    -26.334605
       7A    -20.638550     8A    -11.521499     9A    -11.480406
      10A    -11.402747    11A    -10.580717    12A     -8.047514
      13A     -8.045534    14A     -8.045441    15A     -1.768445
      16A     -1.719043    17A     -1.663134    18A     -1.661513
      19A     -1.639871    20A     -1.479275    21A     -1.175795
      22A     -1.049943    23A     -0.998681    24A     -0.921522
      25A     -0.864238    26A     -0.857637    27A     -0.852105
      28A     -0.835121    29A     -0.814972    30A     -0.754791
      31A     -0.737311    32A     -0.733450    33A     -0.707568
      34A     -0.702950    35A     -0.685662    36A     -0.679637
      37A     -0.668167    38A     -0.664697    39A     -0.658675
      40A     -0.639966    41A     -0.592768    42A     -0.563225
      43A     -0.522113    44A     -0.477674    45A     -0.466893

  @DF-RHF Final Energy: -1146.61094601837613

   => Energetics <=

    Nuclear Repulsion Energy =            759.5774073364317474
    One-Electron Energy =               -3102.5584269570545075
    Two-Electron Energy =                1196.3700736022467481
    DFT Exchange-Correlation Energy =       0.0000000000000000
    Empirical Dispersion Energy =           0.0000000000000000
    PCM Polarization Energy =               0.0000000000000000
    EFP Energy =                            0.0000000000000000
    Total Energy =                      -1146.6109460183758983
    Molecular point group: c1
  Basis Set: CC-PVTZ
  Basis Set:

  -Total Gradient:
     Atom            X                  Y                   Z
    ------   -----------------  -----------------  -----------------
       1       -0.000004948295     0.000007643942     0.000000386765
       2       -0.000087376397     0.000144700562     0.000023708605
       3        0.000132861559    -0.000198999770    -0.000092159025
       4       -0.000049981935    -0.000018360131     0.000035454143
       5        0.000019862664     0.000004301108     0.000013630976
       6        0.000044032594    -0.000110189027     0.000063797012
       7        0.000013345773     0.000014068431     0.000044127427
       8        0.000039769005    -0.000005321636    -0.000031533725
       9       -0.000089293428     0.000169934224     0.000014854057
      10       -0.000010177711    -0.000000508471    -0.000006095601
      11       -0.000022080125    -0.000041058031    -0.000016072403
      12        0.000013986200     0.000033788778    -0.000050098251

  **** Optimization is complete! (in 18 steps) ****
    Final optimized geometry and variables:
    Molecular point group: c1

    Geometry (in Angstrom), charge = 0, multiplicity = 1:

    H           -1.377408914806    -1.695817811758     2.023978845533
    C           -1.153486252166    -1.083789041097     1.169108480647
    O            0.116545368233    -0.626165968141     1.333817585595
    F           -1.293422713990    -1.784488111551     0.062397742566
    F           -2.013550566072    -0.082500615646     1.108993449196
    C            0.900606766589    -0.034069281876     0.368475918463
    C            0.275915173555     1.164310064114    -0.356867107781
    CL           1.544253914055    -1.191732353915    -0.818238452012
    H            1.751509211447     0.351468630571     0.899042018451
    F            1.207657188934     1.770596861839    -1.051646240051
    F           -0.180971138298     2.016214354695     0.528391541886
    F           -0.694614191034     0.842853487303    -1.165861035415

  Mulliken Charges: (a.u.)
   Center  Symbol    Alpha    Beta     Spin     Total
       1     H     0.44828  0.44828  0.00000  0.10344
       2     C     2.74267  2.74267  0.00000  0.51467
       3     O     4.16134  4.16134  0.00000 -0.32267
       4     F     4.61161  4.61161  0.00000 -0.22321
       5     F     4.61479  4.61479  0.00000 -0.22958
       6     C     2.94827  2.94827  0.00000  0.10347
       7     C     2.67687  2.67687  0.00000  0.64627
       8    CL     8.57200  8.57200  0.00000 -0.14400
       9     H     0.41751  0.41751  0.00000  0.16499
      10     F     4.60279  4.60279  0.00000 -0.20558
      11     F     4.60458  4.60458  0.00000 -0.20915
      12     F     4.59931  4.59931  0.00000 -0.19862

   Total alpha = 45.00000, Total beta = 45.00000, Total charge =  0.00000

*** Psi4 exiting successfully. Buy a developer a beer!
