  ==> Input File <==

--------------------------------------------------------------------------
set {
	reference rhf
	basis 6-31G*
}

set_num_threads( 4 )
memory 2 gb

molecule MOL {
0 1

H	 -3.650283	 0.221984	 0.000000
C	 -2.577024	 0.154109	 0.000000
C	 -1.960329	 -1.089307	 0.000000
C	 -1.811733	 1.307557	 0.000000
H	 -2.554473	 -1.985285	 0.000000
C	 -0.581547	 -1.175855	 0.000000
H	 -2.287118	 2.271701	 0.000000
C	 -0.428719	 1.219221	 0.000000
H	 -0.090826	 -2.129898	 0.000000
C	 0.198341	 -0.021559	 0.000000
H	 0.149947	 2.124040	 0.000000
C	 1.691355	 -0.173192	 0.000000
C	 2.424070	 -0.247608	 -1.323304
O	 2.295821	 -0.234583	 1.029673
H	 2.080693	 -1.094042	 -1.909326
H	 3.480774	 -0.354929	 -1.124940
H	 2.257880	 0.650579	 -1.909326

	symmetry c1
}
set optking {
	frozen_dihedral = ("
		13 12 10 8
	")
}

ee = optimize('scf')
oeprop('DIPOLE', 'QUADRUPOLE', 'MULLIKEN_CHARGES')
f=open( 'psi4out.xyz', 'w' )
f.write( "17  " )
f.write( str(ee) + "\n" )
f.write( MOL.save_string_xyz() )
f.close()
--------------------------------------------------------------------------

    Molecular point group: c1
  Charge       = 0
  Multiplicity = 1
  Basis Set: 6-31G*
  Basis Set:
  @DF-RHF Final Energy:  -382.46511034850346
    Total Energy =                       -382.4651103485036856
    Molecular point group: c1
  Basis Set: 6-31G*
  Basis Set:
  Basis Set: 6-31G*
  Basis Set:
  @DF-RHF Final Energy:  -382.46564592280009
    Total Energy =                       -382.4656459228003769
  Basis Set: 6-31G*
  Basis Set:
  Basis Set: 6-31G*
  Basis Set:
  @DF-RHF Final Energy:  -382.46435728525159
    Total Energy =                       -382.4643572852515945
  Basis Set: 6-31G*
  Basis Set:
  Basis Set: 6-31G*
  Basis Set:
  @DF-RHF Final Energy:  -382.46592984177181
    Total Energy =                       -382.4659298417718674
  Basis Set: 6-31G*
  Basis Set:
  Charge       = 0
  Multiplicity = 1
  Basis Set: 6-31G*
  Basis Set:

    Orbital Energies (a.u.)
    -----------------------

    Doubly Occupied:

       1A    -20.558442     2A    -11.334544     3A    -11.247802
       4A    -11.243385     5A    -11.243219     6A    -11.241100
       7A    -11.240734     8A    -11.238805     9A    -11.231561
      10A     -1.403163    11A     -1.165704    12A     -1.050486
      13A     -1.025526    14A     -0.998728    15A     -0.858684
      16A     -0.837543    17A     -0.761784    18A     -0.702065
      19A     -0.663818    20A     -0.641873    21A     -0.628551
      22A     -0.620099    23A     -0.598784    24A     -0.590114
      25A     -0.562658    26A     -0.521546    27A     -0.511383
      28A     -0.507016    29A     -0.492019    30A     -0.409494
      31A     -0.343699    32A     -0.341172

  @DF-RHF Final Energy:  -382.46593953422968

   => Energetics <=

    Nuclear Repulsion Energy =            402.4902390052622536
    One-Electron Energy =               -1316.2813523606378112
    Two-Electron Energy =                 531.3251738211457678
    DFT Exchange-Correlation Energy =       0.0000000000000000
    Empirical Dispersion Energy =           0.0000000000000000
    PCM Polarization Energy =               0.0000000000000000
    EFP Energy =                            0.0000000000000000
    Total Energy =                       -382.4659395342297330
    Molecular point group: c1
  Basis Set: 6-31G*
  Basis Set:

  -Total Gradient:
     Atom            X                  Y                   Z
    ------   -----------------  -----------------  -----------------
       1        0.000009941785     0.000002394491     0.000003635983
       2        0.000020303979     0.000385754778    -0.000051889211
       3        0.000290756634    -0.000198863546     0.000049537738
       4       -0.000361682387    -0.000191898784     0.000030342299
       5       -0.000004730602     0.000001517368    -0.000006662557
       6       -0.000152938930    -0.000175553892     0.000007815031
       7        0.000006855540     0.000023089686     0.000000142847
       8        0.000287105326    -0.000221722712     0.000075107960
       9       -0.000020007141     0.000005781236    -0.000014223477
      10       -0.000105121057     0.000472612668    -0.000117386577
      11       -0.000011840197    -0.000005201294    -0.000018770426
      12        0.000132192525    -0.000111359404    -0.000059766675
      13        0.000063241665    -0.000048792372     0.000096109960
      14       -0.000024918481     0.000028550074     0.000023113961
      15       -0.000036178028     0.000004361443    -0.000003251571
      16       -0.000059948482     0.000001743829     0.000019638608
      17       -0.000033032150     0.000027586429    -0.000033493897

  **** Optimization is complete! (in 5 steps) ****
    Final optimized geometry and variables:
    Molecular point group: c1

    Geometry (in Angstrom), charge = 0, multiplicity = 1:

    H           -3.642297683261     0.275668305834     0.007158685062
    C           -2.570202969450     0.195003685282     0.015135888727
    C           -1.967510045645    -1.052961756442     0.027985883146
    C           -1.787693651572     1.337680256744     0.015829448011
    H           -2.570839844708    -1.942954366152     0.032500548825
    C           -0.586717114495    -1.157898455545     0.038759344908
    H           -2.250186564473     2.308366398350     0.011034025398
    C           -0.405844816917     1.234260142779     0.026375536973
    H           -0.124000146594    -2.129212468570     0.056577345943
    C            0.199914444468    -0.013858981972     0.038384584345
    H            0.197073727498     2.125525022200     0.034256558398
    C            1.705356722059    -0.129195454505     0.061552434215
    C            2.398588348896    -0.183752954990    -1.280283504002
    O            2.306665355863    -0.175071413893     1.089007232122
    H            2.033929919885    -1.031347273257    -1.852984542287
    H            3.467757057342    -0.266336765799    -1.140544029544
    H            2.168590912104     0.708845747444    -1.854622204839

  Mulliken Charges: (a.u.)
   Center  Symbol    Alpha    Beta     Spin     Total
       1     H     0.39684  0.39684  0.00000  0.20633
       2     C     3.09974  3.09974  0.00000 -0.19948
       3     C     3.09760  3.09760  0.00000 -0.19520
       4     C     3.09758  3.09758  0.00000 -0.19515
       5     H     0.39621  0.39621  0.00000  0.20758
       6     C     3.10410  3.10410  0.00000 -0.20819
       7     H     0.39621  0.39621  0.00000  0.20759
       8     C     3.10424  3.10424  0.00000 -0.20848
       9     H     0.39371  0.39371  0.00000  0.21258
      10     C     3.02728  3.02728  0.00000 -0.05457
      11     H     0.39380  0.39380  0.00000  0.21240
      12     C     2.75335  2.75335  0.00000  0.49331
      13     C     3.28665  3.28665  0.00000 -0.57329
      14     O     4.24496  4.24496  0.00000 -0.48993
      15     H     0.40508  0.40508  0.00000  0.18984
      16     H     0.39754  0.39754  0.00000  0.20491
      17     H     0.40512  0.40512  0.00000  0.18976

   Total alpha = 32.00000, Total beta = 32.00000, Total charge =  0.00000
