  ==> Input File <==

--------------------------------------------------------------------------
set {
	reference rhf
	basis cc-pvtz
}

set_num_threads( 4 )
memory 2 gb

molecule MOL {
0 1

H	 3.889604	 0.356866	 -0.089510
N	 3.091268	 -0.241216	 -0.065538
C	 1.860978	 0.530248	 0.016256
H	 3.192566	 -0.835836	 0.730398
C	 0.644130	 -0.381765	 -0.031064
H	 1.835721	 1.204666	 -0.833114
H	 1.808789	 1.151975	 0.911067
C	 -0.678115	 0.376691	 0.025731
H	 0.693998	 -0.977147	 -0.936845
H	 0.693309	 -1.082142	 0.800523
C	 -1.875330	 -0.462060	 -0.412874
H	 -0.612753	 1.260840	 -0.604319
H	 -0.847292	 0.737255	 1.037781
C	 -3.194305	 0.301661	 -0.360796
H	 -1.708074	 -0.823666	 -1.423595
H	 -1.945168	 -1.344315	 0.217618
H	 -3.168672	 1.171630	 -1.008666
H	 -4.022366	 -0.321790	 -0.678018
H	 -3.407350	 0.647209	 0.645456

	symmetry c1
}
set optking {
	frozen_dihedral = ("
		12 8 5 9
	")
}

ee = optimize('scf')
oeprop('DIPOLE', 'QUADRUPOLE', 'MULLIKEN_CHARGES')
f=open( 'psi4out.xyz', 'w' )
f.write( "19  " )
f.write( str(ee) + "\n" )
f.write( MOL.save_string_xyz() )
f.close()
--------------------------------------------------------------------------

    Molecular point group: c1
  Charge       = 0
  Multiplicity = 1
  Basis Set: CC-PVTZ
  Basis Set:
  @DF-RHF Final Energy:  -251.44727054917598
    Total Energy =                       -251.4472705491759825
    Molecular point group: c1
  Basis Set: CC-PVTZ
  Basis Set:
  Basis Set: CC-PVTZ
  Basis Set:
  @DF-RHF Final Energy:  -251.44738253830985
    Total Energy =                       -251.4473825383099665
  Basis Set: CC-PVTZ
  Basis Set:
  Basis Set: CC-PVTZ
  Basis Set:
  @DF-RHF Final Energy:  -251.44740607522721
    Total Energy =                       -251.4474060752271498
  Basis Set: CC-PVTZ
  Basis Set:
  Basis Set: CC-PVTZ
  Basis Set:
  @DF-RHF Final Energy:  -251.44740742777836
    Total Energy =                       -251.4474074277781028
  Basis Set: CC-PVTZ
  Basis Set:
  Charge       = 0
  Multiplicity = 1
  Basis Set: CC-PVTZ
  Basis Set:

    Orbital Energies (a.u.)
    -----------------------

    Doubly Occupied:

       1A    -15.526497     2A    -11.238222     3A    -11.212024
       4A    -11.210457     5A    -11.207625     6A    -11.205453
       7A     -1.178304     8A     -1.074061     9A     -0.999568
      10A     -0.901123    11A     -0.814019    12A     -0.789899
      13A     -0.665021    14A     -0.641966    15A     -0.619964
      16A     -0.587713    17A     -0.567825    18A     -0.550220
      19A     -0.527943    20A     -0.501427    21A     -0.479491
      22A     -0.465917    23A     -0.458914    24A     -0.452149
      25A     -0.383825

  @DF-RHF Final Energy:  -251.44740775653767

   => Energetics <=

    Nuclear Repulsion Energy =            246.0399814357238881
    One-Electron Energy =                -826.4555190866246903
    Two-Electron Energy =                 328.9681298943633578
    DFT Exchange-Correlation Energy =       0.0000000000000000
    Empirical Dispersion Energy =           0.0000000000000000
    PCM Polarization Energy =               0.0000000000000000
    EFP Energy =                            0.0000000000000000
    Total Energy =                       -251.4474077565374159
    Molecular point group: c1
  Basis Set: CC-PVTZ
  Basis Set:

  -Total Gradient:
     Atom            X                  Y                   Z
    ------   -----------------  -----------------  -----------------
       1        0.000008538130    -0.000002842619     0.000003361569
       2        0.000013420406     0.000005185471     0.000001837047
       3       -0.000015944126    -0.000011702029    -0.000016347621
       4        0.000003032082    -0.000002847452     0.000002635077
       5        0.001562758958     0.002843135192    -0.001095758333
       6       -0.000005171303    -0.000000784845     0.000001884947
       7        0.000000884793    -0.000007505166    -0.000003278128
       8       -0.001339597218    -0.002212413162    -0.002185239476
       9       -0.001089488298    -0.001991061292     0.001252216297
      10        0.000001596888     0.000000383296     0.000014705036
      11        0.000002296637     0.000005676501     0.000015830198
      12        0.000873251051     0.001377009919     0.002000610181
      13       -0.000012486582    -0.000005434009     0.000009471479
      14       -0.000004198532    -0.000002574440    -0.000005525223
      15        0.000004398289     0.000008393247     0.000006201196
      16       -0.000000434746    -0.000001278036    -0.000000861287
      17        0.000000802846    -0.000002224558     0.000000802527
      18       -0.000005998166     0.000003168721    -0.000001212674
      19        0.000002338890    -0.000002284741    -0.000001332812

  **** Optimization is complete! (in 5 steps) ****
    Final optimized geometry and variables:
    Molecular point group: c1

    Geometry (in Angstrom), charge = 0, multiplicity = 1:

    H            3.888482835519     0.318463902536     0.113555607990
    N            3.086043066351    -0.274587470326     0.118995372926
    C            1.858413750572     0.504660109636     0.137932029652
    H            3.153305762829    -0.853724811305     0.929772924044
    C            0.638992729078    -0.399922750062     0.059214013253
    H            1.870001776631     1.163366661124    -0.723823862309
    H            1.774075996235     1.143518594528     1.018474136861
    C           -0.684674244342     0.360687074882     0.110595215458
    H            0.695418108948    -1.000525923984    -0.842797842404
    H            0.671103258790    -1.108696495458     0.884806119864
    C           -1.888353795609    -0.482916868848    -0.296129556753
    H           -0.623482438659     1.244233740909    -0.521126239932
    H           -0.839622262269     0.737812036668     1.119078930880
    C           -3.211196882944     0.268431948479    -0.192004625958
    H           -1.751417375129    -0.832688639231    -1.315344828685
    H           -1.929040761388    -1.372316526199     0.327156480821
    H           -3.212240463077     1.148089772606    -0.827234470253
    H           -4.043463652148    -0.357347891590    -0.493305090736
    H           -3.396099975218     0.597136267174     0.825332388069

  Mulliken Charges: (a.u.)
   Center  Symbol    Alpha    Beta     Spin     Total
       1     H     0.43025  0.43025  0.00000  0.13951
       2     N     3.68915  3.68915  0.00000 -0.37830
       3     C     3.02709  3.02709  0.00000 -0.05418
       4     H     0.43088  0.43088  0.00000  0.13823
       5     C     3.08150  3.08150  0.00000 -0.16300
       6     H     0.45674  0.45674  0.00000  0.08653
       7     H     0.46834  0.46834  0.00000  0.06333
       8     C     3.09424  3.09424  0.00000 -0.18849
       9     H     0.44982  0.44982  0.00000  0.10037
      10     H     0.45978  0.45978  0.00000  0.08044
      11     C     3.08284  3.08284  0.00000 -0.16568
      12     H     0.45594  0.45594  0.00000  0.08811
      13     H     0.45605  0.45605  0.00000  0.08791
      14     C     3.14980  3.14980  0.00000 -0.29961
      15     H     0.45359  0.45359  0.00000  0.09281
      16     H     0.45465  0.45465  0.00000  0.09069
      17     H     0.45524  0.45524  0.00000  0.08952
      18     H     0.44854  0.44854  0.00000  0.10293
      19     H     0.45556  0.45556  0.00000  0.08888

   Total alpha = 25.00000, Total beta = 25.00000, Total charge =  0.00000
