  ==> Input File <==

--------------------------------------------------------------------------
set {
	reference rhf
	basis 6-31G*
}

set_num_threads( 1 )
memory 2 gb

molecule MOL {
0 1

H	 -1.732305	 0.185262	 -3.362181
C	 -2.356927	 -0.168986	 -2.532737
C	 -1.787429	 -1.328960	 -1.756372
O	 -3.398275	 0.355082	 -2.303176
C	 -0.352901	 -1.068319	 -1.276320
H	 -2.451884	 -1.545254	 -0.927865
H	 -1.791288	 -2.191672	 -2.421481
C	 -0.252658	 0.041456	 -0.226725
H	 0.045005	 -1.991117	 -0.864737
H	 0.275176	 -0.822835	 -2.131314
C	 1.180775	 0.282413	 0.250794
H	 -0.880533	 -0.215459	 0.623930
H	 -0.656788	 0.968178	 -0.629718
C	 2.148627	 -0.814315	 -0.201312
H	 1.516199	 1.249228	 -0.115937
H	 1.192670	 0.346017	 1.338083
C	 3.580890	 -0.659131	 0.322722
H	 2.166869	 -0.852443	 -1.289387
H	 1.762857	 -1.776509	 0.128956
C	 4.324889	 0.564933	 -0.213704
H	 4.142010	 -1.551473	 0.056605
H	 3.564836	 -0.624694	 1.410140
H	 4.342616	 0.565491	 -1.300421
H	 3.866655	 1.493402	 0.110242
H	 5.353900	 0.572371	 0.132816

	symmetry c1
}
set optking {
	frozen_dihedral = ("
		6 3 5 8,
		6 3 2 4,
		3 5 8 12,
		8 11 14 18,
		20 17 14 18
	")
}

ee = energy('scf')
oeprop('DIPOLE', 'QUADRUPOLE', 'MULLIKEN_CHARGES')
f=open( 'psi4out.xyz', 'w' )
f.write( "25  " )
f.write( str(ee) + "\n" )
f.write( MOL.save_string_xyz() )
f.close()
--------------------------------------------------------------------------

    Molecular point group: c1

    Geometry (in Angstrom), charge = 0, multiplicity = 1:

       Center              X                  Y                   Z               Mass
    ------------   -----------------  -----------------  -----------------  -----------------
           H         -2.078434659660     0.484757184095    -2.474283409467     1.007825032070
           C         -2.703056659660     0.130509184095    -1.644839409467    12.000000000000
           C         -2.133558659660    -1.029464815905    -0.868474409467    12.000000000000
           O         -3.744404659660     0.654577184095    -1.415278409467    15.994914619560
           C         -0.699030659660    -0.768823815905    -0.388422409467    12.000000000000
           H         -2.798013659660    -1.245758815905    -0.039967409467     1.007825032070
           H         -2.137417659660    -1.892176815905    -1.533583409467     1.007825032070
           C         -0.598787659660     0.340951184095     0.661172590533    12.000000000000
           H         -0.301124659660    -1.691621815905     0.023160590533     1.007825032070
           H         -0.070953659660    -0.523339815905    -1.243416409467     1.007825032070
           C          0.834645340340     0.581908184095     1.138691590533    12.000000000000
           H         -1.226662659660     0.084036184095     1.511827590533     1.007825032070
           H         -1.002917659660     1.267673184095     0.258179590533     1.007825032070
           C          1.802497340340    -0.514819815905     0.686585590533    12.000000000000
           H          1.170069340340     1.548723184095     0.771960590533     1.007825032070
           H          0.846540340340     0.645512184095     2.225980590533     1.007825032070
           C          3.234760340340    -0.359635815905     1.210619590533    12.000000000000
           H          1.820739340340    -0.552947815905    -0.401489409467     1.007825032070
           H          1.416727340340    -1.477013815905     1.016853590533     1.007825032070
           C          3.978759340340     0.864428184095     0.674193590533    12.000000000000
           H          3.795880340340    -1.251977815905     0.944502590533     1.007825032070
           H          3.218706340340    -0.325198815905     2.298037590533     1.007825032070
           H          3.996486340340     0.864986184095    -0.412523409467     1.007825032070
           H          3.520525340340     1.792897184095     0.998139590533     1.007825032070
           H          5.007770340340     0.871866184095     1.020713590533     1.007825032070

  Charge       = 0
  Multiplicity = 1
  Basis Set: 6-31G*
  Basis Set:

    Orbital Energies (a.u.)
    -----------------------

    Doubly Occupied:

       1A    -20.561140     2A    -11.325281     3A    -11.233464
       4A    -11.232797     5A    -11.222763     6A    -11.218963
       7A    -11.218675     8A    -11.218075     9A    -11.211416
      10A     -1.401177    11A     -1.108326    12A     -1.066584
      13A     -1.013284    14A     -0.937037    15A     -0.888254
      16A     -0.825640    17A     -0.794098    18A     -0.761488
      19A     -0.665455    20A     -0.662113    21A     -0.631771
      22A     -0.628953    23A     -0.603358    24A     -0.588304
      25A     -0.585085    26A     -0.547748    27A     -0.543169
      28A     -0.524665    29A     -0.515767    30A     -0.503181
      31A     -0.487243    32A     -0.475734    33A     -0.454581
      34A     -0.449982    35A     -0.445883    36A     -0.407880

  @DF-RHF Final Energy:  -387.10757575516880

   => Energetics <=

    Nuclear Repulsion Energy =            447.8534149077598840
    One-Electron Energy =               -1412.0032394878332980
    Two-Electron Energy =                 577.0422488249050730
    DFT Exchange-Correlation Energy =       0.0000000000000000
    Empirical Dispersion Energy =           0.0000000000000000
    PCM Polarization Energy =               0.0000000000000000
    EFP Energy =                            0.0000000000000000
    Total Energy =                       -387.1075757551683409

  Mulliken Charges: (a.u.)
   Center  Symbol    Alpha    Beta     Spin     Total
       1     H     0.43306  0.43306  0.00000  0.13388
       2     C     2.83105  2.83105  0.00000  0.33790
       3     C     3.20476  3.20476  0.00000 -0.40951
       4     O     4.23806  4.23806  0.00000 -0.47611
       5     C     3.17423  3.17423  0.00000 -0.34846
       6     H     0.40037  0.40037  0.00000  0.19925
       7     H     0.40734  0.40734  0.00000  0.18532
       8     C     3.15785  3.15785  0.00000 -0.31569
       9     H     0.40973  0.40973  0.00000  0.18055
      10     H     0.41831  0.41831  0.00000  0.16338
      11     C     3.15683  3.15683  0.00000 -0.31366
      12     H     0.41601  0.41601  0.00000  0.16797
      13     H     0.41539  0.41539  0.00000  0.16922
      14     C     3.16154  3.16154  0.00000 -0.32308
      15     H     0.41748  0.41748  0.00000  0.16505
      16     H     0.41865  0.41865  0.00000  0.16269
      17     C     3.14935  3.14935  0.00000 -0.29870
      18     H     0.42232  0.42232  0.00000  0.15536
      19     H     0.42104  0.42104  0.00000  0.15792
      20     C     3.24147  3.24147  0.00000 -0.48293
      21     H     0.42122  0.42122  0.00000  0.15755
      22     H     0.42297  0.42297  0.00000  0.15406
      23     H     0.42289  0.42289  0.00000  0.15422
      24     H     0.41959  0.41959  0.00000  0.16083
      25     H     0.41851  0.41851  0.00000  0.16299

   Total alpha = 36.00000, Total beta = 36.00000, Total charge =  0.00000
