  ==> Input File <==

--------------------------------------------------------------------------
set {
	reference rhf
	basis 6-31G*
}

set_num_threads( 4 )
memory 2 gb

molecule MOL {
0 1

O	 -2.821601	 1.309235	 -0.001213
C	 -2.668563	 0.129746	 -0.000350
C	 -3.801572	 -0.864014	 -0.000442
O	 -1.481751	 -0.454642	 0.000584
H	 -4.417280	 -0.689587	 -0.874708
H	 -3.443784	 -1.883046	 -0.000565
H	 -4.417179	 -0.689832	 0.873954
C	 -0.334255	 0.388708	 0.000906
C	 0.891947	 -0.504646	 0.000751
H	 -0.365390	 1.025305	 -0.873475
H	 -0.365484	 1.024911	 0.875569
C	 2.191998	 0.301789	 0.000897
H	 0.855148	 -1.151283	 -0.871571
H	 0.855132	 -1.151660	 0.872805
C	 2.035443	 1.684554	 0.636331
H	 2.963298	 -0.251574	 0.533788
H	 2.549336	 0.416034	 -1.021032
C	 3.334286	 2.489459	 0.637660
H	 1.678757	 1.572232	 1.657719
H	 1.266673	 2.239758	 0.103591
H	 4.113891	 1.975179	 1.192410
H	 3.191595	 3.463846	 1.094217
H	 3.698524	 2.648014	 -0.373379

	symmetry c1
}
set optking {
	frozen_dihedral = ("
		16 12 9 13
	")
}

ee = optimize('scf')
oeprop('DIPOLE', 'QUADRUPOLE', 'MULLIKEN_CHARGES')
f=open( 'psi4out.xyz', 'w' )
f.write( "23  " )
f.write( str(ee) + "\n" )
f.write( MOL.save_string_xyz() )
f.close()
--------------------------------------------------------------------------

    Molecular point group: c1
  Charge       = 0
  Multiplicity = 1
  Basis Set: 6-31G*
  Basis Set:
  @DF-RHF Final Energy:  -422.97034558220474
    Total Energy =                       -422.9703455822046863
    Molecular point group: c1
  Basis Set: 6-31G*
  Basis Set:
  Basis Set: 6-31G*
  Basis Set:
  @DF-RHF Final Energy:  -422.97112141610120
    Total Energy =                       -422.9711214161010275
  Basis Set: 6-31G*
  Basis Set:
  Basis Set: 6-31G*
  Basis Set:
  @DF-RHF Final Energy:  -422.97309546454295
    Total Energy =                       -422.9730954645430074
  Basis Set: 6-31G*
  Basis Set:
  Basis Set: 6-31G*
  Basis Set:
  @DF-RHF Final Energy:  -422.97330730428178
    Total Energy =                       -422.9733073042814340
  Basis Set: 6-31G*
  Basis Set:
  @DF-RHF Final Energy:  -422.97312890883211
    Total Energy =                       -422.9731289088317681
  @DF-RHF Final Energy:  -422.97325219395600
    Total Energy =                       -422.9732521939561138
  Basis Set: 6-31G*
  Basis Set:
  @DF-RHF Final Energy:  -422.97331994678126
    Total Energy =                       -422.9733199467813165
  Basis Set: 6-31G*
  Basis Set:
  Basis Set: 6-31G*
  Basis Set:
  @DF-RHF Final Energy:  -422.97332914367240
    Total Energy =                       -422.9733291436724585
  Basis Set: 6-31G*
  Basis Set:
  Basis Set: 6-31G*
  Basis Set:
  @DF-RHF Final Energy:  -422.97333220423008
    Total Energy =                       -422.9733322042300188
  Basis Set: 6-31G*
  Basis Set:
  Charge       = 0
  Multiplicity = 1
  Basis Set: 6-31G*
  Basis Set:

    Orbital Energies (a.u.)
    -----------------------

    Doubly Occupied:

       1A    -20.602481     2A    -20.540227     3A    -11.373791
       4A    -11.280542     5A    -11.232172     6A    -11.224648
       7A    -11.224005     8A    -11.221979     9A    -11.213029
      10A     -1.467484    11A     -1.360377    12A     -1.092464
      13A     -1.039833    14A     -1.001657    15A     -0.930961
      16A     -0.852969    17A     -0.788574    18A     -0.777601
      19A     -0.691221    20A     -0.684493    21A     -0.666604
      22A     -0.643329    23A     -0.607244    24A     -0.587818
      25A     -0.576556    26A     -0.570611    27A     -0.566269
      28A     -0.527403    29A     -0.525944    30A     -0.512303
      31A     -0.498479    32A     -0.474426    33A     -0.466387
      34A     -0.458486    35A     -0.449208    36A     -0.435543

  @DF-RHF Final Energy:  -422.97333218600039

   => Energetics <=

    Nuclear Repulsion Energy =            457.4949103809471467
    One-Electron Energy =               -1482.6022501747588649
    Two-Electron Energy =                 602.1340076078108723
    DFT Exchange-Correlation Energy =       0.0000000000000000
    Empirical Dispersion Energy =           0.0000000000000000
    PCM Polarization Energy =               0.0000000000000000
    EFP Energy =                            0.0000000000000000
    Total Energy =                       -422.9733321860007891
    Molecular point group: c1
  Basis Set: 6-31G*
  Basis Set:

  -Total Gradient:
     Atom            X                  Y                   Z
    ------   -----------------  -----------------  -----------------
       1       -0.000001502825    -0.000001770110    -0.000002738309
       2        0.000002893018     0.000004678772     0.000031176504
       3        0.000002275340     0.000000436923    -0.000013073436
       4        0.000013635303    -0.000005874588     0.000014069673
       5        0.000001684095     0.000001059138     0.000000274027
       6       -0.000000161595    -0.000000486410     0.000000129053
       7       -0.000001069632    -0.000000648612     0.000000117731
       8       -0.000003833195     0.000017843877    -0.000063344732
       9        0.003176451708    -0.004776364078     0.004958221146
      10        0.000014227948     0.000009188652     0.000016367814
      11       -0.000023029696    -0.000006195516     0.000010790428
      12        0.001013934779    -0.002354943346    -0.007016248816
      13       -0.002833880308     0.004388960416    -0.003116029505
      14        0.000015901360    -0.000021295444    -0.000012207834
      15        0.000008415056    -0.000007552945     0.000038800355
      16       -0.001400091985     0.002774509932     0.005169274681
      17        0.000027732349    -0.000033865996     0.000004559980
      18       -0.000010554552     0.000005104348    -0.000026680619
      19        0.000017851519    -0.000001553529     0.000006495670
      20       -0.000018517487     0.000008265534     0.000002137135
      21       -0.000004126942     0.000007801020     0.000011689825
      22       -0.000007411303     0.000004311062    -0.000012496742
      23        0.000009177057    -0.000011609098    -0.000001284028

  **** Optimization is complete! (in 10 steps) ****
    Final optimized geometry and variables:
    Molecular point group: c1

    Geometry (in Angstrom), charge = 0, multiplicity = 1:

    O           -2.619167044101     0.734869985786    -0.163650957120
    C           -2.408728126709    -0.435828782614    -0.165593144216
    C           -3.492051722557    -1.483031971113    -0.200589244099
    O           -1.195639914742    -0.962433732680    -0.137824645397
    H           -4.093397797910    -1.332003914486    -1.089089171585
    H           -3.085539445725    -2.483629345497    -0.197885553006
    H           -4.137115218253    -1.345199395560     0.658944683258
    C           -0.089777202833    -0.064028403910    -0.100958311503
    C            1.167852010386    -0.920153200621    -0.069253663220
    H           -0.124515208490     0.568214166874    -0.978543635423
    H           -0.187548717591     0.568263051227     0.769076199270
    C            2.486983173612    -0.122516030043    -0.145606505467
    H            1.099210546468    -1.576557695711    -0.930846398941
    H            1.142325387963    -1.537285869554     0.822437791932
    C            2.471250116505     1.264439461732     0.512850551569
    H            3.254459191250    -0.695407597955     0.367630610607
    H            2.796458737039    -0.017477661560    -1.181475055023
    C            3.844503640033     1.934163653231     0.471115959169
    H            2.149329522206     1.173559726952     1.548109254227
    H            1.749784101004     1.911519225077     0.021784744795
    H            4.587185053741     1.341062363303     0.997130238978
    H            3.816051246341     2.915545117115     0.933808447799
    H            4.187509524739     2.060585716956    -0.551898739912

  Mulliken Charges: (a.u.)
   Center  Symbol    Alpha    Beta     Spin     Total
       1     O     4.28409  4.28409  0.00000 -0.56817
       2     C     2.61544  2.61544  0.00000  0.76912
       3     C     3.28778  3.28778  0.00000 -0.57556
       4     O     4.31361  4.31361  0.00000 -0.62723
       5     H     0.39758  0.39758  0.00000  0.20485
       6     H     0.39992  0.39992  0.00000  0.20017
       7     H     0.39759  0.39759  0.00000  0.20483
       8     C     3.00025  3.00025  0.00000 -0.00050
       9     C     3.16580  3.16580  0.00000 -0.33161
      10     H     0.41116  0.41116  0.00000  0.17768
      11     H     0.40813  0.40813  0.00000  0.18374
      12     C     3.15876  3.15876  0.00000 -0.31752
      13     H     0.41174  0.41174  0.00000  0.17652
      14     H     0.41300  0.41300  0.00000  0.17399
      15     C     3.16121  3.16121  0.00000 -0.32242
      16     H     0.41786  0.41786  0.00000  0.16429
      17     H     0.41854  0.41854  0.00000  0.16292
      18     C     3.23912  3.23912  0.00000 -0.47824
      19     H     0.42088  0.42088  0.00000  0.15823
      20     H     0.41840  0.41840  0.00000  0.16320
      21     H     0.42122  0.42122  0.00000  0.15757
      22     H     0.41709  0.41709  0.00000  0.16583
      23     H     0.42085  0.42085  0.00000  0.15831

   Total alpha = 36.00000, Total beta = 36.00000, Total charge =  0.00000
