  ==> Input File <==

--------------------------------------------------------------------------
set {
	reference rhf
	basis 6-31G*
}

set_num_threads( 4 )
memory 2 gb

molecule MOL {
0 1

H	 -2.698709	 -0.000305	 0.034435
C	 -1.693833	 0.000034	 0.434417
O	 -0.828952	 -0.000968	 -0.659236
H	 -1.574200	 0.882896	 1.055746
H	 -1.574147	 -0.881698	 1.057355
C	 0.559449	 -0.000018	 -0.420814
C	 1.374465	 -0.101542	 -1.708587
C	 1.002166	 1.169891	 0.455697
H	 0.713305	 -0.913027	 0.142012
H	 1.000412	 -0.909777	 -2.327771
H	 2.414578	 -0.305335	 -1.474347
H	 1.344432	 0.816181	 -2.287420
H	 0.370006	 1.242137	 1.334111
H	 2.025974	 1.020685	 0.784362
H	 0.964326	 2.116926	 -0.073013

	symmetry c1
}
set optking {
	frozen_dihedral = ("
		9 6 3 2
	")
}

ee = optimize('scf')
oeprop('DIPOLE', 'QUADRUPOLE', 'MULLIKEN_CHARGES')
f=open( 'psi4out.xyz', 'w' )
f.write( "15  " )
f.write( str(ee) + "\n" )
f.write( MOL.save_string_xyz() )
f.close()
--------------------------------------------------------------------------

    Molecular point group: c1
  Charge       = 0
  Multiplicity = 1
  Basis Set: 6-31G*
  Basis Set:
  @DF-RHF Final Energy:  -232.13521206774243
    Total Energy =                       -232.1352120677422590
    Molecular point group: c1
  Basis Set: 6-31G*
  Basis Set:
  Basis Set: 6-31G*
  Basis Set:
  @DF-RHF Final Energy:  -232.13959518600444
    Total Energy =                       -232.1395951860043283
  Basis Set: 6-31G*
  Basis Set:
  Basis Set: 6-31G*
  Basis Set:
  @DF-RHF Final Energy:  -232.14092016957139
    Total Energy =                       -232.1409201695714728
  Basis Set: 6-31G*
  Basis Set:
  Basis Set: 6-31G*
  Basis Set:
  @DF-RHF Final Energy:  -232.14095598097830
    Total Energy =                       -232.1409559809783332
  Basis Set: 6-31G*
  Basis Set:
  Basis Set: 6-31G*
  Basis Set:
  @DF-RHF Final Energy:  -232.14097123580797
    Total Energy =                       -232.1409712358079673
  Basis Set: 6-31G*
  Basis Set:
  Basis Set: 6-31G*
  Basis Set:
  @DF-RHF Final Energy:  -232.14097383677890
    Total Energy =                       -232.1409738367789259
  Basis Set: 6-31G*
  Basis Set:
  Charge       = 0
  Multiplicity = 1
  Basis Set: 6-31G*
  Basis Set:

    Orbital Energies (a.u.)
    -----------------------

    Doubly Occupied:

       1A    -20.550324     2A    -11.274516     3A    -11.262572
       4A    -11.210792     5A    -11.205623     6A     -1.374525
       7A     -1.052404     8A     -0.944785     9A     -0.913807
      10A     -0.790840    11A     -0.674308    12A     -0.639008
      13A     -0.634485    14A     -0.591599    15A     -0.550338
      16A     -0.542410    17A     -0.526520    18A     -0.497362
      19A     -0.493120    20A     -0.451862    21A     -0.408953

  @DF-RHF Final Energy:  -232.14097415389824

   => Energetics <=

    Nuclear Repulsion Energy =            197.7306721198230548
    One-Electron Energy =                -706.5629805498303995
    Two-Electron Energy =                 276.6913342761091599
    DFT Exchange-Correlation Energy =       0.0000000000000000
    Empirical Dispersion Energy =           0.0000000000000000
    PCM Polarization Energy =               0.0000000000000000
    EFP Energy =                            0.0000000000000000
    Total Energy =                       -232.1409741538981848
    Molecular point group: c1
  Basis Set: 6-31G*
  Basis Set:

  -Total Gradient:
     Atom            X                  Y                   Z
    ------   -----------------  -----------------  -----------------
       1       -0.000010576198     0.000004433515    -0.000006744747
       2        0.000071353655     0.001589785480     0.000070372863
       3       -0.000026078111    -0.002524853970    -0.000489063685
       4        0.000032654860     0.000005326971    -0.000021876851
       5        0.000000866451     0.000002975149     0.000011543455
       6       -0.000429926619     0.001850060109     0.002189687660
       7       -0.000001922128    -0.000022544240    -0.000039098127
       8       -0.000054514559     0.000026038423     0.000009341910
       9        0.000401933687    -0.000923880065    -0.001696825715
      10        0.000012611370     0.000021761826    -0.000027115509
      11        0.000019571935    -0.000014121519    -0.000016165192
      12        0.000003100149    -0.000018920303     0.000017488554
      13       -0.000007439937     0.000015934583     0.000011673238
      14       -0.000017973996    -0.000021900414    -0.000016391047
      15        0.000006339441     0.000009904455     0.000003173192

  **** Optimization is complete! (in 7 steps) ****
    Final optimized geometry and variables:
    Molecular point group: c1

    Geometry (in Angstrom), charge = 0, multiplicity = 1:

    H           -2.754658846677    -0.315218583281     0.290029916941
    C           -1.771832960026    -0.177545681191     0.720572432742
    O           -0.859124883974    -0.172689468631    -0.331273166347
    H           -1.766743308896     0.756212252364     1.274846136746
    H           -1.578794690956    -0.994058344391     1.414791123948
    C            0.501978906587    -0.255481278126     0.009337223078
    C            1.258699649818    -0.327799711339    -1.308615266237
    C            0.971985854665     0.917961873710     0.865176089224
    H            0.668689284875    -1.186807465934     0.552522581490
    H            0.892804396813    -1.155696788989    -1.904588742630
    H            2.321500696819    -0.466844111426    -1.137516298137
    H            1.116395262003     0.586545582768    -1.875115595928
    H            0.498154292661     0.931755271708     1.840416078733
    H            2.043697947307     0.856755372960     1.025017084646
    H            0.753434844802     1.857082056109     0.366188349047

  Mulliken Charges: (a.u.)
   Center  Symbol    Alpha    Beta     Spin     Total
       1     H     0.41257  0.41257  0.00000  0.17486
       2     C     3.07951  3.07951  0.00000 -0.15901
       3     O     4.30990  4.30990  0.00000 -0.61981
       4     H     0.42769  0.42769  0.00000  0.14463
       5     H     0.43210  0.43210  0.00000  0.13581
       6     C     2.90976  2.90976  0.00000  0.18048
       7     C     3.24003  3.24003  0.00000 -0.48006
       8     C     3.25411  3.25411  0.00000 -0.50821
       9     H     0.43118  0.43118  0.00000  0.13764
      10     H     0.41189  0.41189  0.00000  0.17623
      11     H     0.42377  0.42377  0.00000  0.15246
      12     H     0.41597  0.41597  0.00000  0.16806
      13     H     0.41807  0.41807  0.00000  0.16385
      14     H     0.41884  0.41884  0.00000  0.16232
      15     H     0.41462  0.41462  0.00000  0.17077

   Total alpha = 21.00000, Total beta = 21.00000, Total charge =  0.00000
