  ==> Input File <==

--------------------------------------------------------------------------
set {
	reference rhf
	basis cc-pvtz
}

set_num_threads( 4 )
memory 2 gb

molecule MOL {
0 1

O	 0.803026	 1.957349	 0.415954
C	 -0.080195	 2.023698	 1.201180
C	 -1.342949	 1.201546	 1.169833
O	 -0.070477	 2.850429	 2.234039
C	 -1.413045	 0.229353	 0.001137
H	 -1.409928	 0.680344	 2.119223
H	 -2.177120	 1.895365	 1.154508
C	 -2.702562	 -0.586401	 0.000228
H	 -0.557661	 -0.435914	 0.036903
H	 -1.326244	 0.780189	 -0.928696
C	 -3.953810	 0.284959	 -0.000782
H	 -2.717793	 -1.238567	 -0.869075
H	 -2.719108	 -1.238472	 0.869576
H	 -3.983727	 0.924403	 -0.876454
H	 -4.852989	 -0.320147	 -0.001515
H	 -3.985140	 0.924399	 0.874841
C	 1.059744	 3.685098	 2.386509
H	 1.955914	 3.095001	 2.508545
H	 0.878149	 4.273289	 3.271338
H	 1.176462	 4.329587	 1.527885

	symmetry c1
}
set optking {
	frozen_dihedral = ("
		9 5 8 12
	")
}

ee = optimize('scf')
oeprop('DIPOLE', 'QUADRUPOLE', 'MULLIKEN_CHARGES')
f=open( 'psi4out.xyz', 'w' )
f.write( "20  " )
f.write( str(ee) + "\n" )
f.write( MOL.save_string_xyz() )
f.close()
--------------------------------------------------------------------------

    Molecular point group: c1
  Charge       = 0
  Multiplicity = 1
  Basis Set: CC-PVTZ
  Basis Set:
  @DF-RHF Final Energy:  -384.08010571300173
    Total Energy =                       -384.0801057130015579
    Molecular point group: c1
  Basis Set: CC-PVTZ
  Basis Set:
  Basis Set: CC-PVTZ
  Basis Set:
  @DF-RHF Final Energy:  -384.08076761009062
    Total Energy =                       -384.0807676100910157
  Basis Set: CC-PVTZ
  Basis Set:
  Basis Set: CC-PVTZ
  Basis Set:
  @DF-RHF Final Energy:  -384.08128084343946
    Total Energy =                       -384.0812808434396857
  Basis Set: CC-PVTZ
  Basis Set:
  Basis Set: CC-PVTZ
  Basis Set:
  @DF-RHF Final Energy:  -384.08085166496716
    Total Energy =                       -384.0808516649668718
  Basis Set: CC-PVTZ
  Basis Set:
  Basis Set: CC-PVTZ
  Basis Set:
  @DF-RHF Final Energy:  -384.08132401622845
    Total Energy =                       -384.0813240162284501
  Basis Set: CC-PVTZ
  Basis Set:
  Basis Set: CC-PVTZ
  Basis Set:
  @DF-RHF Final Energy:  -384.08132792331133
    Total Energy =                       -384.0813279233113917
  Basis Set: CC-PVTZ
  Basis Set:
  Charge       = 0
  Multiplicity = 1
  Basis Set: CC-PVTZ
  Basis Set:

    Orbital Energies (a.u.)
    -----------------------

    Doubly Occupied:

       1A    -20.596221     2A    -20.534107     3A    -11.364564
       4A    -11.278433     5A    -11.233307     6A    -11.218761
       7A    -11.217582     8A    -11.210837     9A     -1.472160
      10A     -1.365743    11A     -1.089867    12A     -1.023399
      13A     -0.968444    14A     -0.896416    15A     -0.799975
      16A     -0.765338    17A     -0.703678    18A     -0.686035
      19A     -0.675807    20A     -0.637503    21A     -0.611108
      22A     -0.595716    23A     -0.569966    24A     -0.550096
      25A     -0.536695    26A     -0.524261    27A     -0.509866
      28A     -0.474886    29A     -0.471919    30A     -0.468749
      31A     -0.459057    32A     -0.440945

  @DF-RHF Final Energy:  -384.08132806075275

   => Energetics <=

    Nuclear Repulsion Energy =            385.7133968981429462
    One-Electron Energy =               -1287.6865703247035526
    Two-Electron Energy =                 517.8918453658081944
    DFT Exchange-Correlation Energy =       0.0000000000000000
    Empirical Dispersion Energy =           0.0000000000000000
    PCM Polarization Energy =               0.0000000000000000
    EFP Energy =                            0.0000000000000000
    Total Energy =                       -384.0813280607524121
    Molecular point group: c1
  Basis Set: CC-PVTZ
  Basis Set:

  -Total Gradient:
     Atom            X                  Y                   Z
    ------   -----------------  -----------------  -----------------
       1        0.000003918048     0.000017857423     0.000015038917
       2       -0.000012949226    -0.000004205753     0.000001771084
       3        0.000003892990    -0.000016637780    -0.000009443172
       4        0.000019043898    -0.000004923630    -0.000016343423
       5       -0.000166785433     0.000185434716    -0.002532534261
       6       -0.000004236991     0.000001556655    -0.000005227521
       7       -0.000007047829     0.000002247229    -0.000001899809
       8        0.001093100937    -0.001555770605     0.001653938926
       9       -0.000035404166     0.000079033254     0.001888939702
      10        0.000001374339     0.000002689132     0.000003927564
      11        0.000012589387    -0.000008281405     0.000001951829
      12       -0.000919024879     0.001288566230    -0.001012453307
      13       -0.000006247393     0.000006599076     0.000000591175
      14        0.000006487432    -0.000001214014     0.000003461470
      15       -0.000000034171    -0.000004684963    -0.000003065355
      16        0.000003643381     0.000000240977     0.000002705186
      17        0.000002014218     0.000007850124     0.000008470183
      18        0.000000118323     0.000000516075    -0.000000140833
      19        0.000005533533     0.000003341977     0.000000166229
      20        0.000000013602    -0.000000214719     0.000000145417

  **** Optimization is complete! (in 7 steps) ****
    Final optimized geometry and variables:
    Molecular point group: c1

    Geometry (in Angstrom), charge = 0, multiplicity = 1:

    O            1.767662077266     0.435756136370    -0.503523349078
    C            0.873633164829     0.548717472674     0.263898277225
    C           -0.424240774706    -0.216909654304     0.218309287631
    O            0.900262763433     1.386482803902     1.287795569815
    C           -0.505949295860    -1.201178973044    -0.942441717628
    H           -0.529023129460    -0.725791821603     1.171540966781
    H           -1.219855870393     0.517539899759     0.185450773494
    C           -1.764174064583    -2.070768423810    -0.927607752729
    H            0.365434132724    -1.843049210685    -0.900544295289
    H           -0.443705116657    -0.657314300380    -1.878274922158
    C           -3.081389861426    -1.298075744174    -0.967300543892
    H           -1.729082508087    -2.721728514720    -1.795071816120
    H           -1.750539040624    -2.716162759297    -0.053690189015
    H           -3.110923637640    -0.620781227213    -1.814981772014
    H           -3.920205191891    -1.977955006407    -1.060522909348
    H           -3.239373967437    -0.712182424286    -0.069575541503
    C            2.062697303049     2.173039815454     1.452618856368
    H            2.930016356544     1.546158426776     1.597630026385
    H            1.890824679225     2.778582514929     2.327651390220
    H            2.223059523091     2.802121040853     0.589612818277

  Mulliken Charges: (a.u.)
   Center  Symbol    Alpha    Beta     Spin     Total
       1     O     4.19667  4.19667  0.00000 -0.39335
       2     C     2.80603  2.80603  0.00000  0.38794
       3     C     3.10260  3.10260  0.00000 -0.20520
       4     O     4.14702  4.14702  0.00000 -0.29404
       5     C     3.08922  3.08922  0.00000 -0.17844
       6     H     0.43995  0.43995  0.00000  0.12010
       7     H     0.43849  0.43849  0.00000  0.12302
       8     C     3.09388  3.09388  0.00000 -0.18777
       9     H     0.44121  0.44121  0.00000  0.11757
      10     H     0.44583  0.44583  0.00000  0.10833
      11     C     3.15548  3.15548  0.00000 -0.31096
      12     H     0.44636  0.44636  0.00000  0.10729
      13     H     0.45341  0.45341  0.00000  0.09319
      14     H     0.45303  0.45303  0.00000  0.09394
      15     H     0.44490  0.44490  0.00000  0.11019
      16     H     0.45411  0.45411  0.00000  0.09179
      17     C     3.03792  3.03792  0.00000 -0.07584
      18     H     0.45427  0.45427  0.00000  0.09146
      19     H     0.44524  0.44524  0.00000  0.10953
      20     H     0.45437  0.45437  0.00000  0.09126

   Total alpha = 32.00000, Total beta = 32.00000, Total charge =  0.00000
