  ==> Input File <==

--------------------------------------------------------------------------
set {
	reference rhf
	basis 6-31G*
}

set_num_threads( 4 )
memory 2 gb

molecule MOL {
0 1

H	 -2.698709	 -0.000305	 0.034435
C	 -1.693833	 0.000034	 0.434417
O	 -0.828952	 -0.000968	 -0.659236
H	 -1.574200	 0.882896	 1.055746
H	 -1.574147	 -0.881698	 1.057355
C	 -0.242299	 -1.219456	 -1.053734
C	 0.684552	 -1.795766	 0.014783
C	 -1.274133	 -2.236603	 -1.537148
H	 0.367118	 -0.935653	 -1.903497
H	 1.369220	 -1.033117	 0.369950
H	 1.268585	 -2.610792	 -0.400998
H	 0.136809	 -2.188222	 0.865736
H	 -1.945596	 -1.778915	 -2.255561
H	 -0.774876	 -3.070370	 -2.020925
H	 -1.866737	 -2.639908	 -0.722282

	symmetry c1
}
set optking {
	frozen_dihedral = ("
		6 3 2 1
	")
}

ee = optimize('scf')
oeprop('DIPOLE', 'QUADRUPOLE', 'MULLIKEN_CHARGES')
f=open( 'psi4out.xyz', 'w' )
f.write( "15  " )
f.write( str(ee) + "\n" )
f.write( MOL.save_string_xyz() )
f.close()
--------------------------------------------------------------------------

    Molecular point group: c1
  Charge       = 0
  Multiplicity = 1
  Basis Set: 6-31G*
  Basis Set:
  @DF-RHF Final Energy:  -232.13443828549600
    Total Energy =                       -232.1344382854961168
    Molecular point group: c1
  Basis Set: 6-31G*
  Basis Set:
  Basis Set: 6-31G*
  Basis Set:
  @DF-RHF Final Energy:  -232.13566240076534
    Total Energy =                       -232.1356624007653409
  Basis Set: 6-31G*
  Basis Set:
  Basis Set: 6-31G*
  Basis Set:
  @DF-RHF Final Energy:  -232.13601149748393
    Total Energy =                       -232.1360114974840485
  Basis Set: 6-31G*
  Basis Set:
  Basis Set: 6-31G*
  Basis Set:
  @DF-RHF Final Energy:  -232.13609692260235
    Total Energy =                       -232.1360969226024622
  Basis Set: 6-31G*
  Basis Set:
  Basis Set: 6-31G*
  Basis Set:
  @DF-RHF Final Energy:  -232.13612880028271
    Total Energy =                       -232.1361288002827337
  Basis Set: 6-31G*
  Basis Set:
  Basis Set: 6-31G*
  Basis Set:
  @DF-RHF Final Energy:  -232.13613969869118
    Total Energy =                       -232.1361396986910677
  Basis Set: 6-31G*
  Basis Set:
  Charge       = 0
  Multiplicity = 1
  Basis Set: 6-31G*
  Basis Set:

    Orbital Energies (a.u.)
    -----------------------

    Doubly Occupied:

       1A    -20.546561     2A    -11.274762     3A    -11.261424
       4A    -11.211029     5A    -11.209956     6A     -1.368682
       7A     -1.050013     8A     -0.939962     9A     -0.931203
      10A     -0.781476    11A     -0.675693    12A     -0.638687
      13A     -0.632121    14A     -0.569943    15A     -0.563441
      16A     -0.552827    17A     -0.537474    18A     -0.500583
      19A     -0.497424    20A     -0.442318    21A     -0.403583

  @DF-RHF Final Energy:  -232.13613999619753

   => Energetics <=

    Nuclear Repulsion Energy =            198.6988007508513761
    One-Electron Energy =                -708.4915592694628685
    Two-Electron Energy =                 277.6566185224139076
    DFT Exchange-Correlation Energy =       0.0000000000000000
    Empirical Dispersion Energy =           0.0000000000000000
    PCM Polarization Energy =               0.0000000000000000
    EFP Energy =                            0.0000000000000000
    Total Energy =                       -232.1361399961975849
    Molecular point group: c1
  Basis Set: 6-31G*
  Basis Set:

  -Total Gradient:
     Atom            X                  Y                   Z
    ------   -----------------  -----------------  -----------------
       1        0.000054973105     0.001985465137     0.000109692587
       2        0.000518842463    -0.002513800522     0.000402331401
       3       -0.001726271308     0.000335393554    -0.001571822931
       4        0.000029763980    -0.000002840276    -0.000037548803
       5       -0.000040662809     0.000022242019     0.000038583421
       6        0.001154936350     0.000204985441     0.001094265446
       7       -0.000002853608     0.000026389906    -0.000000588252
       8        0.000009630367    -0.000041004821    -0.000026356465
       9        0.000001652696    -0.000013320157     0.000006988456
      10        0.000006723156    -0.000001007593     0.000015206117
      11       -0.000006973949     0.000013075101    -0.000012301957
      12        0.000000231172     0.000000608266    -0.000003974764
      13        0.000005097435    -0.000001444064     0.000000509576
      14       -0.000012310714    -0.000017617278    -0.000007365928
      15        0.000007221667     0.000002875284    -0.000007617903

  **** Optimization is complete! (in 7 steps) ****
    Final optimized geometry and variables:
    Molecular point group: c1

    Geometry (in Angstrom), charge = 0, multiplicity = 1:

    H           -2.068927408068     1.074801098292     0.560635929192
    C           -1.056984339582     1.022681175487     0.952107644253
    O           -0.121325712683     1.044022807426    -0.085669333548
    H           -0.890236063634     1.899804811896     1.565687008283
    H           -0.972170997581     0.147625392015     1.585704000771
    C            0.454203414104    -0.169759954763    -0.508445313209
    C            1.398549516151    -0.754630237907     0.539816577180
    C           -0.591532907572    -1.174393765652    -0.987177045996
    H            1.051635646550     0.122115345202    -1.363891629742
    H            2.105962199044    -0.000049317925     0.865410907370
    H            1.955296053690    -1.586391053123     0.119057673059
    H            0.869076714765    -1.124775975085     1.411896722159
    H           -1.243487019355    -0.715611037592    -1.722689139115
    H           -0.108502243677    -2.030760355597    -1.447367714194
    H           -1.204919067331    -1.543187009363    -0.170776172772

  Mulliken Charges: (a.u.)
   Center  Symbol    Alpha    Beta     Spin     Total
       1     H     0.42468  0.42468  0.00000  0.15065
       2     C     3.07979  3.07979  0.00000 -0.15958
       3     O     4.31426  4.31426  0.00000 -0.62852
       4     H     0.41619  0.41619  0.00000  0.16763
       5     H     0.42982  0.42982  0.00000  0.14036
       6     C     2.91022  2.91022  0.00000  0.17956
       7     C     3.25002  3.25002  0.00000 -0.50004
       8     C     3.25269  3.25269  0.00000 -0.50537
       9     H     0.41552  0.41552  0.00000  0.16897
      10     H     0.41140  0.41140  0.00000  0.17720
      11     H     0.42055  0.42055  0.00000  0.15890
      12     H     0.42215  0.42215  0.00000  0.15571
      13     H     0.41176  0.41176  0.00000  0.17648
      14     H     0.41922  0.41922  0.00000  0.16156
      15     H     0.42174  0.42174  0.00000  0.15651

   Total alpha = 21.00000, Total beta = 21.00000, Total charge = -0.00000
