                              Psi4 1.0.54 Driver

  ==> Input File <==

--------------------------------------------------------------------------
set {
	reference rhf
	basis cc-pvtz
}

set_num_threads( 4 )
memory 2 gb

molecule MOL {
0 1

H	 2.190573	 -0.629143	 -0.208718
O	 1.355408	 -0.529451	 0.208662
C	 0.700177	 0.619554	 -0.266242
C	 -0.713111	 0.588314	 0.266177
H	 0.678680	 0.627133	 -1.351786
H	 1.199747	 1.521489	 0.077736
O	 -1.421673	 -0.521378	 -0.196983
H	 -1.244794	 1.469161	 -0.069059
H	 -0.685100	 0.604721	 1.352683
H	 -2.333155	 -0.292872	 -0.251856

	symmetry c1
}
set optking {
	frozen_dihedral = ("
		10 7 4 3
	")
}

ee,wfn = optimize('scf', return_wfn=True)
oeprop( wfn, 'DIPOLE', 'QUADRUPOLE', 'MULLIKEN_CHARGES')
f=open( 'psi4out.xyz', 'w' )
f.write( "10  " )
f.write( str(ee) + "\n" )
f.write( MOL.save_string_xyz() )
f.close()
--------------------------------------------------------------------------

    Molecular point group: c1
  Charge       = 0
  Multiplicity = 1
  Basis Set: CC-PVTZ
  Basis Set:
  @DF-RHF Final Energy:  -229.02134954619248
    Total Energy =                       -229.0213495461925390
    Molecular point group: c1
  Basis Set: CC-PVTZ
  Basis Set:
  Basis Set: CC-PVTZ
  Basis Set:
  @DF-RHF Final Energy:  -229.01635016695801
    Total Energy =                       -229.0163501669579205
  Basis Set: CC-PVTZ
  Basis Set:
  Basis Set: CC-PVTZ
  Basis Set:
  @DF-RHF Final Energy:  -229.02277458764763
    Total Energy =                       -229.0227745876475467
  Basis Set: CC-PVTZ
  Basis Set:
  Basis Set: CC-PVTZ
  Basis Set:
  @DF-RHF Final Energy:  -229.02289600672930
    Total Energy =                       -229.0228960067294111
  Basis Set: CC-PVTZ
  Basis Set:
  Basis Set: CC-PVTZ
  Basis Set:
  @DF-RHF Final Energy:  -229.02290473564281
    Total Energy =                       -229.0229047356427259
  Basis Set: CC-PVTZ
  Basis Set:
  Basis Set: CC-PVTZ
  Basis Set:
  @DF-RHF Final Energy:  -229.02290631464709
    Total Energy =                       -229.0229063146470878
  Basis Set: CC-PVTZ
  Basis Set:
  Charge       = 0
  Multiplicity = 1
  Basis Set: CC-PVTZ
  Basis Set:

    Orbital Energies (a.u.)
    -----------------------

    Doubly Occupied:

       1A    -20.545761     2A    -20.545560     3A    -11.268766
       4A    -11.267920     5A     -1.374700     6A     -1.355093
       7A     -1.003779     8A     -0.832682     9A     -0.722429
      10A     -0.701573    11A     -0.629104    12A     -0.600421
      13A     -0.584266    14A     -0.523019    15A     -0.485268
      16A     -0.447160    17A     -0.436140

  @DF-RHF Final Energy:  -229.02290690126250

   => Energetics <=

    Nuclear Repulsion Energy =            133.4116266694762771
    One-Electron Energy =                -578.2217818108565552
    Two-Electron Energy =                 215.7872482401176626
    DFT Exchange-Correlation Energy =       0.0000000000000000
    Empirical Dispersion Energy =           0.0000000000000000
    PCM Polarization Energy =               0.0000000000000000
    EFP Energy =                            0.0000000000000000
    Total Energy =                       -229.0229069012626155
    Molecular point group: c1
  Basis Set: CC-PVTZ
  Basis Set:

  -Total Gradient:
     Atom            X                  Y                   Z
    ------   -----------------  -----------------  -----------------
       1        0.000003732028     0.000000540148     0.000009926543
       2       -0.000045970078     0.000029118087    -0.000041359520
       3       -0.000344941251     0.000432260930    -0.000787356411
       4        0.000549098842    -0.000515898787     0.000771792651
       5       -0.000009211334    -0.000010317059    -0.000024689508
       6       -0.000001137218    -0.000025386675    -0.000009639551
       7       -0.000214383434    -0.000313474495     0.001668843260
       8        0.000003880048     0.000005224646     0.000007625985
       9        0.000016247864     0.000026830653     0.000027035352
      10        0.000042684534     0.000371102551    -0.001622178802

  **** Optimization is complete! (in 7 steps) ****
    Final optimized geometry and variables:
    Molecular point group: c1

    Geometry (in Angstrom), charge = 0, multiplicity = 1:

    H            2.277689200260    -0.350683142451    -0.289342204184
    O            1.492936241246    -0.269399461920     0.219657783548
    C            0.597820439706     0.604252110350    -0.406614029515
    C           -0.752244193660     0.494493408542     0.258259843029
    H            0.489264259887     0.366318614636    -1.460478613127
    H            0.943134987935     1.632801113274    -0.321059857828
    O           -1.341459188818    -0.738153482951    -0.052099439502
    H           -1.368782619690     1.317093491361    -0.094868447246
    H           -0.630473238058     0.600198100010     1.332042298034
    H           -2.276186153542    -0.657706438993    -0.059137806753

  Mulliken Charges: (a.u.)
   Center  Symbol    Alpha    Beta     Spin     Total
       1     H     0.39509  0.39509  0.00000  0.20982
       2     O     4.19465  4.19465  0.00000 -0.38930
       3     C     2.95856  2.95856  0.00000  0.08288
       4     C     2.96224  2.96224  0.00000  0.07553
       5     H     0.47304  0.47304  0.00000  0.05393
       6     H     0.47839  0.47839  0.00000  0.04322
       7     O     4.19617  4.19617  0.00000 -0.39234
       8     H     0.47775  0.47775  0.00000  0.04450
       9     H     0.46993  0.46993  0.00000  0.06013
      10     H     0.39419  0.39419  0.00000  0.21163

   Total alpha = 17.00000, Total beta = 17.00000, Total charge = -0.00000

*** Psi4 exiting successfully. Buy a developer a beer!
