                              Psi4 1.0.54 Driver

  ==> Input File <==

--------------------------------------------------------------------------
set {
	reference rhf
	basis cc-pvtz
}

set_num_threads( 4 )
memory 2 gb

molecule MOL {
0 1

O	 -0.694481	 1.313155	 -0.204815
C	 -0.862519	 0.151932	 -0.046791
C	 -2.171428	 -0.477048	 0.339095
O	 0.085519	 -0.757083	 -0.192238
H	 -2.467997	 -1.191667	 -0.417688
H	 -2.923379	 0.287970	 0.444097
H	 -2.053854	 -1.015120	 1.270901
C	 -0.240927	 -1.992822	 -0.817428
C	 -0.153536	 -1.897210	 -2.326441
H	 -1.226174	 -2.300511	 -0.503690
H	 0.485224	 -2.693733	 -0.433788
H	 -0.342698	 -2.871152	 -2.763600
H	 -0.887197	 -1.203108	 -2.712892
H	 0.833534	 -1.572454	 -2.632741

	symmetry c1
}
set optking {
	frozen_dihedral = ("
		8 4 2 1
	")
}

ee,wfn = optimize('scf', return_wfn=True)
oeprop( wfn, 'DIPOLE', 'QUADRUPOLE', 'MULLIKEN_CHARGES')
f=open( 'psi4out.xyz', 'w' )
f.write( "14  " )
f.write( str(ee) + "\n" )
f.write( MOL.save_string_xyz() )
f.close()
--------------------------------------------------------------------------

    Molecular point group: c1
  Charge       = 0
  Multiplicity = 1
  Basis Set: CC-PVTZ
  Basis Set:
  @DF-RHF Final Energy:  -305.96447972959220
    Total Energy =                       -305.9644797295923695
    Molecular point group: c1
  Basis Set: CC-PVTZ
  Basis Set:
  Basis Set: CC-PVTZ
  Basis Set:
  @DF-RHF Final Energy:  -305.95409730593485
    Total Energy =                       -305.9540973059349653
  Basis Set: CC-PVTZ
  Basis Set:
  Basis Set: CC-PVTZ
  Basis Set:
  @DF-RHF Final Energy:  -305.97270675135780
    Total Energy =                       -305.9727067513579186
  Basis Set: CC-PVTZ
  Basis Set:
  Basis Set: CC-PVTZ
  Basis Set:
  @DF-RHF Final Energy:  -305.97415757374267
    Total Energy =                       -305.9741575737427297
  Basis Set: CC-PVTZ
  Basis Set:
  @DF-RHF Final Energy:  -305.97407643231213
    Total Energy =                       -305.9740764323120175
  @DF-RHF Final Energy:  -305.97428035493999
    Total Energy =                       -305.9742803549401629
  Basis Set: CC-PVTZ
  Basis Set:
  @DF-RHF Final Energy:  -305.97458989730552
    Total Energy =                       -305.9745898973056910
  Basis Set: CC-PVTZ
  Basis Set:
  Basis Set: CC-PVTZ
  Basis Set:
  @DF-RHF Final Energy:  -305.97459869504172
    Total Energy =                       -305.9745986950417205
  Basis Set: CC-PVTZ
  Basis Set:
  Basis Set: CC-PVTZ
  Basis Set:
  @DF-RHF Final Energy:  -305.97460082705402
    Total Energy =                       -305.9746008270544735
  Basis Set: CC-PVTZ
  Basis Set:
  Charge       = 0
  Multiplicity = 1
  Basis Set: CC-PVTZ
  Basis Set:

    Orbital Energies (a.u.)
    -----------------------

    Doubly Occupied:

       1A    -20.586635     2A    -20.533717     3A    -11.369233
       4A    -11.297141     5A    -11.239632     6A    -11.228652
       7A     -1.463307     8A     -1.368888     9A     -1.048337
      10A     -1.016738    11A     -0.897425    12A     -0.769936
      13A     -0.697105    14A     -0.688693    15A     -0.671335
      16A     -0.617300    17A     -0.596963    18A     -0.585671
      19A     -0.554297    20A     -0.545748    21A     -0.525946
      22A     -0.494973    23A     -0.452693    24A     -0.437786

  @DF-RHF Final Energy:  -305.97460133052289

   => Energetics <=

    Nuclear Repulsion Energy =            249.1362410131170009
    One-Electron Energy =                -910.8453847508317267
    Two-Electron Energy =                 355.7345424071917819
    DFT Exchange-Correlation Energy =       0.0000000000000000
    Empirical Dispersion Energy =           0.0000000000000000
    PCM Polarization Energy =               0.0000000000000000
    EFP Energy =                            0.0000000000000000
    Total Energy =                       -305.9746013305229440
    Molecular point group: c1
  Basis Set: CC-PVTZ
  Basis Set:

  -Total Gradient:
     Atom            X                  Y                   Z
    ------   -----------------  -----------------  -----------------
       1       -0.000379391760    -0.000189553779    -0.003321405658
       2        0.001214542043     0.000721498511     0.003495503306
       3        0.000048838836     0.000007615275    -0.000058531322
       4       -0.002265955077    -0.001470252792     0.002180599959
       5        0.000018735610    -0.000017342910     0.000029619234
       6       -0.000005539366    -0.000010142756     0.000005685141
       7        0.000027806542     0.000015566146    -0.000012709688
       8        0.001367284085     0.000901918051    -0.002366823446
       9        0.000010115002     0.000016363212     0.000033676404
      10       -0.000000463842     0.000027150921    -0.000000643365
      11       -0.000018525026     0.000012715441    -0.000037354938
      12        0.000005511570     0.000015770362     0.000018085077
      13        0.000014137199    -0.000020591699     0.000018250759
      14       -0.000037095819    -0.000010713975     0.000016048539

  **** Optimization is complete! (in 10 steps) ****
    Final optimized geometry and variables:
    Molecular point group: c1

    Geometry (in Angstrom), charge = 0, multiplicity = 1:

    O            0.483050913417     1.811931482299     0.408517972474
    C           -0.066862628945     0.773818435132     0.490624027331
    C           -1.559743077174     0.653301936627     0.678611360181
    O            0.637429151223    -0.360473882354     0.456601210430
    H           -2.031598794656     0.297237542626    -0.228772749901
    H           -1.950926490405     1.629403603806     0.913193610388
    H           -1.792895702285    -0.042089483078     1.474312481530
    C            0.186365788951    -1.504113343045    -0.241085137332
    C            0.339038839556    -1.345718520642    -1.740888240209
    H           -0.836444165675    -1.738194914402     0.025413980459
    H            0.807982167975    -2.309886646533     0.117971710972
    H            0.049498606103    -2.264180218355    -2.238568956768
    H           -0.283805021575    -0.545153516531    -2.123077560738
    H            1.367170239773    -1.122839774781    -1.993409738129

  Mulliken Charges: (a.u.)
   Center  Symbol    Alpha    Beta     Spin     Total
       1     O     4.17618  4.17618  0.00000 -0.35237
       2     C     2.81099  2.81099  0.00000  0.37801
       3     C     3.16232  3.16232  0.00000 -0.32463
       4     O     4.14701  4.14701  0.00000 -0.29402
       5     H     0.44925  0.44925  0.00000  0.10150
       6     H     0.42819  0.42819  0.00000  0.14363
       7     H     0.44363  0.44363  0.00000  0.11273
       8     C     2.99954  2.99954  0.00000  0.00092
       9     C     3.14004  3.14004  0.00000 -0.28008
      10     H     0.45972  0.45972  0.00000  0.08056
      11     H     0.43740  0.43740  0.00000  0.12520
      12     H     0.44993  0.44993  0.00000  0.10015
      13     H     0.45380  0.45380  0.00000  0.09241
      14     H     0.44201  0.44201  0.00000  0.11598

   Total alpha = 24.00000, Total beta = 24.00000, Total charge = -0.00000

*** Psi4 exiting successfully. Buy a developer a beer!
