  ==> Input File <==

--------------------------------------------------------------------------
set {
	reference rhf
	basis 6-31G*
}

set_num_threads( 4 )
memory 2 gb

molecule MOL {
0 1

H	 -4.031818	 -0.453427	 -0.000094
C	 -2.967712	 -0.297022	 -0.000064
C	 -2.458620	 0.992929	 0.000032
C	 -2.109895	 -1.385637	 -0.000122
H	 -3.124998	 1.836319	 0.000077
C	 -1.090278	 1.193236	 0.000070
H	 -2.506361	 -2.384847	 -0.000198
C	 -0.739812	 -1.187531	 -0.000085
H	 -0.678594	 2.184290	 0.000146
C	 -0.226438	 0.104061	 0.000012
H	 -0.072310	 -2.027032	 -0.000131
C	 1.239129	 0.373821	 0.000060
O	 1.674202	 0.877634	 1.145262
O	 1.954867	 0.162079	 -0.928241
C	 3.058582	 1.164786	 1.233064
H	 3.641048	 0.266156	 1.091675
H	 3.214144	 1.560634	 2.224506
H	 3.341621	 1.894415	 0.488450

	symmetry c1
}
set optking {
	frozen_dihedral = ("
		13 12 10 6
	")
}

ee = optimize('scf')
oeprop('DIPOLE', 'QUADRUPOLE', 'MULLIKEN_CHARGES')
f=open( 'psi4out.xyz', 'w' )
f.write( "18  " )
f.write( str(ee) + "\n" )
f.write( MOL.save_string_xyz() )
f.close()
--------------------------------------------------------------------------

    Molecular point group: c1
  Charge       = 0
  Multiplicity = 1
  Basis Set: 6-31G*
  Basis Set:
  @DF-RHF Final Energy:  -457.33929706513834
    Total Energy =                       -457.3392970651378846
    Molecular point group: c1
  Basis Set: 6-31G*
  Basis Set:
  Basis Set: 6-31G*
  Basis Set:
  @DF-RHF Final Energy:  -457.33999006378701
    Total Energy =                       -457.3399900637871269
  Basis Set: 6-31G*
  Basis Set:
  Basis Set: 6-31G*
  Basis Set:
  @DF-RHF Final Energy:  -457.34020428760482
    Total Energy =                       -457.3402042876051610
  Basis Set: 6-31G*
  Basis Set:
  Basis Set: 6-31G*
  Basis Set:
  @DF-RHF Final Energy:  -457.34029379172165
    Total Energy =                       -457.3402937917217059
  Basis Set: 6-31G*
  Basis Set:
  Basis Set: 6-31G*
  Basis Set:
  @DF-RHF Final Energy:  -457.34029676582151
    Total Energy =                       -457.3402967658217904
  Basis Set: 6-31G*
  Basis Set:
  Charge       = 0
  Multiplicity = 1
  Basis Set: 6-31G*
  Basis Set:

    Orbital Energies (a.u.)
    -----------------------

    Doubly Occupied:

       1A    -20.609828     2A    -20.550353     3A    -11.380347
       4A    -11.283616     5A    -11.250652     6A    -11.244399
       7A    -11.243231     8A    -11.240878     9A    -11.239343
      10A    -11.238748    11A     -1.475207    12A     -1.367908
      13A     -1.166400    14A     -1.048574    15A     -1.025614
      16A     -0.979993    17A     -0.859667    18A     -0.837882
      19A     -0.780251    20A     -0.737556    21A     -0.684923
      22A     -0.679806    23A     -0.676445    24A     -0.630437
      25A     -0.629621    26A     -0.597139    27A     -0.590933
      28A     -0.549682    29A     -0.536036    30A     -0.517455
      31A     -0.506488    32A     -0.501880    33A     -0.459555
      34A     -0.445256    35A     -0.342579    36A     -0.342036

  @DF-RHF Final Energy:  -457.34029744863528

   => Energetics <=

    Nuclear Repulsion Energy =            491.6317057506017818
    One-Electron Energy =               -1597.4425669918643962
    Two-Electron Energy =                 648.4705637926272175
    DFT Exchange-Correlation Energy =       0.0000000000000000
    Empirical Dispersion Energy =           0.0000000000000000
    PCM Polarization Energy =               0.0000000000000000
    EFP Energy =                            0.0000000000000000
    Total Energy =                       -457.3402974486352832
    Molecular point group: c1
  Basis Set: 6-31G*
  Basis Set:

  -Total Gradient:
     Atom            X                  Y                   Z
    ------   -----------------  -----------------  -----------------
       1       -0.000005662716     0.000022266333     0.000002546220
       2        0.000018573884    -0.000084879279     0.000017782900
       3        0.000071175333     0.000059229277    -0.000050622980
       4       -0.000102881224     0.000069758652    -0.000004985482
       5       -0.000017496541    -0.000008042175     0.000002895732
       6       -0.000247087582    -0.000161796215    -0.004778459642
       7        0.000020929302     0.000007479610    -0.000005485970
       8        0.000141704511     0.000118922473     0.000076581125
       9        0.000002285055     0.000002376215    -0.000004445642
      10        0.000423547414    -0.001347381889     0.007621105004
      11        0.000009830315    -0.000010173832     0.000001796823
      12       -0.000965791579     0.005671309727    -0.004671553463
      13        0.000671199808    -0.004324738652     0.001830342711
      14       -0.000015508245     0.000008342915    -0.000023324085
      15       -0.000008045438    -0.000038116646    -0.000012733530
      16        0.000011478048     0.000009638548     0.000002115789
      17       -0.000007082666     0.000003370264    -0.000002616097
      18       -0.000001167686     0.000002434671    -0.000000939414

  **** Optimization is complete! (in 6 steps) ****
    Final optimized geometry and variables:
    Molecular point group: c1

    Geometry (in Angstrom), charge = 0, multiplicity = 1:

    H           -3.990853778485    -0.706606690535    -0.230848261457
    C           -2.930281332951    -0.532499892820    -0.199181143295
    C           -2.441589733703     0.763957763877    -0.176949524400
    C           -2.051928632544    -1.604175608957    -0.188825544756
    H           -3.120637562573     1.597140014935    -0.197281062609
    C           -1.076287826088     0.989343037285    -0.128671555824
    H           -2.428342290829    -2.610797622331    -0.214746953778
    C           -0.685640354861    -1.381088656736    -0.160376818035
    H           -0.696998035041     1.995066212864    -0.102221078388
    C           -0.197724580864    -0.083984578483    -0.106401649267
    H           -0.001166914943    -2.209531347116    -0.181699336638
    C            1.282021119424     0.141955944028    -0.149208554748
    O            1.738932739420     0.676823906204     0.971892821546
    O            1.977990409657    -0.163977559219    -1.062355676191
    C            3.131612199465     0.933127960834     1.038811941917
    H            3.689780395057     0.013595831713     0.939114999625
    H            3.302553377383     1.372856333597     2.008750985658
    H            3.430182243119     1.617346603725     0.257679244379

  Mulliken Charges: (a.u.)
   Center  Symbol    Alpha    Beta     Spin     Total
       1     H     0.39634  0.39634  0.00000  0.20733
       2     C     3.09623  3.09623  0.00000 -0.19246
       3     C     3.10072  3.10072  0.00000 -0.20145
       4     C     3.10140  3.10140  0.00000 -0.20280
       5     H     0.39601  0.39601  0.00000  0.20797
       6     C     3.09536  3.09536  0.00000 -0.19073
       7     H     0.39569  0.39569  0.00000  0.20862
       8     C     3.09691  3.09691  0.00000 -0.19382
       9     H     0.39091  0.39091  0.00000  0.21818
      10     C     3.01473  3.01473  0.00000 -0.02946
      11     H     0.38818  0.38818  0.00000  0.22364
      12     C     2.63740  2.63740  0.00000  0.72520
      13     O     4.29664  4.29664  0.00000 -0.59329
      14     O     4.27665  4.27665  0.00000 -0.55330
      15     C     3.09419  3.09419  0.00000 -0.18838
      16     H     0.40759  0.40759  0.00000  0.18482
      17     H     0.40648  0.40648  0.00000  0.18704
      18     H     0.40856  0.40856  0.00000  0.18289

   Total alpha = 36.00000, Total beta = 36.00000, Total charge = -0.00000
