                              Psi4 1.0.54 Driver

  ==> Input File <==

--------------------------------------------------------------------------
set {
	reference rhf
	basis cc-pvtz
}

set_num_threads( 4 )
memory 2 gb

molecule MOL {
0 1

H	 -1.596979	 -1.459042	 -0.253883
O	 -2.321472	 -0.864941	 -0.318626
C	 -2.021813	 0.336996	 0.342658
C	 -0.669613	 0.837286	 -0.127252
H	 -2.780861	 1.084746	 0.127159
H	 -2.006390	 0.184138	 1.420053
C	 0.490865	 -0.082543	 0.241244
H	 -0.708709	 0.967192	 -1.204587
H	 -0.507562	 1.822272	 0.303070
C	 1.839800	 0.429565	 -0.255472
H	 0.305636	 -1.070211	 -0.165276
H	 0.527397	 -0.195943	 1.322876
C	 3.001144	 -0.485193	 0.119072
H	 1.804373	 0.541073	 -1.335756
H	 2.020437	 1.423114	 0.146921
H	 2.866892	 -1.477297	 -0.298806
H	 3.943543	 -0.095749	 -0.249061
H	 3.085064	 -0.590459	 1.195790

	symmetry c1
}
set optking {
	frozen_dihedral = ("
		1 2 3 4
	")
}

ee,wfn = optimize('scf', return_wfn=True)
oeprop( wfn, 'DIPOLE', 'QUADRUPOLE', 'MULLIKEN_CHARGES')
f=open( 'psi4out.xyz', 'w' )
f.write( "18  " )
f.write( str(ee) + "\n" )
f.write( MOL.save_string_xyz() )
f.close()
--------------------------------------------------------------------------

    Molecular point group: c1
  Charge       = 0
  Multiplicity = 1
  Basis Set: CC-PVTZ
  Basis Set:
  @DF-RHF Final Energy:  -271.28330300326508
    Total Energy =                       -271.2833030032653596
    Molecular point group: c1
  Basis Set: CC-PVTZ
  Basis Set:
  Basis Set: CC-PVTZ
  Basis Set:
  @DF-RHF Final Energy:  -271.23275310132601
    Total Energy =                       -271.2327531013257840
  Basis Set: CC-PVTZ
  Basis Set:
  Basis Set: CC-PVTZ
  Basis Set:
  @DF-RHF Final Energy:  -271.28255070611681
    Total Energy =                       -271.2825507061169219
  Basis Set: CC-PVTZ
  Basis Set:
  Basis Set: CC-PVTZ
  Basis Set:
  @DF-RHF Final Energy:  -271.28554853588753
    Total Energy =                       -271.2855485358875853
  Basis Set: CC-PVTZ
  Basis Set:
  Basis Set: CC-PVTZ
  Basis Set:
  @DF-RHF Final Energy:  -271.28565774329081
    Total Energy =                       -271.2856577432910399
  Basis Set: CC-PVTZ
  Basis Set:
  Basis Set: CC-PVTZ
  Basis Set:
  @DF-RHF Final Energy:  -271.28567297756859
    Total Energy =                       -271.2856729775684812
  Basis Set: CC-PVTZ
  Basis Set:
  Basis Set: CC-PVTZ
  Basis Set:
  @DF-RHF Final Energy:  -271.28567422674678
    Total Energy =                       -271.2856742267468348
  Basis Set: CC-PVTZ
  Basis Set:
  Charge       = 0
  Multiplicity = 1
  Basis Set: CC-PVTZ
  Basis Set:

    Orbital Energies (a.u.)
    -----------------------

    Doubly Occupied:

       1A    -20.544288     2A    -11.264834     3A    -11.221726
       4A    -11.219602     5A    -11.217008     6A    -11.211543
       7A     -1.362779     8A     -1.086252     9A     -1.014833
      10A     -0.924138    11A     -0.833255    12A     -0.796044
      13A     -0.688175    14A     -0.654337    15A     -0.618488
      16A     -0.612648    17A     -0.578036    18A     -0.564244
      19A     -0.531498    20A     -0.512156    21A     -0.496337
      22A     -0.477846    23A     -0.472123    24A     -0.452677
      25A     -0.431476

  @DF-RHF Final Energy:  -271.28567457854155

   => Energetics <=

    Nuclear Repulsion Energy =            249.0526646126673427
    One-Electron Energy =                -861.1039974381808406
    Two-Electron Energy =                 340.7656582469719524
    DFT Exchange-Correlation Energy =       0.0000000000000000
    Empirical Dispersion Energy =           0.0000000000000000
    PCM Polarization Energy =               0.0000000000000000
    EFP Energy =                            0.0000000000000000
    Total Energy =                       -271.2856745785416024
    Molecular point group: c1
  Basis Set: CC-PVTZ
  Basis Set:

  -Total Gradient:
     Atom            X                  Y                   Z
    ------   -----------------  -----------------  -----------------
       1        0.000299850610     0.000065529980    -0.001599458486
       2       -0.000224467752    -0.000357956394     0.002300390694
       3       -0.000522734856     0.000840019491    -0.001463428911
       4        0.000425923129    -0.000540540944     0.000774851494
       5        0.000013031701    -0.000007131184     0.000004283879
       6        0.000008731677     0.000005979187    -0.000019385017
       7        0.000001976331    -0.000010349272    -0.000012820222
       8       -0.000005111094     0.000002136004     0.000017122413
       9        0.000012534672     0.000001434974    -0.000011146580
      10       -0.000011275790    -0.000006343652    -0.000002717210
      11        0.000004731049     0.000001080018    -0.000001904872
      12        0.000006792820    -0.000003172136    -0.000002583307
      13        0.000004648966     0.000004880482     0.000010612489
      14       -0.000008091010     0.000002940863     0.000000411280
      15       -0.000003738314    -0.000009802461    -0.000001117734
      16        0.000004286060     0.000014625555    -0.000001449754
      17       -0.000010047631     0.000003873606     0.000005734955
      18        0.000002959428    -0.000007204120     0.000002604892

  **** Optimization is complete! (in 8 steps) ****
    Final optimized geometry and variables:
    Molecular point group: c1

    Geometry (in Angstrom), charge = 0, multiplicity = 1:

    H           -2.186558580208    -0.692334755390     0.468633173302
    O           -2.576217972353     0.159817282588     0.408960102785
    C           -1.610336068750     1.153495994275     0.624979219815
    C           -0.351359084610     0.983490151636    -0.212380539860
    H           -2.090018180138     2.090299718975     0.376456127925
    H           -1.345017602824     1.195479301556     1.680088620132
    C            0.474418975061    -0.254627255639     0.131226701981
    H           -0.629696657526     0.959819506201    -1.261949787008
    H            0.262983892035     1.868812974572    -0.070217418786
    C            1.759899858253    -0.362690369144    -0.684853019363
    H           -0.112554557515    -1.155598925497    -0.034282906563
    H            0.722043827229    -0.240023315969     1.190281202811
    C            2.583516562958    -1.600402181970    -0.346081631931
    H            1.511974897571    -0.372224138600    -1.742410800502
    H            2.361738308930     0.526774834268    -0.521222218358
    H            2.021033924286    -2.508915017188    -0.534150091812
    H            3.488424630883    -1.643798074638    -0.940889865281
    H            2.874522264868    -1.603426490863     0.699096978404

  Mulliken Charges: (a.u.)
   Center  Symbol    Alpha    Beta     Spin     Total
       1     H     0.39167  0.39167  0.00000  0.21666
       2     O     4.20627  4.20627  0.00000 -0.41254
       3     C     2.96973  2.96973  0.00000  0.06054
       4     C     3.09761  3.09761  0.00000 -0.19523
       5     H     0.45143  0.45143  0.00000  0.09713
       6     H     0.47361  0.47361  0.00000  0.05277
       7     C     3.09363  3.09363  0.00000 -0.18726
       8     H     0.44928  0.44928  0.00000  0.10143
       9     H     0.45540  0.45540  0.00000  0.08921
      10     C     3.08437  3.08437  0.00000 -0.16873
      11     H     0.46278  0.46278  0.00000  0.07444
      12     H     0.45174  0.45174  0.00000  0.09652
      13     C     3.14961  3.14961  0.00000 -0.29921
      14     H     0.45248  0.45248  0.00000  0.09504
      15     H     0.45308  0.45308  0.00000  0.09384
      16     H     0.45516  0.45516  0.00000  0.08969
      17     H     0.44735  0.44735  0.00000  0.10531
      18     H     0.45481  0.45481  0.00000  0.09039

   Total alpha = 25.00000, Total beta = 25.00000, Total charge =  0.00000

*** Psi4 exiting successfully. Buy a developer a beer!
