  ==> Input File <==

--------------------------------------------------------------------------
set {
	reference rhf
	basis 6-31G*
}

set_num_threads( 4 )
memory 2 gb

molecule MOL {
0 1

O	 -2.439739	 -0.935931	 -0.423848
C	 -1.921153	 0.064240	 -0.045697
C	 -2.624470	 1.379923	 0.150949
O	 -0.632575	 0.154573	 0.251549
H	 -2.168117	 2.136577	 -0.476876
H	 -3.669540	 1.273223	 -0.098610
H	 -2.519365	 1.700893	 1.180846
C	 0.160891	 -1.019931	 0.106212
C	 1.589627	 -0.672828	 0.480843
H	 0.089836	 -1.367806	 -0.916050
H	 -0.238459	 -1.792301	 0.749618
C	 2.246377	 0.346236	 -0.452210
H	 2.163194	 -1.597435	 0.473358
H	 1.604769	 -0.303424	 1.502885
C	 1.571171	 0.407470	 -1.821644
H	 2.213422	 1.330064	 0.011574
H	 3.295275	 0.096906	 -0.574709
H	 2.055219	 1.135821	 -2.464478
H	 0.525317	 0.687875	 -1.733107
H	 1.613511	 -0.555383	 -2.322842

	symmetry c1
}
set optking {
	frozen_dihedral = ("
		16 12 9 8
	")
}

ee = optimize('scf')
oeprop('DIPOLE', 'QUADRUPOLE', 'MULLIKEN_CHARGES')
f=open( 'psi4out.xyz', 'w' )
f.write( "20  " )
f.write( str(ee) + "\n" )
f.write( MOL.save_string_xyz() )
f.close()
--------------------------------------------------------------------------

    Molecular point group: c1
  Charge       = 0
  Multiplicity = 1
  Basis Set: 6-31G*
  Basis Set:
  @DF-RHF Final Energy:  -383.93586505227216
    Total Energy =                       -383.9358650522721064
    Molecular point group: c1
  Basis Set: 6-31G*
  Basis Set:
  Basis Set: 6-31G*
  Basis Set:
  @DF-RHF Final Energy:  -383.93829879121722
    Total Energy =                       -383.9382987912174485
  Basis Set: 6-31G*
  Basis Set:
  Basis Set: 6-31G*
  Basis Set:
  @DF-RHF Final Energy:  -383.93916119401297
    Total Energy =                       -383.9391611940131952
  Basis Set: 6-31G*
  Basis Set:
  Basis Set: 6-31G*
  Basis Set:
  @DF-RHF Final Energy:  -383.93858904879528
    Total Energy =                       -383.9385890487956203
  Basis Set: 6-31G*
  Basis Set:
  @DF-RHF Final Energy:  -383.93929963907266
    Total Energy =                       -383.9392996390722601
  Basis Set: 6-31G*
  Basis Set:
  @DF-RHF Final Energy:  -383.93943446768714
    Total Energy =                       -383.9394344676869650
  Basis Set: 6-31G*
  Basis Set:
  Basis Set: 6-31G*
  Basis Set:
  @DF-RHF Final Energy:  -383.93943129299737
    Total Energy =                       -383.9394312929974831
  Basis Set: 6-31G*
  Basis Set:
  Basis Set: 6-31G*
  Basis Set:
  @DF-RHF Final Energy:  -383.93943704552345
    Total Energy =                       -383.9394370455236185
  Basis Set: 6-31G*
  Basis Set:
  Charge       = 0
  Multiplicity = 1
  Basis Set: 6-31G*
  Basis Set:

    Orbital Energies (a.u.)
    -----------------------

    Doubly Occupied:

       1A    -20.601373     2A    -20.543927     3A    -11.374243
       4A    -11.281581     5A    -11.233301     6A    -11.226168
       7A    -11.222069     8A    -11.212852     9A     -1.467389
      10A     -1.361709    11A     -1.083534    12A     -1.025961
      13A     -0.979493    14A     -0.893480    15A     -0.803207
      16A     -0.769972    17A     -0.690021    18A     -0.687961
      19A     -0.662891    20A     -0.626389    21A     -0.614576
      22A     -0.579171    23A     -0.570861    24A     -0.560858
      25A     -0.539121    26A     -0.528375    27A     -0.521695
      28A     -0.478839    29A     -0.471033    30A     -0.469834
      31A     -0.449296    32A     -0.437649

  @DF-RHF Final Energy:  -383.93943705931923

   => Energetics <=

    Nuclear Repulsion Energy =            393.8132678080101527
    One-Electron Energy =               -1303.5677515781726470
    Two-Electron Energy =                 525.8150467108433759
    DFT Exchange-Correlation Energy =       0.0000000000000000
    Empirical Dispersion Energy =           0.0000000000000000
    PCM Polarization Energy =               0.0000000000000000
    EFP Energy =                            0.0000000000000000
    Total Energy =                       -383.9394370593191752
    Molecular point group: c1
  Basis Set: 6-31G*
  Basis Set:

  -Total Gradient:
     Atom            X                  Y                   Z
    ------   -----------------  -----------------  -----------------
       1        0.000012431722     0.000006028764     0.000002945873
       2       -0.000014384209     0.000006029190    -0.000007903409
       3       -0.000005020803     0.000001577606    -0.000001667134
       4        0.000002715669    -0.000013326931    -0.000018268257
       5        0.000000634082    -0.000001118638     0.000002371524
       6       -0.000002045183     0.000002953050     0.000001545095
       7       -0.000001396244    -0.000000315520     0.000000807103
       8        0.001495856903    -0.003481575616    -0.002599824140
       9       -0.000902842055     0.004738794060     0.004441248388
      10        0.000000414073     0.000002761894    -0.000009190089
      11        0.000007031060    -0.000006944974    -0.000005610896
      12       -0.005925735915    -0.000065239621    -0.004564520976
      13        0.000002261103     0.000000187464     0.000002228829
      14       -0.000004350975     0.000000264464    -0.000001777800
      15        0.000001560203     0.000001230002     0.000010177361
      16        0.005336374479    -0.001196767486     0.002745845009
      17        0.000002292767     0.000004115035    -0.000001649875
      18        0.000002068007    -0.000002604885     0.000001708165
      19       -0.000001221656     0.000010262957    -0.000005051539
      20       -0.000006643030    -0.000006310814     0.000006586770

  **** Optimization is complete! (in 9 steps) ****
    Final optimized geometry and variables:
    Molecular point group: c1

    Geometry (in Angstrom), charge = 0, multiplicity = 1:

    O           -2.218452779146    -0.939193106554    -0.078243924605
    C           -1.693939780546     0.079817216977     0.236550248785
    C           -2.404545129115     1.392625507349     0.427278726588
    O           -0.393352151489     0.194366441497     0.464962919568
    H           -1.994997400750     2.132641790709    -0.250678573966
    H           -3.460161811035     1.263955980210     0.240208851133
    H           -2.247013294550     1.750837530216     1.438034605589
    C            0.406855613793    -0.977918524513     0.323182413673
    C            1.841225636626    -0.620027150279     0.664389341681
    H            0.306355098028    -1.353239582787    -0.684504969177
    H            0.033350392879    -1.736855379642     0.997255188901
    C            2.547915089499     0.390008281493    -0.267866031509
    H            2.389042428737    -1.559927694250     0.647885516237
    H            1.880416168719    -0.262647213363     1.687972587691
    C            2.043635879565     0.461079191625    -1.708371919415
    H            2.533827401582     1.374771234952     0.188834972390
    H            3.601633493323     0.122254273637    -0.292049604314
    H            2.651161994664     1.153943134297    -2.281737015684
    H            1.016253621257     0.801965329417    -1.761358091229
    H            2.103000081642    -0.506170328303    -2.199593421696

  Mulliken Charges: (a.u.)
   Center  Symbol    Alpha    Beta     Spin     Total
       1     O     4.28332  4.28332  0.00000 -0.56664
       2     C     2.61964  2.61964  0.00000  0.76072
       3     C     3.28169  3.28169  0.00000 -0.56338
       4     O     4.30909  4.30909  0.00000 -0.61819
       5     H     0.40085  0.40085  0.00000  0.19831
       6     H     0.39691  0.39691  0.00000  0.20618
       7     H     0.40058  0.40058  0.00000  0.19884
       8     C     3.00559  3.00559  0.00000 -0.01118
       9     C     3.16745  3.16745  0.00000 -0.33490
      10     H     0.40822  0.40822  0.00000  0.18355
      11     H     0.40752  0.40752  0.00000  0.18496
      12     C     3.15283  3.15283  0.00000 -0.30565
      13     H     0.41805  0.41805  0.00000  0.16391
      14     H     0.41161  0.41161  0.00000  0.17678
      15     C     3.24700  3.24700  0.00000 -0.49400
      16     H     0.41612  0.41612  0.00000  0.16776
      17     H     0.42013  0.42013  0.00000  0.15974
      18     H     0.41715  0.41715  0.00000  0.16571
      19     H     0.41483  0.41483  0.00000  0.17033
      20     H     0.42143  0.42143  0.00000  0.15715

   Total alpha = 32.00000, Total beta = 32.00000, Total charge =  0.00000
