  ==> Input File <==

--------------------------------------------------------------------------
set {
	reference rhf
	basis 6-31G*
}

set_num_threads( 4 )
memory 2 gb

molecule MOL {
0 1

H	 -3.161837	 0.500524	 -0.000234
C	 -2.367097	 -0.232926	 -0.000000
O	 -1.158440	 0.455814	 -0.000122
H	 -2.468853	 -0.861886	 -0.882833
H	 -2.468942	 -0.861421	 0.883154
C	 -1.070090	 1.460300	 -0.965045
C	 0.290147	 2.126952	 -0.855536
H	 -1.864110	 2.193537	 -0.817414
H	 -1.205094	 1.036816	 -1.961209
C	 0.476659	 3.245956	 -1.879218
H	 0.402068	 2.517405	 0.151282
H	 1.056514	 1.368840	 -0.984559
H	 -0.266614	 4.028039	 -1.751487
H	 1.455166	 3.703439	 -1.778823
H	 0.391772	 2.871428	 -2.895548

	symmetry c1
}
set optking {
	frozen_dihedral = ("
		6 3 2 4
	")
}

ee = optimize('scf')
oeprop('DIPOLE', 'QUADRUPOLE', 'MULLIKEN_CHARGES')
f=open( 'psi4out.xyz', 'w' )
f.write( "15  " )
f.write( str(ee) + "\n" )
f.write( MOL.save_string_xyz() )
f.close()
--------------------------------------------------------------------------

    Molecular point group: c1
  Charge       = 0
  Multiplicity = 1
  Basis Set: 6-31G*
  Basis Set:
  @DF-RHF Final Energy:  -232.13795518191029
    Total Energy =                       -232.1379551819102858
    Molecular point group: c1
  Basis Set: 6-31G*
  Basis Set:
  Basis Set: 6-31G*
  Basis Set:
  @DF-RHF Final Energy:  -232.13895004711165
    Total Energy =                       -232.1389500471117344
  Basis Set: 6-31G*
  Basis Set:
  Basis Set: 6-31G*
  Basis Set:
  @DF-RHF Final Energy:  -232.13922658648391
    Total Energy =                       -232.1392265864839146
  Basis Set: 6-31G*
  Basis Set:
  Basis Set: 6-31G*
  Basis Set:
  @DF-RHF Final Energy:  -232.13922790991722
    Total Energy =                       -232.1392279099172242
  Basis Set: 6-31G*
  Basis Set:
  Charge       = 0
  Multiplicity = 1
  Basis Set: 6-31G*
  Basis Set:

    Orbital Energies (a.u.)
    -----------------------

    Doubly Occupied:

       1A    -20.553242     2A    -11.266286     3A    -11.263921
       4A    -11.214252     5A    -11.212936     6A     -1.377999
       7A     -1.057262     8A     -0.955347     9A     -0.877223
      10A     -0.809058    11A     -0.674730    12A     -0.653735
      13A     -0.630071    14A     -0.607775    15A     -0.565293
      16A     -0.541743    17A     -0.502755    18A     -0.488725
      19A     -0.478160    20A     -0.461364    21A     -0.413621

  @DF-RHF Final Energy:  -232.13922824005667

   => Energetics <=

    Nuclear Repulsion Energy =            189.7004407512235105
    One-Electron Energy =                -690.4683421579459264
    Two-Electron Energy =                 268.6286731666658056
    DFT Exchange-Correlation Energy =       0.0000000000000000
    Empirical Dispersion Energy =           0.0000000000000000
    PCM Polarization Energy =               0.0000000000000000
    EFP Energy =                            0.0000000000000000
    Total Energy =                       -232.1392282400566387
    Molecular point group: c1
  Basis Set: 6-31G*
  Basis Set:

  -Total Gradient:
     Atom            X                  Y                   Z
    ------   -----------------  -----------------  -----------------
       1        0.000001316962     0.000000078968    -0.000000330532
       2       -0.000975707905     0.001700395672    -0.000609934033
       3        0.000785295351    -0.001381942364    -0.000845936282
       4        0.000618085917    -0.001073111542     0.000711894109
       5        0.000003702287     0.000000245021     0.000000168154
       6       -0.000437250166     0.000760279036     0.000748024830
       7        0.000001906891    -0.000003540164    -0.000002130604
       8       -0.000003767686    -0.000001107747    -0.000001203272
       9        0.000002707449    -0.000002682546     0.000006503354
      10        0.000003834503     0.000000010848    -0.000004344830
      11       -0.000005871577    -0.000003633107    -0.000001537610
      12        0.000004466904     0.000002174697     0.000000952855
      13        0.000000930806    -0.000000842891     0.000000933793
      14        0.000000958447     0.000001741698    -0.000002409588
      15       -0.000000608182     0.000001934425    -0.000000650345

  **** Optimization is complete! (in 5 steps) ****
    Final optimized geometry and variables:
    Molecular point group: c1

    Geometry (in Angstrom), charge = 0, multiplicity = 1:

    H           -2.432607377002    -0.940125684522     0.768292173892
    C           -1.582833634007    -1.618977185511     0.732108619540
    O           -0.373740881936    -0.930380360601     0.736914930519
    H           -1.677319393846    -2.252051898443    -0.148486796419
    H           -1.603081356296    -2.249242755967     1.611129717112
    C           -0.276029147685     0.069821374935    -0.232042426166
    C            1.086540085837     0.730841821823    -0.117561077917
    H           -1.067805091617     0.806249822774    -0.090066005220
    H           -0.407294169028    -0.355816631816    -1.227886756159
    C            1.282134116521     1.847825059143    -1.141832952037
    H            1.195537081765     1.121832665658     0.889397597075
    H            1.850428695759    -0.030437647451    -0.242440921844
    H            0.541371819165     2.632970091741    -1.018332830602
    H            2.261936146225     2.301741097868    -1.037686417788
    H            1.200135411422     1.472480480176    -2.158108008462

  Mulliken Charges: (a.u.)
   Center  Symbol    Alpha    Beta     Spin     Total
       1     H     0.43087  0.43087  0.00000  0.13826
       2     C     3.07912  3.07912  0.00000 -0.15824
       3     O     4.30610  4.30610  0.00000 -0.61220
       4     H     0.42949  0.42949  0.00000  0.14103
       5     H     0.41257  0.41257  0.00000  0.17487
       6     C     2.98151  2.98151  0.00000  0.03698
       7     C     3.15985  3.15985  0.00000 -0.31971
       8     H     0.43314  0.43314  0.00000  0.13371
       9     H     0.43365  0.43365  0.00000  0.13270
      10     C     3.24791  3.24791  0.00000 -0.49582
      11     H     0.41432  0.41432  0.00000  0.17136
      12     H     0.41434  0.41434  0.00000  0.17132
      13     H     0.42087  0.42087  0.00000  0.15825
      14     H     0.41541  0.41541  0.00000  0.16918
      15     H     0.42084  0.42084  0.00000  0.15831

   Total alpha = 21.00000, Total beta = 21.00000, Total charge =  0.00000
