  ==> Input File <==

--------------------------------------------------------------------------
set {
	reference rhf
	basis cc-pvtz
}

set_num_threads( 4 )
memory 2 gb

molecule MOL {
0 1

H	 -1.752232	 -2.214755	 -0.011938
C	 -1.343852	 -1.221619	 -0.018179
N	 -0.058800	 -1.097635	 -0.261688
C	 -2.148159	 -0.124236	 0.219734
C	 0.449026	 0.119242	 -0.273393
H	 -3.196988	 -0.237571	 0.417076
N	 -1.655094	 1.094230	 0.209506
C	 -0.370318	 1.215445	 -0.035100
C	 1.924033	 0.265863	 -0.538106
H	 0.033214	 2.210441	 -0.046812
C	 2.624215	 -1.079799	 -0.734035
H	 2.048836	 0.869414	 -1.429123
H	 2.384555	 0.804101	 0.281914
H	 3.674476	 -0.932079	 -0.955544
H	 2.176944	 -1.626093	 -1.554090
H	 2.551827	 -1.691023	 0.158552

	symmetry c1
}
set optking {
	frozen_dihedral = ("
		12 9 5 3
	")
}

ee = optimize('scf')
oeprop('DIPOLE', 'QUADRUPOLE', 'MULLIKEN_CHARGES')
f=open( 'psi4out.xyz', 'w' )
f.write( "16  " )
f.write( str(ee) + "\n" )
f.write( MOL.save_string_xyz() )
f.close()
--------------------------------------------------------------------------

    Molecular point group: c1
  Charge       = 0
  Multiplicity = 1
  Basis Set: CC-PVTZ
  Basis Set:
  @DF-RHF Final Energy:  -340.87005784814721
    Total Energy =                       -340.8700578481469847
    Molecular point group: c1
  Basis Set: CC-PVTZ
  Basis Set:
  Basis Set: CC-PVTZ
  Basis Set:
  @DF-RHF Final Energy:  -340.87076014274487
    Total Energy =                       -340.8707601427450982
  Basis Set: CC-PVTZ
  Basis Set:
  Basis Set: CC-PVTZ
  Basis Set:
  @DF-RHF Final Energy:  -340.87093739974159
    Total Energy =                       -340.8709373997417060
  Basis Set: CC-PVTZ
  Basis Set:
  Basis Set: CC-PVTZ
  Basis Set:
  @DF-RHF Final Energy:  -340.87097395667831
    Total Energy =                       -340.8709739566780854
  Basis Set: CC-PVTZ
  Basis Set:
  Basis Set: CC-PVTZ
  Basis Set:
  @DF-RHF Final Energy:  -340.87099355949607
    Total Energy =                       -340.8709935594958438
  Basis Set: CC-PVTZ
  Basis Set:
  Basis Set: CC-PVTZ
  Basis Set:
  @DF-RHF Final Energy:  -340.87099471661736
    Total Energy =                       -340.8709947166174743
  Basis Set: CC-PVTZ
  Basis Set:
  Basis Set: CC-PVTZ
  Basis Set:
  @DF-RHF Final Energy:  -340.87099631186641
    Total Energy =                       -340.8709963118665200
  Basis Set: CC-PVTZ
  Basis Set:
  Charge       = 0
  Multiplicity = 1
  Basis Set: CC-PVTZ
  Basis Set:

    Orbital Energies (a.u.)
    -----------------------

    Doubly Occupied:

       1A    -15.580268     2A    -15.574864     3A    -11.280690
       4A    -11.270335     5A    -11.269446     6A    -11.265709
       7A    -11.233762     8A    -11.210959     9A     -1.315717
      10A     -1.223853    11A     -1.084746    12A     -1.015264
      13A     -0.912516    14A     -0.890224    15A     -0.824930
      16A     -0.720560    17A     -0.707831    18A     -0.657971
      19A     -0.630622    20A     -0.604384    21A     -0.569241
      22A     -0.560556    23A     -0.523301    24A     -0.504252
      25A     -0.501753    26A     -0.487491    27A     -0.435096
      28A     -0.397238    29A     -0.345431

  @DF-RHF Final Energy:  -340.87099645898098

   => Energetics <=

    Nuclear Repulsion Energy =            350.4188626343051851
    One-Electron Energy =               -1155.3817005678429268
    Two-Electron Energy =                 464.0918414745567588
    DFT Exchange-Correlation Energy =       0.0000000000000000
    Empirical Dispersion Energy =           0.0000000000000000
    PCM Polarization Energy =               0.0000000000000000
    EFP Energy =                            0.0000000000000000
    Total Energy =                       -340.8709964589809260
    Molecular point group: c1
  Basis Set: CC-PVTZ
  Basis Set:

  -Total Gradient:
     Atom            X                  Y                   Z
    ------   -----------------  -----------------  -----------------
       1        0.000003328173     0.000001645264    -0.000016841546
       2        0.000002501718     0.000006581637     0.000029156522
       3       -0.000004310654    -0.000013337249     0.000014887141
       4        0.000004720081    -0.000012626755     0.000027669758
       5       -0.000004548846     0.000010148478    -0.000002795066
       6       -0.000006393584     0.000003949454    -0.000018577175
       7        0.000019550397     0.000001452083     0.000004382933
       8       -0.000020055177     0.000002524394    -0.000045222911
       9        0.000018326712    -0.000036558318    -0.000023626084
      10        0.000004490356     0.000005499145     0.000008166185
      11       -0.000011619214    -0.000013151142    -0.000000611702
      12        0.000001748497     0.000036274503     0.000024194849
      13       -0.000011418546    -0.000005883855    -0.000003077193
      14       -0.000000920574     0.000009192850     0.000000871364
      15        0.000000941518     0.000002125456     0.000001865523
      16        0.000003659143     0.000002164051    -0.000000442598

  **** Optimization is complete! (in 8 steps) ****
    Final optimized geometry and variables:
    Molecular point group: c1

    Geometry (in Angstrom), charge = 0, multiplicity = 1:

    H           -1.795933688303    -2.073516115371     0.183261843384
    C           -1.367173172159    -1.089498126441     0.175753054006
    N           -0.071364022995    -0.997466996864    -0.072012549290
    C           -2.139070740949     0.019910159679     0.414220831360
    C            0.464254966022     0.197421345957    -0.084075557715
    H           -3.189762573608    -0.063549429252     0.614057190314
    N           -1.611513371420     1.233072686014     0.405784098934
    C           -0.332604877403     1.319843224387     0.161183336069
    C            1.939926954745     0.362101938111    -0.366247034530
    H            0.101420009045     2.303075661500     0.154030236838
    C            2.705709711895    -0.940148043598    -0.551641870284
    H            2.048003438310     0.979943469001    -1.253028022810
    H            2.378654802049     0.933505215773     0.446182507833
    H            3.750429787954    -0.726983297561    -0.744240737134
    H            2.314325903069    -1.511271244741    -1.382575349175
    H            2.641260927019    -1.562504904844     0.331092362706

  Mulliken Charges: (a.u.)
   Center  Symbol    Alpha    Beta     Spin     Total
       1     H     0.41472  0.41472  0.00000  0.17057
       2     C     3.04909  3.04909  0.00000 -0.09819
       3     N     3.58869  3.58869  0.00000 -0.17738
       4     C     3.04672  3.04672  0.00000 -0.09344
       5     C     2.94517  2.94517  0.00000  0.10966
       6     H     0.41361  0.41361  0.00000  0.17277
       7     N     3.58678  3.58678  0.00000 -0.17356
       8     C     3.07356  3.07356  0.00000 -0.14712
       9     C     3.08191  3.08191  0.00000 -0.16382
      10     H     0.41606  0.41606  0.00000  0.16788
      11     C     3.14343  3.14343  0.00000 -0.28686
      12     H     0.44617  0.44617  0.00000  0.10767
      13     H     0.44653  0.44653  0.00000  0.10695
      14     H     0.45011  0.45011  0.00000  0.09977
      15     H     0.44825  0.44825  0.00000  0.10349
      16     H     0.44919  0.44919  0.00000  0.10162

   Total alpha = 29.00000, Total beta = 29.00000, Total charge = -0.00000
