  ==> Input File <==

--------------------------------------------------------------------------
set {
	reference rhf
	basis cc-pvtz
}

set_num_threads( 4 )
memory 2 gb

molecule MOL {
0 1

H	 -2.777000	 0.000000	 0.102000
N	 -1.800000	 0.000000	 0.315000
C	 -1.167000	 1.200000	 -0.202000
C	 -1.167000	 -1.200000	 -0.202000
H	 -1.658000	 2.068000	 0.224000
H	 -1.236000	 1.272000	 -1.290000
C	 0.302000	 1.199000	 0.193000
H	 -1.658000	 -2.068000	 0.224000
H	 -1.236000	 -1.272000	 -1.290000
C	 0.302000	 -1.199000	 0.193000
H	 0.378000	 1.279000	 1.282000
H	 0.794000	 2.064000	 -0.238000
N	 0.956000	 0.000000	 -0.300000
H	 0.794000	 -2.064000	 -0.238000
H	 0.378000	 -1.279000	 1.282000
C	 2.373000	 -0.000000	 -0.026000
H	 2.833000	 -0.877000	 -0.469000
H	 2.833000	 0.877000	 -0.469000
H	 2.603000	 -0.000000	 1.044000

	symmetry c1
}
ee = optimize('scf')
oeprop('DIPOLE', 'QUADRUPOLE', 'MULLIKEN_CHARGES')
f=open( 'psi4out.xyz', 'w' )
f.write( "19  " )
f.write( str(ee) + "\n" )
f.write( MOL.save_string_xyz() )
f.close()
--------------------------------------------------------------------------

    Molecular point group: c1
  Charge       = 0
  Multiplicity = 1
  Basis Set: CC-PVTZ
  Basis Set:
  @DF-RHF Final Energy:  -305.30901815954218
    Total Energy =                       -305.3090181595422337
    Molecular point group: c1
  Basis Set: CC-PVTZ
  Basis Set:
  Basis Set: CC-PVTZ
  Basis Set:
  @DF-RHF Final Energy:  -305.30909262334569
    Total Energy =                       -305.3090926233456912
  Basis Set: CC-PVTZ
  Basis Set:
  Charge       = 0
  Multiplicity = 1
  Basis Set: CC-PVTZ
  Basis Set:

    Orbital Energies (a.u.)
    -----------------------

    Doubly Occupied:

       1A    -15.536597     2A    -15.531272     3A    -11.237295
       4A    -11.237278     5A    -11.235849     6A    -11.235836
       7A    -11.233227     8A     -1.249479     9A     -1.187862
      10A     -1.024098    11A     -0.965864    12A     -0.861862
      13A     -0.858278    14A     -0.757553    15A     -0.692857
      16A     -0.635364    17A     -0.627678    18A     -0.609514
      19A     -0.605430    20A     -0.581528    21A     -0.543723
      22A     -0.529008    23A     -0.512499    24A     -0.490690
      25A     -0.467922    26A     -0.458409    27A     -0.366179
      28A     -0.348148

  @DF-RHF Final Energy:  -305.30909528459551

   => Energetics <=

    Nuclear Repulsion Energy =            340.3400253267675453
    One-Electron Energy =               -1088.0556515789739933
    Two-Electron Energy =                 442.4065309676112747
    DFT Exchange-Correlation Energy =       0.0000000000000000
    Empirical Dispersion Energy =           0.0000000000000000
    PCM Polarization Energy =               0.0000000000000000
    EFP Energy =                            0.0000000000000000
    Total Energy =                       -305.3090952845951733
    Molecular point group: c1
  Basis Set: CC-PVTZ
  Basis Set:

  -Total Gradient:
     Atom            X                  Y                   Z
    ------   -----------------  -----------------  -----------------
       1       -0.000083244256    -0.000009535444    -0.000000000195
       2        0.000125008604     0.000141240022    -0.000000000399
       3       -0.000102686051    -0.000142747144     0.000077853322
       4       -0.000102683449    -0.000142747627    -0.000077854029
       5       -0.000013897035     0.000007669521    -0.000071012560
       6        0.000010804105     0.000039970654     0.000000612933
       7        0.000081124397     0.000084300491     0.000101668410
       8       -0.000013897828     0.000007668990     0.000071013348
       9        0.000010804011     0.000039970828    -0.000000612825
      10        0.000081124660     0.000084301285    -0.000101666091
      11       -0.000020580767    -0.000040411776    -0.000013785169
      12        0.000038646344     0.000010331270    -0.000040806684
      13        0.000027147702    -0.000076087734     0.000000000128
      14        0.000038645764     0.000010330747     0.000040805186
      15       -0.000020581431    -0.000040411222     0.000013785010
      16       -0.000103638480     0.000031542440     0.000000000144
      17        0.000017645982     0.000015021654     0.000042156129
      18        0.000017646165     0.000015021829    -0.000042156527
      19        0.000012611565    -0.000035428784    -0.000000000132

  **** Optimization is complete! (in 3 steps) ****
    Final optimized geometry and variables:
    Molecular point group: c1

    Geometry (in Angstrom), charge = 0, multiplicity = 1:

    H            2.753583544845     0.105172354191    -0.000000002330
    N            1.779401040849     0.314643594664    -0.000000001764
    C            1.145555369148    -0.197414862910     1.198281132900
    C            1.145555368580    -0.197414866733    -1.198281132335
    H            1.631429134174     0.230754983151     2.066582722389
    H            1.219354724174    -1.283896028535     1.273988855676
    C           -0.322070794552     0.190073386444     1.196711007906
    H            1.631429132147     0.230754972565    -2.066582724818
    H            1.219354718196    -1.283896033094    -1.273988849464
    C           -0.322070793823     0.190073390714    -1.196711005326
    H           -0.402613077687     1.277872038057     1.279154300360
    H           -0.810900253944    -0.241697831075     2.062008030740
    N           -0.976576975833    -0.298712352281    -0.000000000234
    H           -0.810900254418    -0.241697820497    -2.062008031014
    H           -0.402613074628     1.277872042938    -1.279154291825
    C           -2.391155429378    -0.021003319618    -0.000000001221
    H           -2.853954132726    -0.458727932387    -0.875714147300
    H           -2.853954133787    -0.458727930802     0.875714144908
    H           -2.614036544500     1.049773251891    -0.000000002459

  Mulliken Charges: (a.u.)
   Center  Symbol    Alpha    Beta     Spin     Total
       1     H     0.43998  0.43998  0.00000  0.12003
       2     N     3.64289  3.64289  0.00000 -0.28579
       3     C     3.04077  3.04077  0.00000 -0.08155
       4     C     3.04077  3.04077  0.00000 -0.08155
       5     H     0.45242  0.45242  0.00000  0.09517
       6     H     0.46532  0.46532  0.00000  0.06936
       7     C     3.03441  3.03441  0.00000 -0.06881
       8     H     0.45242  0.45242  0.00000  0.09517
       9     H     0.46532  0.46532  0.00000  0.06936
      10     C     3.03441  3.03441  0.00000 -0.06881
      11     H     0.46841  0.46841  0.00000  0.06318
      12     H     0.45408  0.45408  0.00000  0.09185
      13     N     3.61437  3.61437  0.00000 -0.22874
      14     H     0.45408  0.45408  0.00000  0.09185
      15     H     0.46841  0.46841  0.00000  0.06318
      16     C     3.09692  3.09692  0.00000 -0.19384
      17     H     0.45238  0.45238  0.00000  0.09524
      18     H     0.45238  0.45238  0.00000  0.09524
      19     H     0.47028  0.47028  0.00000  0.05945

   Total alpha = 28.00000, Total beta = 28.00000, Total charge =  0.00000
