                              Psi4 1.0.54 Driver

  ==> Input File <==

--------------------------------------------------------------------------
set {
	reference rhf
	basis cc-pvtz
}

set_num_threads( 4 )
memory 2 gb

molecule MOL {
0 1

O	 1.216252	 1.304920	 0.000821
C	 1.121970	 0.125017	 0.000110
C	 -0.170729	 -0.649833	 -0.000147
O	 2.167922	 -0.685144	 -0.000678
C	 -1.412862	 0.229387	 0.001137
H	 -0.152694	 -1.303401	 -0.866175
H	 -0.152095	 -1.305082	 0.864586
C	 -2.702379	 -0.586367	 0.000228
H	 -1.390561	 0.882035	 -0.864365
H	 -1.390366	 0.879871	 0.868264
C	 -3.953627	 0.284993	 -0.000782
H	 -2.717610	 -1.238533	 -0.869075
H	 -2.718925	 -1.238438	 0.869576
H	 -3.983544	 0.924437	 -0.876454
H	 -4.852806	 -0.320113	 -0.001515
H	 -3.984957	 0.924433	 0.874841
C	 3.449739	 -0.089943	 -0.000570
H	 3.585877	 0.522507	 -0.879546
H	 4.155988	 -0.904240	 -0.001389
H	 3.586356	 0.521152	 0.879272

	symmetry c1
}
ee,wfn = energy('scf', return_wfn=True)
oeprop( wfn, 'DIPOLE', 'QUADRUPOLE', 'MULLIKEN_CHARGES')
oeprop( wfn, 'GRID_ESP')
f=open( 'psi4out.xyz', 'w' )
f.write( "20  " )
f.write( str(ee) + "\n" )
f.write( MOL.save_string_xyz() )
f.close()
--------------------------------------------------------------------------

    Molecular point group: c1

    Geometry (in Angstrom), charge = 0, multiplicity = 1:

       Center              X                  Y                   Z               Mass
    ------------   -----------------  -----------------  -----------------  -----------------
           O          1.216069279695     1.304885655271     0.000820967444    15.994914619560
           C          1.121787279695     0.124982655271     0.000109967444    12.000000000000
           C         -0.170911720305    -0.649867344729    -0.000147032556    12.000000000000
           O          2.167739279695    -0.685178344729    -0.000678032556    15.994914619560
           C         -1.413044720305     0.229352655271     0.001136967444    12.000000000000
           H         -0.152876720305    -1.303435344729    -0.866175032556     1.007825032070
           H         -0.152277720305    -1.305116344729     0.864585967444     1.007825032070
           C         -2.702561720305    -0.586401344729     0.000227967444    12.000000000000
           H         -1.390743720305     0.882000655271    -0.864365032556     1.007825032070
           H         -1.390548720305     0.879836655271     0.868263967444     1.007825032070
           C         -3.953809720305     0.284958655271    -0.000782032556    12.000000000000
           H         -2.717792720305    -1.238567344729    -0.869075032556     1.007825032070
           H         -2.719107720305    -1.238472344729     0.869575967444     1.007825032070
           H         -3.983726720305     0.924402655271    -0.876454032556     1.007825032070
           H         -4.852988720305    -0.320147344729    -0.001515032556     1.007825032070
           H         -3.985139720305     0.924398655271     0.874840967444     1.007825032070
           C          3.449556279695    -0.089977344729    -0.000570032556    12.000000000000
           H          3.585694279695     0.522472655271    -0.879546032556     1.007825032070
           H          4.155805279695    -0.904274344729    -0.001389032556     1.007825032070
           H          3.586173279695     0.521117655271     0.879271967444     1.007825032070

  Charge       = 0
  Multiplicity = 1
  Basis Set: CC-PVTZ
  Basis Set:

    Orbital Energies (a.u.)
    -----------------------

    Doubly Occupied:

       1A    -20.596433     2A    -20.534210     3A    -11.364699
       4A    -11.278552     5A    -11.233956     6A    -11.218456
       7A    -11.217324     8A    -11.208750     9A     -1.472322
      10A     -1.365885    11A     -1.090025    12A     -1.025538
      13A     -0.969970    14A     -0.886435    15A     -0.804595
      16A     -0.769580    17A     -0.699099    18A     -0.686895
      19A     -0.675893    20A     -0.647105    21A     -0.598986
      22A     -0.592527    23A     -0.580242    24A     -0.540459
      25A     -0.538626    26A     -0.524185    27A     -0.501237
      28A     -0.478983    29A     -0.474973    30A     -0.471680
      31A     -0.459343    32A     -0.440180

  @DF-RHF Final Energy:  -384.08327943312395

   => Energetics <=

    Nuclear Repulsion Energy =            381.7254629776660977
    One-Electron Energy =               -1279.7229566827736562
    Two-Electron Energy =                 513.9142142719834965
    DFT Exchange-Correlation Energy =       0.0000000000000000
    Empirical Dispersion Energy =           0.0000000000000000
    PCM Polarization Energy =               0.0000000000000000
    EFP Energy =                            0.0000000000000000
    Total Energy =                       -384.0832794331240621

  Mulliken Charges: (a.u.)
   Center  Symbol    Alpha    Beta     Spin     Total
       1     O     4.19686  4.19686  0.00000 -0.39371
       2     C     2.80656  2.80656  0.00000  0.38688
       3     C     3.10024  3.10024  0.00000 -0.20048
       4     O     4.14656  4.14656  0.00000 -0.29312
       5     C     3.08115  3.08115  0.00000 -0.16230
       6     H     0.44027  0.44027  0.00000  0.11946
       7     H     0.44026  0.44026  0.00000  0.11948
       8     C     3.08691  3.08691  0.00000 -0.17382
       9     H     0.44681  0.44681  0.00000  0.10637
      10     H     0.44682  0.44682  0.00000  0.10637
      11     C     3.14922  3.14922  0.00000 -0.29845
      12     H     0.45527  0.45527  0.00000  0.08946
      13     H     0.45525  0.45525  0.00000  0.08951
      14     H     0.45387  0.45387  0.00000  0.09226
      15     H     0.44838  0.44838  0.00000  0.10325
      16     H     0.45387  0.45387  0.00000  0.09227
      17     C     3.03770  3.03770  0.00000 -0.07539
      18     H     0.45434  0.45434  0.00000  0.09133
      19     H     0.44534  0.44534  0.00000  0.10932
      20     H     0.45434  0.45434  0.00000  0.09132

   Total alpha = 32.00000, Total beta = 32.00000, Total charge = -0.00000

*** Psi4 exiting successfully. Buy a developer a beer!
