  ==> Input File <==

--------------------------------------------------------------------------
set {
	reference rhf
	basis cc-pvtz
}

set_num_threads( 4 )
memory 2 gb

molecule MOL {
0 1

O	 -0.694481	 1.313155	 -0.204815
C	 -0.862519	 0.151932	 -0.046791
C	 -2.171428	 -0.477048	 0.339095
O	 0.085519	 -0.757083	 -0.192238
H	 -2.467997	 -1.191667	 -0.417688
H	 -2.923379	 0.287970	 0.444097
H	 -2.053854	 -1.015120	 1.270901
C	 1.240186	 -0.426126	 -0.954924
C	 2.279997	 0.287088	 -0.115865
H	 0.946538	 0.173281	 -1.802448
H	 1.615786	 -1.374715	 -1.308273
H	 3.168879	 0.462786	 -0.711239
H	 1.908752	 1.241951	 0.230250
H	 2.557822	 -0.314038	 0.741488

	symmetry c1
}
set optking {
	frozen_dihedral = ("
		8 4 2 1
	")
}

ee = optimize('scf')
oeprop('DIPOLE', 'QUADRUPOLE', 'MULLIKEN_CHARGES')
f=open( 'psi4out.xyz', 'w' )
f.write( "14  " )
f.write( str(ee) + "\n" )
f.write( MOL.save_string_xyz() )
f.close()
--------------------------------------------------------------------------

    Molecular point group: c1
  Charge       = 0
  Multiplicity = 1
  Basis Set: CC-PVTZ
  Basis Set:
  @DF-RHF Final Energy:  -305.98867320366872
    Total Energy =                       -305.9886732036689523
    Molecular point group: c1
  Basis Set: CC-PVTZ
  Basis Set:
  Basis Set: CC-PVTZ
  Basis Set:
  @DF-RHF Final Energy:  -305.98598971507045
    Total Energy =                       -305.9859897150706729
  Basis Set: CC-PVTZ
  Basis Set:
  Basis Set: CC-PVTZ
  Basis Set:
  @DF-RHF Final Energy:  -305.98906417371995
    Total Energy =                       -305.9890641737198393
  Basis Set: CC-PVTZ
  Basis Set:
  Basis Set: CC-PVTZ
  Basis Set:
  @DF-RHF Final Energy:  -305.98914567354302
    Total Energy =                       -305.9891456735430211
  Basis Set: CC-PVTZ
  Basis Set:
  Basis Set: CC-PVTZ
  Basis Set:
  @DF-RHF Final Energy:  -305.98917453300942
    Total Energy =                       -305.9891745330091908
  Basis Set: CC-PVTZ
  Basis Set:
  Basis Set: CC-PVTZ
  Basis Set:
  @DF-RHF Final Energy:  -305.98918398565650
    Total Energy =                       -305.9891839856566094
  Basis Set: CC-PVTZ
  Basis Set:
  Basis Set: CC-PVTZ
  Basis Set:
  @DF-RHF Final Energy:  -305.98918613351657
    Total Energy =                       -305.9891861335164549
  Basis Set: CC-PVTZ
  Basis Set:
  Charge       = 0
  Multiplicity = 1
  Basis Set: CC-PVTZ
  Basis Set:

    Orbital Energies (a.u.)
    -----------------------

    Doubly Occupied:

       1A    -20.592463     2A    -20.534116     3A    -11.368359
       4A    -11.284492     5A    -11.231879     6A    -11.215390
       7A     -1.469481     8A     -1.365888     9A     -1.055532
      10A     -0.999229    11A     -0.881771    12A     -0.770313
      13A     -0.700971    14A     -0.685029    15A     -0.657666
      16A     -0.612742    17A     -0.585836    18A     -0.571350
      19A     -0.562551    20A     -0.530312    21A     -0.514606
      22A     -0.496647    23A     -0.452793    24A     -0.442763

  @DF-RHF Final Energy:  -305.98918686826369

   => Energetics <=

    Nuclear Repulsion Energy =            248.4537976350168549
    One-Electron Energy =                -909.7216077014056737
    Two-Electron Energy =                 355.2786231981256151
    DFT Exchange-Correlation Energy =       0.0000000000000000
    Empirical Dispersion Energy =           0.0000000000000000
    PCM Polarization Energy =               0.0000000000000000
    EFP Energy =                            0.0000000000000000
    Total Energy =                       -305.9891868682632321
    Molecular point group: c1
  Basis Set: CC-PVTZ
  Basis Set:

  -Total Gradient:
     Atom            X                  Y                   Z
    ------   -----------------  -----------------  -----------------
       1        0.001313333294     0.001157894959     0.005728647329
       2       -0.003022939274    -0.002808693330    -0.010493528404
       3       -0.000033963742    -0.000030160082    -0.000036812518
       4        0.003601484955     0.003828066188     0.008549859668
       5        0.000013348267    -0.000023748698     0.000031728942
       6       -0.000001427109    -0.000006433018     0.000005902369
       7       -0.000013030470     0.000009026220     0.000019427833
       8       -0.001964147103    -0.002095597498    -0.003860552763
       9        0.000100609321    -0.000107169860     0.000013320410
      10        0.000020376943    -0.000012177382     0.000023580320
      11        0.000021316807     0.000001884605    -0.000010118238
      12       -0.000009993796     0.000015577039     0.000004601392
      13       -0.000019682407     0.000057206498     0.000024102880
      14       -0.000005285685     0.000014324358    -0.000000159222

  **** Optimization is complete! (in 8 steps) ****
    Final optimized geometry and variables:
    Molecular point group: c1

    Geometry (in Angstrom), charge = 0, multiplicity = 1:

    O           -0.763007579011     1.279062932231    -0.165507367850
    C           -0.877957718132     0.131591906632     0.100151474265
    C           -2.148283173933    -0.510980746084     0.580126944495
    O            0.120196339537    -0.736187560443     0.059470196164
    H           -2.473046547922    -1.248084432410    -0.143620939542
    H           -2.909983111726     0.240653370340     0.708936822289
    H           -1.966107965752    -1.026499809693     1.513792664153
    C            1.274528081299    -0.417354966469    -0.710539437255
    C            2.347228920043     0.239044312103     0.133084695310
    H            0.986202337223     0.219981441099    -1.532370106912
    H            1.617331409517    -1.363966013750    -1.101494696337
    H            3.233344588345     0.407202734094    -0.468852913184
    H            2.005441103769     1.191366567986     0.514361571044
    H            2.617990742066    -0.396047633016     0.967830557973

  Mulliken Charges: (a.u.)
   Center  Symbol    Alpha    Beta     Spin     Total
       1     O     4.19694  4.19694  0.00000 -0.39388
       2     C     2.80381  2.80381  0.00000  0.39237
       3     C     3.13746  3.13746  0.00000 -0.27491
       4     O     4.15833  4.15833  0.00000 -0.31667
       5     H     0.44728  0.44728  0.00000  0.10543
       6     H     0.43849  0.43849  0.00000  0.12301
       7     H     0.44442  0.44442  0.00000  0.11116
       8     C     2.98400  2.98400  0.00000  0.03199
       9     C     3.14433  3.14433  0.00000 -0.28866
      10     H     0.45219  0.45219  0.00000  0.09563
      11     H     0.44504  0.44504  0.00000  0.10991
      12     H     0.45301  0.45301  0.00000  0.09398
      13     H     0.44190  0.44190  0.00000  0.11620
      14     H     0.45279  0.45279  0.00000  0.09443

   Total alpha = 24.00000, Total beta = 24.00000, Total charge = -0.00000
