  ==> Input File <==

--------------------------------------------------------------------------
set {
	reference rhf
	basis 6-31G*
}

set_num_threads( 1 )
memory 2 gb

molecule MOL {
0 1

H	 1.251556	 -1.699728	 1.279668
O	 0.577719	 -1.128728	 0.939680
C	 1.135793	 0.118896	 0.612333
C	 0.031547	 1.023609	 0.088541
H	 1.899677	 0.004819	 -0.154712
H	 1.614942	 0.562617	 1.482177
C	 -1.134819	 0.293262	 -0.585751
H	 0.474374	 1.714721	 -0.623187
H	 -0.338529	 1.620940	 0.920081
C	 -1.917817	 -0.639439	 0.339494
H	 -0.758119	 -0.268455	 -1.433105
H	 -1.813832	 1.041889	 -0.986690
H	 -2.777680	 -1.057197	 -0.174994
H	 -1.310268	 -1.471279	 0.680599
H	 -2.283753	 -0.111424	 1.216626

	symmetry c1
}
set optking {
	frozen_dihedral = ("
		8 4 7 11,
		1 2 3 4
	")
}

ee = energy('scf')
oeprop('DIPOLE', 'QUADRUPOLE', 'MULLIKEN_CHARGES')
f=open( 'psi4out.xyz', 'w' )
f.write( "15  " )
f.write( str(ee) + "\n" )
f.write( MOL.save_string_xyz() )
f.close()
--------------------------------------------------------------------------

    Molecular point group: c1

    Geometry (in Angstrom), charge = 0, multiplicity = 1:

       Center              X                  Y                   Z               Mass
    ------------   -----------------  -----------------  -----------------  -----------------
           H          1.487218183937    -1.589587806605     0.973089578088     1.007825032070
           O          0.813381183937    -1.018587806605     0.633101578088    15.994914619560
           C          1.371455183937     0.229036193395     0.305754578088    12.000000000000
           C          0.267209183937     1.133749193395    -0.218037421912    12.000000000000
           H          2.135339183937     0.114959193395    -0.461290421912     1.007825032070
           H          1.850604183937     0.672757193395     1.175598578088     1.007825032070
           C         -0.899156816063     0.403402193395    -0.892329421912    12.000000000000
           H          0.710036183937     1.824861193395    -0.929765421912     1.007825032070
           H         -0.102866816063     1.731080193395     0.613502578088     1.007825032070
           C         -1.682154816063    -0.529298806605     0.032915578088    12.000000000000
           H         -0.522456816063    -0.158314806605    -1.739683421912     1.007825032070
           H         -1.578169816063     1.152029193395    -1.293268421912     1.007825032070
           H         -2.542017816063    -0.947056806605    -0.481572421912     1.007825032070
           H         -1.074605816063    -1.361138806605     0.374020578088     1.007825032070
           H         -2.048090816063    -0.001283806605     0.910047578088     1.007825032070

  Charge       = 0
  Multiplicity = 1
  Basis Set: 6-31G*
  Basis Set:

    Orbital Energies (a.u.)
    -----------------------

    Doubly Occupied:

       1A    -20.555488     2A    -11.269637     3A    -11.211684
       4A    -11.205816     5A    -11.179633     6A     -1.366347
       7A     -1.057689     8A     -0.967740     9A     -0.856331
      10A     -0.774204    11A     -0.711981    12A     -0.652317
      13A     -0.604502    14A     -0.570170    15A     -0.539653
      16A     -0.534084    17A     -0.513429    18A     -0.466055
      19A     -0.460908    20A     -0.431953    21A     -0.428370

  @DF-RHF Final Energy:  -232.12802454341357

   => Energetics <=

    Nuclear Repulsion Energy =            196.6866381856602288
    One-Electron Energy =                -704.9135145523323445
    Two-Electron Energy =                 276.0988518232591673
    DFT Exchange-Correlation Energy =       0.0000000000000000
    Empirical Dispersion Energy =           0.0000000000000000
    PCM Polarization Energy =               0.0000000000000000
    EFP Energy =                            0.0000000000000000
    Total Energy =                       -232.1280245434129483

  Mulliken Charges: (a.u.)
   Center  Symbol    Alpha    Beta     Spin     Total
       1     H     0.28071  0.28071  0.00000  0.43857
       2     O     4.37097  4.37097  0.00000 -0.74194
       3     C     2.99010  2.99010  0.00000  0.01979
       4     C     3.17124  3.17124  0.00000 -0.34248
       5     H     0.43136  0.43136  0.00000  0.13727
       6     H     0.42858  0.42858  0.00000  0.14284
       7     C     3.14762  3.14762  0.00000 -0.29524
       8     H     0.42045  0.42045  0.00000  0.15911
       9     H     0.42006  0.42006  0.00000  0.15988
      10     C     3.24094  3.24094  0.00000 -0.48189
      11     H     0.42310  0.42310  0.00000  0.15379
      12     H     0.42373  0.42373  0.00000  0.15254
      13     H     0.43112  0.43112  0.00000  0.13776
      14     H     0.38897  0.38897  0.00000  0.22206
      15     H     0.43104  0.43104  0.00000  0.13793

   Total alpha = 21.00000, Total beta = 21.00000, Total charge = -0.00000
