  ==> Input File <==

--------------------------------------------------------------------------
set {
	reference rhf
	basis cc-pvtz
}

set_num_threads( 4 )
memory 2 gb

molecule MOL {
0 1

H	 -2.498963	 -0.741158	 -0.729149
O	 -2.346257	 -0.289210	 0.080372
C	 -1.183935	 0.486039	 -0.009831
C	 0.062853	 -0.375310	 0.027457
H	 -1.178881	 1.094526	 -0.908634
H	 -1.184406	 1.155156	 0.838676
O	 0.708035	 -0.263281	 -1.198365
H	 -0.208156	 -1.414050	 0.223591
H	 0.707157	 -0.047178	 0.840338
C	 1.893246	 -0.982135	 -1.297086
H	 1.724110	 -2.048012	 -1.160807
H	 2.298913	 -0.817716	 -2.284551
H	 2.620740	 -0.652002	 -0.559328

	symmetry c1
}
set optking {
	frozen_dihedral = ("
		8 4 3 5
	")
}

ee = optimize('scf')
oeprop('DIPOLE', 'QUADRUPOLE', 'MULLIKEN_CHARGES')
f=open( 'psi4out.xyz', 'w' )
f.write( "13  " )
f.write( str(ee) + "\n" )
f.write( MOL.save_string_xyz() )
f.close()
--------------------------------------------------------------------------

    Molecular point group: c1
  Charge       = 0
  Multiplicity = 1
  Basis Set: CC-PVTZ
  Basis Set:
  @DF-RHF Final Energy:  -268.05697827504338
    Total Energy =                       -268.0569782750434911
    Molecular point group: c1
  Basis Set: CC-PVTZ
  Basis Set:
  Basis Set: CC-PVTZ
  Basis Set:
  @DF-RHF Final Energy:  -268.05764956225858
    Total Energy =                       -268.0576495622588027
  Basis Set: CC-PVTZ
  Basis Set:
  Basis Set: CC-PVTZ
  Basis Set:
  @DF-RHF Final Energy:  -268.05786384839053
    Total Energy =                       -268.0578638483905252
  Basis Set: CC-PVTZ
  Basis Set:
  Basis Set: CC-PVTZ
  Basis Set:
  @DF-RHF Final Energy:  -268.05787015466194
    Total Energy =                       -268.0578701546619413
  Basis Set: CC-PVTZ
  Basis Set:
  Charge       = 0
  Multiplicity = 1
  Basis Set: CC-PVTZ
  Basis Set:

    Orbital Energies (a.u.)
    -----------------------

    Doubly Occupied:

       1A    -20.555525     2A    -20.548163     3A    -11.269449
       4A    -11.267796     5A    -11.267580     6A     -1.390457
       7A     -1.364181     8A     -1.017079     9A     -0.915708
      10A     -0.841592    11A     -0.706755    12A     -0.681650
      13A     -0.658260    14A     -0.632072    15A     -0.606867
      16A     -0.566802    17A     -0.537930    18A     -0.494010
      19A     -0.486862    20A     -0.440642    21A     -0.422530

  @DF-RHF Final Energy:  -268.05787085010013

   => Energetics <=

    Nuclear Repulsion Energy =            191.0901785593989644
    One-Electron Energy =                -744.9522778283181879
    Two-Electron Energy =                 285.8042284188189228
    DFT Exchange-Correlation Energy =       0.0000000000000000
    Empirical Dispersion Energy =           0.0000000000000000
    PCM Polarization Energy =               0.0000000000000000
    EFP Energy =                            0.0000000000000000
    Total Energy =                       -268.0578708501003007
    Molecular point group: c1
  Basis Set: CC-PVTZ
  Basis Set:

  -Total Gradient:
     Atom            X                  Y                   Z
    ------   -----------------  -----------------  -----------------
       1       -0.000021007579    -0.000020515399     0.000000648478
       2        0.000040231756     0.000020726936    -0.000034382656
       3        0.001798788528     0.002934176871     0.001332813744
       4        0.000056474656     0.000111654210     0.003706502227
       5       -0.001601546197    -0.002479179196    -0.001694038266
       6        0.000026273069    -0.000010124712    -0.000001999509
       7       -0.000037221158    -0.000005165874     0.000048501148
       8       -0.000280394622    -0.000538419934    -0.003347265150
       9       -0.000010412628     0.000001780596    -0.000002117005
      10        0.000031354767    -0.000021506189    -0.000008749831
      11        0.000000298365     0.000000298845    -0.000003156843
      12       -0.000006950129     0.000004196309     0.000004795089
      13        0.000004111170     0.000002077538    -0.000001551425

  **** Optimization is complete! (in 5 steps) ****
    Final optimized geometry and variables:
    Molecular point group: c1

    Geometry (in Angstrom), charge = 0, multiplicity = 1:

    H           -2.282203468799    -0.447588442140    -0.270571296065
    O           -2.172696552428     0.010180892073     0.543245947960
    C           -1.002192631808     0.782785283126     0.499395595405
    C            0.273488157290    -0.059289978292     0.526006465439
    H           -0.986522524756     1.386902192999    -0.399916236963
    H           -1.047025686038     1.436307946573     1.358011496045
    O            0.912043757222     0.040397019083    -0.713274151060
    H            0.005660301381    -1.095925634321     0.713384263622
    H            0.945831895446     0.270459127570     1.314742091416
    C            2.085638006010    -0.696361307453    -0.812591429527
    H            1.903574026077    -1.758637414147    -0.664545582915
    H            2.488065542994    -0.546952630574    -1.803933008430
    H            2.823319512174    -0.370353157819    -0.082600486246

  Mulliken Charges: (a.u.)
   Center  Symbol    Alpha    Beta     Spin     Total
       1     H     0.39171  0.39171  0.00000  0.21658
       2     O     4.20434  4.20434  0.00000 -0.40868
       3     C     2.96880  2.96880  0.00000  0.06240
       4     C     2.98006  2.98006  0.00000  0.03989
       5     H     0.46245  0.46245  0.00000  0.07511
       6     H     0.45633  0.45633  0.00000  0.08735
       7     O     4.17561  4.17561  0.00000 -0.35123
       8     H     0.46953  0.46953  0.00000  0.06094
       9     H     0.47329  0.47329  0.00000  0.05341
      10     C     3.02860  3.02860  0.00000 -0.05720
      11     H     0.47163  0.47163  0.00000  0.05675
      12     H     0.44661  0.44661  0.00000  0.10677
      13     H     0.47105  0.47105  0.00000  0.05790

   Total alpha = 21.00000, Total beta = 21.00000, Total charge = -0.00000
