  ==> Input File <==

--------------------------------------------------------------------------
set {
	reference rhf
	basis cc-pvtz
}

set_num_threads( 4 )
memory 2 gb

molecule MOL {
0 1

H	 -2.805655	 0.405619	 -0.610295
O	 -2.313989	 -0.142475	 -0.025864
C	 -0.943808	 -0.065018	 -0.330000
H	 -0.812293	 -0.225641	 -1.398673
C	 -0.231030	 -1.182113	 0.407592
C	 -0.353797	 1.300461	 0.050970
H	 -0.312800	 -0.992012	 1.473041
H	 -0.738841	 -2.119564	 0.220514
C	 1.246176	 -1.268044	 -0.015480
H	 -0.539537	 2.008579	 -0.751815
H	 -0.889989	 1.662858	 0.920677
C	 1.153605	 1.231851	 0.356834
H	 1.823096	 -1.684665	 0.802361
H	 1.352335	 -1.958223	 -0.845114
C	 1.826409	 0.100723	 -0.416008
H	 1.622968	 2.181508	 0.128734
H	 1.301983	 1.066493	 1.419367
H	 2.897299	 0.112407	 -0.249665
H	 1.683458	 0.265621	 -1.480024

	symmetry c1
}
set optking {
	frozen_dihedral = ("
		1 2 3 4
	")
}

ee = optimize('scf')
oeprop('DIPOLE', 'QUADRUPOLE', 'MULLIKEN_CHARGES')
f=open( 'psi4out.xyz', 'w' )
f.write( "19  " )
f.write( str(ee) + "\n" )
f.write( MOL.save_string_xyz() )
f.close()
--------------------------------------------------------------------------

    Molecular point group: c1
  Charge       = 0
  Multiplicity = 1
  Basis Set: CC-PVTZ
  Basis Set:
  @DF-RHF Final Energy:  -309.16337104789557
    Total Energy =                       -309.1633710478955095
    Molecular point group: c1
  Basis Set: CC-PVTZ
  Basis Set:
  Basis Set: CC-PVTZ
  Basis Set:
  @DF-RHF Final Energy:  -309.16337909346777
    Total Energy =                       -309.1633790934679382
  Basis Set: CC-PVTZ
  Basis Set:
  Charge       = 0
  Multiplicity = 1
  Basis Set: CC-PVTZ
  Basis Set:

    Orbital Energies (a.u.)
    -----------------------

    Doubly Occupied:

       1A    -20.543328     2A    -11.267582     3A    -11.214118
       4A    -11.213531     5A    -11.212988     6A    -11.210106
       7A    -11.206732     8A     -1.363200     9A     -1.109624
      10A     -1.002547    11A     -0.989262    12A     -0.843405
      13A     -0.836146    14A     -0.733017    15A     -0.704508
      16A     -0.661596    17A     -0.629168    18A     -0.590576
      19A     -0.576177    20A     -0.547111    21A     -0.533040
      22A     -0.518268    23A     -0.498475    24A     -0.489225
      25A     -0.462918    26A     -0.449613    27A     -0.429585
      28A     -0.412668

  @DF-RHF Final Energy:  -309.16338213655814

   => Energetics <=

    Nuclear Repulsion Energy =            331.8791334625707918
    One-Electron Energy =               -1077.5879997251206532
    Two-Electron Energy =                 436.5454841259914929
    DFT Exchange-Correlation Energy =       0.0000000000000000
    Empirical Dispersion Energy =           0.0000000000000000
    PCM Polarization Energy =               0.0000000000000000
    EFP Energy =                            0.0000000000000000
    Total Energy =                       -309.1633821365584254
    Molecular point group: c1
  Basis Set: CC-PVTZ
  Basis Set:

  -Total Gradient:
     Atom            X                  Y                   Z
    ------   -----------------  -----------------  -----------------
       1       -0.000093712783    -0.000758936397    -0.000595357803
       2        0.000107423921     0.001156847433     0.000719146835
       3        0.000042904883    -0.001186378230     0.000022045512
       4       -0.000033337048     0.000819159134    -0.000141305046
       5        0.000049090810    -0.000073389386     0.000003103781
       6       -0.000061648454    -0.000051100687    -0.000018484433
       7        0.000007432858     0.000006406426    -0.000002507895
       8       -0.000008423774     0.000004671109    -0.000004433925
       9       -0.000019181626    -0.000014917713     0.000024016384
      10        0.000019378579     0.000016489525     0.000026531789
      11        0.000021543780     0.000015943566    -0.000007501400
      12        0.000044006528     0.000024702197    -0.000019838838
      13       -0.000018674475    -0.000012898495    -0.000000299330
      14       -0.000019186766    -0.000012244982     0.000002365728
      15       -0.000018087094     0.000023826928    -0.000004203026
      16       -0.000000101637     0.000013174320    -0.000000925703
      17       -0.000018623813    -0.000002529264    -0.000008839002
      18       -0.000003165595     0.000024712714     0.000008131858
      19        0.000002361700     0.000006461800    -0.000001645487

  **** Optimization is complete! (in 3 steps) ****
    Final optimized geometry and variables:
    Molecular point group: c1

    Geometry (in Angstrom), charge = 0, multiplicity = 1:

    H           -2.806508072283     0.415253925117    -0.599217148061
    O           -2.314574385381    -0.137092096584    -0.019602259176
    C           -0.944621759570    -0.066026714577    -0.329638020148
    H           -0.817307390901    -0.223400362864    -1.399052852813
    C           -0.229978219768    -1.182876941322     0.406744740904
    C           -0.353595237390     1.300533009413     0.048723731692
    H           -0.313285380356    -0.993890667381     1.472312718716
    H           -0.736148491380    -2.120858909467     0.218238885831
    C            1.248043861866    -1.266555218246    -0.013874830985
    H           -0.537193022241     2.006532885967    -0.756276994104
    H           -0.893382206160     1.665161379036     0.914704870367
    C            1.152872879970     1.232793822156     0.358275458349
    H            1.824080869781    -1.682521362263     0.804907684297
    H            1.355897431783    -1.957051453609    -0.843127165702
    C            1.827635228715     0.102628218009    -0.413909947970
    H            1.622333006662     2.182930386596     0.132054446501
    H            1.299131824111     1.066559280544     1.421015588998
    H            2.898443409515     0.114905586662    -0.246948082728
    H            1.685227910087     0.267403051810    -1.478115941293

  Mulliken Charges: (a.u.)
   Center  Symbol    Alpha    Beta     Spin     Total
       1     H     0.39655  0.39655  0.00000  0.20690
       2     O     4.19981  4.19981  0.00000 -0.39963
       3     C     2.92461  2.92461  0.00000  0.15079
       4     H     0.46467  0.46467  0.00000  0.07067
       5     C     3.09807  3.09807  0.00000 -0.19615
       6     C     3.11910  3.11910  0.00000 -0.23820
       7     H     0.45347  0.45347  0.00000  0.09306
       8     H     0.44089  0.44089  0.00000  0.11822
       9     C     3.11332  3.11332  0.00000 -0.22663
      10     H     0.45323  0.45323  0.00000  0.09355
      11     H     0.44508  0.44508  0.00000  0.10983
      12     C     3.10066  3.10066  0.00000 -0.20132
      13     H     0.44719  0.44719  0.00000  0.10562
      14     H     0.44765  0.44765  0.00000  0.10470
      15     C     3.10271  3.10271  0.00000 -0.20543
      16     H     0.44283  0.44283  0.00000  0.11435
      17     H     0.45266  0.45266  0.00000  0.09467
      18     H     0.44290  0.44290  0.00000  0.11420
      19     H     0.45460  0.45460  0.00000  0.09079

   Total alpha = 28.00000, Total beta = 28.00000, Total charge = -0.00000
