  ==> Input File <==

--------------------------------------------------------------------------
set {
	reference rhf
	basis 6-31G*
}

set_num_threads( 1 )
memory 2 gb

molecule MOL {
0 1

H	 -2.646374	 -0.642757	 1.268656
C	 -2.083525	 -0.384536	 0.393091
O	 -0.807605	 -0.127164	 0.768327
F	 -2.118945	 -1.383102	 -0.486752
F	 -2.621877	 0.670592	 -0.209486
C	 0.084052	 0.273579	 -0.209957
C	 0.972908	 1.343976	 0.410000
Cl	 -0.773193	 0.914939	 -1.620986
H	 0.711138	 -0.532911	 -0.547761
F	 1.861211	 1.766652	 -0.464301
F	 1.620994	 0.818585	 1.430483
F	 0.282702	 2.371475	 0.841088

	symmetry c1
}
set optking {
	frozen_dihedral = ("
		10 7 6 9,
		6 3 2 4
	")
}

ee = energy('scf')
oeprop('DIPOLE', 'QUADRUPOLE', 'MULLIKEN_CHARGES')
f=open( 'psi4out.xyz', 'w' )
f.write( "12  " )
f.write( str(ee) + "\n" )
f.write( MOL.save_string_xyz() )
f.close()
--------------------------------------------------------------------------

    Molecular point group: c1

    Geometry (in Angstrom), charge = 0, multiplicity = 1:

       Center              X                  Y                   Z               Mass
    ------------   -----------------  -----------------  -----------------  -----------------
           H         -2.250849381202    -1.317887963261     1.352596846787     1.007825032070
           C         -1.688000381202    -1.059666963261     0.477031846787    12.000000000000
           O         -0.412080381202    -0.802294963261     0.852267846787    15.994914619560
           F         -1.723420381202    -2.058232963261    -0.402811153213    18.998403224000
           F         -2.226352381202    -0.004538963261    -0.125545153213    18.998403224000
           C          0.479576618798    -0.401551963261    -0.126016153213    12.000000000000
           C          1.368432618798     0.668845036739     0.493940846787    12.000000000000
          CL         -0.377668381202     0.239808036739    -1.537045153213    34.968852682000
           H          1.106662618798    -1.208041963261    -0.463820153213     1.007825032070
           F          2.256735618798     1.091521036739    -0.380360153213    18.998403224000
           F          2.016518618798     0.143454036739     1.514423846787    18.998403224000
           F          0.678226618798     1.696344036739     0.925028846787    18.998403224000

  Charge       = 0
  Multiplicity = 1
  Basis Set: 6-31G*
  Basis Set:

    Orbital Energies (a.u.)
    -----------------------

    Doubly Occupied:

       1A   -104.830726     2A    -26.358535     3A    -26.357489
       4A    -26.356863     5A    -26.338617     6A    -26.332511
       7A    -20.647253     8A    -11.525606     9A    -11.485456
      10A    -11.397660    11A    -10.567742    12A     -8.036909
      13A     -8.033450    14A     -8.033168    15A     -1.759859
      16A     -1.712384    17A     -1.656319    18A     -1.655163
      19A     -1.632227    20A     -1.484431    21A     -1.177208
      22A     -1.053804    23A     -0.983139    24A     -0.917584
      25A     -0.851654    26A     -0.850255    27A     -0.843723
      28A     -0.817982    29A     -0.805678    30A     -0.783235
      31A     -0.732342    32A     -0.723515    33A     -0.710078
      34A     -0.690462    35A     -0.678353    36A     -0.673056
      37A     -0.657585    38A     -0.655814    39A     -0.645201
      40A     -0.634110    41A     -0.603656    42A     -0.552522
      43A     -0.536086    44A     -0.462882    45A     -0.450343

  @DF-RHF Final Energy: -1146.27974822574220

   => Energetics <=

    Nuclear Repulsion Energy =            758.2944995884770378
    One-Electron Energy =               -3099.7630984733978039
    Two-Electron Energy =                1195.1888506591785699
    DFT Exchange-Correlation Energy =       0.0000000000000000
    Empirical Dispersion Energy =           0.0000000000000000
    PCM Polarization Energy =               0.0000000000000000
    EFP Energy =                            0.0000000000000000
    Total Energy =                      -1146.2797482257419688

  Mulliken Charges: (a.u.)
   Center  Symbol    Alpha    Beta     Spin     Total
       1     H     0.39853  0.39853  0.00000  0.20294
       2     C     2.56686  2.56686  0.00000  0.86628
       3     O     4.30815  4.30815  0.00000 -0.61631
       4     F     4.68729  4.68729  0.00000 -0.37459
       5     F     4.67905  4.67905  0.00000 -0.35810
       6     C     3.03307  3.03307  0.00000 -0.06614
       7     C     2.43656  2.43656  0.00000  1.12688
       8    CL     8.50009  8.50009  0.00000 -0.00018
       9     H     0.37068  0.37068  0.00000  0.25863
      10     F     4.67394  4.67394  0.00000 -0.34788
      11     F     4.67702  4.67702  0.00000 -0.35404
      12     F     4.66875  4.66875  0.00000 -0.33750

   Total alpha = 45.00000, Total beta = 45.00000, Total charge =  0.00000
