  ==> Input File <==

--------------------------------------------------------------------------
set {
	reference rhf
	basis 6-31G*
}

set_num_threads( 4 )
memory 2 gb

molecule MOL {
0 1

O	 2.428043	 2.040201	 -1.520197
C	 2.174708	 1.216246	 -2.344623
C	 0.885414	 0.414997	 -2.318980
C	 3.132308	 0.914866	 -3.479228
C	 -0.038119	 0.760192	 -1.154436
H	 0.378664	 0.568661	 -3.270810
H	 1.149904	 -0.641463	 -2.300517
C	 -1.325353	 -0.066085	 -1.162150
H	 -0.278169	 1.818054	 -1.192281
H	 0.493799	 0.606370	 -0.220868
C	 -2.259874	 0.272531	 0.000494
H	 -1.851993	 0.090189	 -2.102509
H	 -1.077296	 -1.125898	 -1.125680
C	 -3.549786	 -0.549746	 -0.000374
H	 -2.509075	 1.331602	 -0.035378
H	 -1.734750	 0.115848	 0.941074
C	 -4.809590	 0.315458	 -0.000369
H	 -3.560515	 -1.202009	 -0.871156
H	 -3.561123	 -1.202955	 0.869711
H	 -4.844746	 0.956611	 -0.876632
H	 -5.706986	 -0.295590	 -0.001609
H	 -4.845960	 0.954827	 0.877144
H	 2.651676	 1.089684	 -4.437377
H	 4.007737	 1.543577	 -3.394490
H	 3.431883	 -0.128825	 -3.454760

	symmetry c1
}
set optking {
	frozen_dihedral = ("
		15 11 14 18
	")
}

ee = optimize('scf')
oeprop('DIPOLE', 'QUADRUPOLE', 'MULLIKEN_CHARGES')
f=open( 'psi4out.xyz', 'w' )
f.write( "25  " )
f.write( str(ee) + "\n" )
f.write( MOL.save_string_xyz() )
f.close()
--------------------------------------------------------------------------

    Molecular point group: c1
  Charge       = 0
  Multiplicity = 1
  Basis Set: 6-31G*
  Basis Set:
  @DF-RHF Final Energy:  -387.13073936000802
    Total Energy =                       -387.1307393600079649
    Molecular point group: c1
  Basis Set: 6-31G*
  Basis Set:
  Basis Set: 6-31G*
  Basis Set:
  @DF-RHF Final Energy:  -387.13096632658852
    Total Energy =                       -387.1309663265888048
  Basis Set: 6-31G*
  Basis Set:
  Basis Set: 6-31G*
  Basis Set:
  @DF-RHF Final Energy:  -387.13103988076421
    Total Energy =                       -387.1310398807643196
  Basis Set: 6-31G*
  Basis Set:
  Basis Set: 6-31G*
  Basis Set:
  @DF-RHF Final Energy:  -387.13093754373335
    Total Energy =                       -387.1309375437336939
  Basis Set: 6-31G*
  Basis Set:
  Charge       = 0
  Multiplicity = 1
  Basis Set: 6-31G*
  Basis Set:

    Orbital Energies (a.u.)
    -----------------------

    Doubly Occupied:

       1A    -20.550489     2A    -11.326324     3A    -11.231943
       4A    -11.228363     5A    -11.217401     6A    -11.216467
       7A    -11.215037     8A    -11.213206     9A    -11.208890
      10A     -1.395793    11A     -1.092559    12A     -1.054561
      13A     -1.014190    14A     -0.969077    15A     -0.890593
      16A     -0.816360    17A     -0.790127    18A     -0.729875
      19A     -0.658470    20A     -0.652605    21A     -0.625868
      22A     -0.622838    23A     -0.601355    24A     -0.586909
      25A     -0.569207    26A     -0.558206    27A     -0.532617
      28A     -0.530004    29A     -0.515125    30A     -0.490472
      31A     -0.485203    32A     -0.477358    33A     -0.464239
      34A     -0.454856    35A     -0.449261    36A     -0.399370

  @DF-RHF Final Energy:  -387.13104092229389

   => Energetics <=

    Nuclear Repulsion Energy =            439.0418983297605564
    One-Electron Energy =               -1394.6754432148118212
    Two-Electron Energy =                 568.5025039627576007
    DFT Exchange-Correlation Energy =       0.0000000000000000
    Empirical Dispersion Energy =           0.0000000000000000
    PCM Polarization Energy =               0.0000000000000000
    EFP Energy =                            0.0000000000000000
    Total Energy =                       -387.1310409222936642
    Molecular point group: c1
  Basis Set: 6-31G*
  Basis Set:

  -Total Gradient:
     Atom            X                  Y                   Z
    ------   -----------------  -----------------  -----------------
       1        0.000010905598    -0.000012012207     0.000014529612
       2       -0.000034986257     0.000046595029    -0.000020880341
       3       -0.000021975366    -0.000032617403     0.000016035286
       4        0.000003366468    -0.000017329913     0.000008090950
       5        0.000002464416     0.000006935171     0.000005689364
       6        0.000000115766     0.000000556157    -0.000001153835
       7       -0.000002990545    -0.000001030602    -0.000002329342
       8        0.000049502954    -0.000026874321    -0.000066104829
       9       -0.000002479401     0.000005184322    -0.000000496184
      10        0.000003480489    -0.000002127751     0.000006606061
      11        0.000110729919    -0.000193156967    -0.001157136365
      12        0.000010588475     0.000000159661    -0.000029012052
      13        0.000021962231    -0.000003929037    -0.000019459763
      14       -0.000573180037     0.000895134162    -0.000446058393
      15        0.000005815134     0.000036330527     0.001129844285
      16        0.000007830548     0.000034231684    -0.000006922528
      17       -0.000065280510     0.000063795810     0.000008474310
      18        0.000505951515    -0.000817236938     0.000605268007
      19       -0.000007280360    -0.000016137582    -0.000034053748
      20       -0.000018791825     0.000019661746    -0.000020366920
      21        0.000019707814     0.000000550443    -0.000000744895
      22       -0.000024168982     0.000014067977     0.000008463967
      23       -0.000000031721    -0.000000144621     0.000000238554
      24       -0.000002697334    -0.000000309536     0.000002991782
      25        0.000001441007    -0.000000295810    -0.000001512985

  **** Optimization is complete! (in 5 steps) ****
    Final optimized geometry and variables:
    Molecular point group: c1

    Geometry (in Angstrom), charge = 0, multiplicity = 1:

    O            2.814650282907     1.441534967927    -0.188266443087
    C            2.561184989408     0.618176627842    -1.013232733015
    C            1.270471568642    -0.180860563245    -0.989808506395
    C            3.520312449654     0.314862579666    -2.146029490449
    C            0.345512919671     0.166266079301     0.173010565590
    H            0.765754857598    -0.026511607798    -1.942608728451
    H            1.533149467995    -1.237745957675    -0.970593412852
    C           -0.942173984626    -0.658113651969     0.163804917509
    H            0.106837834639     1.224493565335     0.134266969328
    H            0.875766818589     0.012426568907     1.107595916266
    C           -1.879348649646    -0.317874026857     1.324810971367
    H           -1.468929661237    -0.502439142598    -0.776904158170
    H           -0.696694269252    -1.718550992940     0.201693149656
    C           -3.184127784650    -1.146382843411     1.331482567102
    H           -2.118169913295     0.742655281502     1.289172128176
    H           -1.345690199537    -0.463511433360     2.260577395109
    C           -4.451006321523    -0.290606789103     1.346044858714
    H           -3.206518458737    -1.801511295122     0.464042350187
    H           -3.195086954284    -1.806858691549     2.194011458422
    H           -4.497851022651     0.352801124398     0.471643005218
    H           -5.344174012870    -0.908018341328     1.352222233837
    H           -4.482358528762     0.346653738585     2.225254528961
    H            3.041890784036     0.490735555787    -3.105091376053
    H            4.396858329680     0.941767403835    -2.059589100343
    H            3.817694204566    -0.729448328286    -2.121054793667

  Mulliken Charges: (a.u.)
   Center  Symbol    Alpha    Beta     Spin     Total
       1     O     4.26114  4.26114  0.00000 -0.52227
       2     C     2.73570  2.73570  0.00000  0.52860
       3     C     3.21078  3.21078  0.00000 -0.42156
       4     C     3.28664  3.28664  0.00000 -0.57329
       5     C     3.14883  3.14883  0.00000 -0.29767
       6     H     0.41000  0.41000  0.00000  0.18000
       7     H     0.40999  0.40999  0.00000  0.18003
       8     C     3.15570  3.15570  0.00000 -0.31139
       9     H     0.41207  0.41207  0.00000  0.17586
      10     H     0.41213  0.41213  0.00000  0.17574
      11     C     3.15516  3.15516  0.00000 -0.31032
      12     H     0.42476  0.42476  0.00000  0.15048
      13     H     0.42430  0.42430  0.00000  0.15140
      14     C     3.15526  3.15526  0.00000 -0.31052
      15     H     0.41949  0.41949  0.00000  0.16103
      16     H     0.41968  0.41968  0.00000  0.16064
      17     C     3.23966  3.23966  0.00000 -0.47933
      18     H     0.42099  0.42099  0.00000  0.15802
      19     H     0.42012  0.42012  0.00000  0.15976
      20     H     0.42225  0.42225  0.00000  0.15551
      21     H     0.42071  0.42071  0.00000  0.15858
      22     H     0.42076  0.42076  0.00000  0.15849
      23     H     0.40874  0.40874  0.00000  0.18252
      24     H     0.39646  0.39646  0.00000  0.20709
      25     H     0.40869  0.40869  0.00000  0.18261

   Total alpha = 36.00000, Total beta = 36.00000, Total charge =  0.00000
