  ==> Input File <==

--------------------------------------------------------------------------
set {
	reference rhf
	basis 6-31G*
}

set_num_threads( 1 )
memory 2 gb

molecule MOL {
0 1

H	 -2.798360	 -0.862255	 -0.071053
N	 -1.863561	 -0.715187	 0.256814
C	 -1.344686	 0.554728	 -0.219830
H	 -1.300452	 -1.461917	 -0.101532
C	 -1.334835	 0.573636	 -1.733990
H	 -1.909754	 1.419320	 0.131141
H	 -0.324305	 0.667248	 0.133642
O	 -2.658447	 0.507360	 -2.182038
H	 -0.862290	 1.486419	 -2.096158
H	 -0.767362	 -0.276267	 -2.106648
C	 -2.793304	 0.430723	 -3.565335
H	 -3.850309	 0.386021	 -3.789923
H	 -2.366596	 1.303848	 -4.055800
H	 -2.310021	 -0.459189	 -3.963207

	symmetry c1
}
set optking {
	frozen_dihedral = ("
		8 5 3 6,
		5 8 11 13,
		11 8 5 3
	")
}

ee = energy('scf')
oeprop('DIPOLE', 'QUADRUPOLE', 'MULLIKEN_CHARGES')
f=open( 'psi4out.xyz', 'w' )
f.write( "14  " )
f.write( str(ee) + "\n" )
f.write( MOL.save_string_xyz() )
f.close()
--------------------------------------------------------------------------

    Molecular point group: c1

    Geometry (in Angstrom), charge = 0, multiplicity = 1:

       Center              X                  Y                   Z               Mass
    ------------   -----------------  -----------------  -----------------  -----------------
           H         -0.788065829895    -1.115755436881     1.441957453188     1.007825032070
           N          0.146733170105    -0.968687436881     1.769824453188    14.003074004780
           C          0.665608170105     0.301227563119     1.293180453188    12.000000000000
           H          0.709842170105    -1.715417436881     1.411478453188     1.007825032070
           C          0.675459170105     0.320135563119    -0.220979546812    12.000000000000
           H          0.100540170105     1.165819563119     1.644151453188     1.007825032070
           H          1.685989170105     0.413747563119     1.646652453188     1.007825032070
           O         -0.648152829895     0.253859563119    -0.669027546812    15.994914619560
           H          1.148004170105     1.232918563119    -0.583147546812     1.007825032070
           H          1.242932170105    -0.529767436881    -0.593637546812     1.007825032070
           C         -0.783009829895     0.177222563119    -2.052324546812    12.000000000000
           H         -1.840014829895     0.132520563119    -2.276912546812     1.007825032070
           H         -0.356301829895     1.050347563119    -2.542789546812     1.007825032070
           H         -0.299726829895    -0.712689436881    -2.450196546812     1.007825032070

  Charge       = 0
  Multiplicity = 1
  Basis Set: 6-31G*
  Basis Set:

    Orbital Energies (a.u.)
    -----------------------

    Doubly Occupied:

       1A    -20.561533     2A    -15.527589     3A    -11.270101
       4A    -11.267480     5A    -11.242606     6A     -1.385562
       7A     -1.175892     8A     -0.999446     9A     -0.910303
      10A     -0.823403    11A     -0.687306    12A     -0.672663
      13A     -0.643767    14A     -0.634167    15A     -0.587259
      16A     -0.548451    17A     -0.523348    18A     -0.512150
      19A     -0.478886    20A     -0.422640    21A     -0.376007

  @DF-RHF Final Energy:  -248.12223744034986

   => Energetics <=

    Nuclear Repulsion Energy =            195.3451000094591450
    One-Electron Energy =                -724.4335064597988776
    Two-Electron Energy =                 280.9661690099904376
    DFT Exchange-Correlation Energy =       0.0000000000000000
    Empirical Dispersion Energy =           0.0000000000000000
    PCM Polarization Energy =               0.0000000000000000
    EFP Energy =                            0.0000000000000000
    Total Energy =                       -248.1222374403493518

  Mulliken Charges: (a.u.)
   Center  Symbol    Alpha    Beta     Spin     Total
       1     H     0.32388  0.32388  0.00000  0.35223
       2     N     3.91853  3.91853  0.00000 -0.83706
       3     C     3.07250  3.07250  0.00000 -0.14501
       4     H     0.33666  0.33666  0.00000  0.32669
       5     C     2.99475  2.99475  0.00000  0.01049
       6     H     0.41030  0.41030  0.00000  0.17939
       7     H     0.41861  0.41861  0.00000  0.16277
       8     O     4.30748  4.30748  0.00000 -0.61496
       9     H     0.43210  0.43210  0.00000  0.13580
      10     H     0.43620  0.43620  0.00000  0.12760
      11     C     3.07913  3.07913  0.00000 -0.15826
      12     H     0.41149  0.41149  0.00000  0.17703
      13     H     0.42865  0.42865  0.00000  0.14271
      14     H     0.42971  0.42971  0.00000  0.14059

   Total alpha = 21.00000, Total beta = 21.00000, Total charge = -0.00000
