                              Psi4 1.0.54 Driver

  ==> Input File <==

--------------------------------------------------------------------------
set {
	reference rhf
	basis cc-pvtz
}

set_num_threads( 4 )
memory 2 gb

molecule MOL {
0 1

H	 -2.582810	 -1.519278	 0.302327
O	 -2.321472	 -0.864941	 -0.318626
C	 -2.021813	 0.336996	 0.342658
C	 -0.669613	 0.837286	 -0.127252
H	 -2.780861	 1.084746	 0.127159
H	 -2.006390	 0.184138	 1.420053
C	 0.490865	 -0.082543	 0.241244
H	 -0.708709	 0.967192	 -1.204587
H	 -0.507562	 1.822272	 0.303070
C	 1.839800	 0.429565	 -0.255472
H	 0.305636	 -1.070211	 -0.165276
H	 0.527397	 -0.195943	 1.322876
C	 3.001144	 -0.485193	 0.119072
H	 1.804373	 0.541073	 -1.335756
H	 2.020437	 1.423114	 0.146921
H	 2.866892	 -1.477297	 -0.298806
H	 3.943543	 -0.095749	 -0.249061
H	 3.085064	 -0.590459	 1.195790

	symmetry c1
}
set optking {
	frozen_dihedral = ("
		1 2 3 4
	")
}

ee,wfn = optimize('scf', return_wfn=True)
oeprop( wfn, 'DIPOLE', 'QUADRUPOLE', 'MULLIKEN_CHARGES')
f=open( 'psi4out.xyz', 'w' )
f.write( "18  " )
f.write( str(ee) + "\n" )
f.write( MOL.save_string_xyz() )
f.close()
--------------------------------------------------------------------------

    Molecular point group: c1
  Charge       = 0
  Multiplicity = 1
  Basis Set: CC-PVTZ
  Basis Set:
  @DF-RHF Final Energy:  -271.28527644125120
    Total Energy =                       -271.2852764412514261
    Molecular point group: c1
  Basis Set: CC-PVTZ
  Basis Set:
  Basis Set: CC-PVTZ
  Basis Set:
  @DF-RHF Final Energy:  -271.28545746593829
    Total Energy =                       -271.2854574659382365
  Basis Set: CC-PVTZ
  Basis Set:
  Basis Set: CC-PVTZ
  Basis Set:
  @DF-RHF Final Energy:  -271.28552679982727
    Total Energy =                       -271.2855267998270961
  Basis Set: CC-PVTZ
  Basis Set:
  Charge       = 0
  Multiplicity = 1
  Basis Set: CC-PVTZ
  Basis Set:

    Orbital Energies (a.u.)
    -----------------------

    Doubly Occupied:

       1A    -20.545339     2A    -11.266352     3A    -11.211201
       4A    -11.210317     5A    -11.208084     6A    -11.204834
       7A     -1.362724     8A     -1.078260     9A     -1.011171
      10A     -0.916927    11A     -0.821576    12A     -0.786333
      13A     -0.708656    14A     -0.637702    15A     -0.630906
      16A     -0.584086    17A     -0.573021    18A     -0.565971
      19A     -0.525502    20A     -0.499055    21A     -0.480589
      22A     -0.478732    23A     -0.462249    24A     -0.459844
      25A     -0.425125

  @DF-RHF Final Energy:  -271.28552720143085

   => Energetics <=

    Nuclear Repulsion Energy =            249.0825683205005703
    One-Electron Energy =                -861.4270793330283595
    Two-Electron Energy =                 341.0589838110969367
    DFT Exchange-Correlation Energy =       0.0000000000000000
    Empirical Dispersion Energy =           0.0000000000000000
    PCM Polarization Energy =               0.0000000000000000
    EFP Energy =                            0.0000000000000000
    Total Energy =                       -271.2855272014309094
    Molecular point group: c1
  Basis Set: CC-PVTZ
  Basis Set:

  -Total Gradient:
     Atom            X                  Y                   Z
    ------   -----------------  -----------------  -----------------
       1        0.000742316521    -0.000259885212     0.000033339417
       2       -0.000856080414     0.000111051256     0.000063702673
       3       -0.000108386091     0.000351483257    -0.000469034976
       4        0.000204608858    -0.000230087328     0.000348383786
       5        0.000026869190     0.000036906867     0.000019757318
       6       -0.000000897614     0.000001530615     0.000002266761
       7       -0.000011751033    -0.000009877320     0.000004001770
       8       -0.000011758306    -0.000010627707    -0.000000220929
       9        0.000016523410    -0.000012510253    -0.000006764196
      10        0.000009997323     0.000019898382     0.000015348653
      11       -0.000012247968    -0.000001696643    -0.000016556505
      12        0.000000508048    -0.000000622966    -0.000000385063
      13        0.000000434683     0.000003708910     0.000001480976
      14       -0.000005324020    -0.000011435460     0.000008493118
      15        0.000006705699     0.000011290797    -0.000003598800
      16       -0.000001733126    -0.000001586660    -0.000000672040
      17       -0.000000824916     0.000001581224    -0.000001516188
      18        0.000001039753     0.000000878242     0.000001974225

  **** Optimization is complete! (in 4 steps) ****
    Final optimized geometry and variables:
    Molecular point group: c1

    Geometry (in Angstrom), charge = 0, multiplicity = 1:

    H           -2.620947630282    -1.531922572531     0.272352817340
    O           -2.357511283366    -0.871796683676    -0.338804691803
    C           -2.024919629479     0.321495382760     0.329270584583
    C           -0.673295521736     0.833740447782    -0.135017142656
    H           -2.789026435829     1.063655429580     0.122264372732
    H           -2.009898361677     0.164238453229     1.404485229117
    C            0.493630697895    -0.072135095350     0.244506765894
    H           -0.707613307319     0.955757330230    -1.213643438383
    H           -0.523082249266     1.824235977031     0.287852223670
    C            1.841331648046     0.443718764266    -0.251780561511
    H            0.318106818101    -1.064407662656    -0.156805350708
    H            0.528899830124    -0.176735378271     1.327503591062
    C            3.007071411919    -0.460603087607     0.133992993297
    H            1.808212765678     0.546024321167    -1.332875284610
    H            2.014082756553     1.441495064748     0.143073615324
    H            2.879895070711    -1.457397287104    -0.274956643165
    H            3.947856584265    -0.069068319956    -0.235788774244
    H            3.089433809649    -0.555085493907     1.211847733319

  Mulliken Charges: (a.u.)
   Center  Symbol    Alpha    Beta     Spin     Total
       1     H     0.39095  0.39095  0.00000  0.21809
       2     O     4.20730  4.20730  0.00000 -0.41460
       3     C     2.97961  2.97961  0.00000  0.04078
       4     C     3.08329  3.08329  0.00000 -0.16658
       5     H     0.45734  0.45734  0.00000  0.08533
       6     H     0.47157  0.47157  0.00000  0.05685
       7     C     3.09152  3.09152  0.00000 -0.18304
       8     H     0.45197  0.45197  0.00000  0.09606
       9     H     0.45493  0.45493  0.00000  0.09014
      10     C     3.08385  3.08385  0.00000 -0.16770
      11     H     0.44855  0.44855  0.00000  0.10291
      12     H     0.45979  0.45979  0.00000  0.08042
      13     C     3.15000  3.15000  0.00000 -0.29999
      14     H     0.45348  0.45348  0.00000  0.09304
      15     H     0.45623  0.45623  0.00000  0.08753
      16     H     0.45472  0.45472  0.00000  0.09055
      17     H     0.44875  0.44875  0.00000  0.10250
      18     H     0.45614  0.45614  0.00000  0.08771

   Total alpha = 25.00000, Total beta = 25.00000, Total charge =  0.00000

*** Psi4 exiting successfully. Buy a developer a beer!
