                              Psi4 1.0.54 Driver

  ==> Input File <==

--------------------------------------------------------------------------
set {
	reference rhf
	basis cc-pvtz
}

set_num_threads( 4 )
memory 2 gb

molecule MOL {
0 1

H	 3.721907	 -0.933076	 -0.066039
O	 2.824271	 -1.154299	 0.131461
C	 2.076458	 -0.067370	 -0.038225
C	 0.626018	 -0.337582	 0.258241
O	 2.538288	 0.965419	 -0.381593
C	 -0.267326	 0.883135	 0.076490
H	 0.325620	 -1.161483	 -0.378003
H	 0.574537	 -0.713685	 1.275261
C	 -1.726822	 0.642622	 0.463839
H	 -0.210803	 1.217591	 -0.953497
H	 0.129920	 1.693110	 0.675679
C	 -2.480891	 -0.340606	 -0.429852
H	 -2.243098	 1.597649	 0.438609
H	 -1.776542	 0.301208	 1.495542
C	 -2.364842	 0.002153	 -1.911582
H	 -2.096127	 -1.342845	 -0.261010
H	 -3.530939	 -0.366096	 -0.156531
H	 -2.905895	 -0.710715	 -2.522944
H	 -1.329220	 -0.003478	 -2.234311
H	 -2.768590	 0.987891	 -2.117649

	symmetry c1
}
set optking {
	frozen_dihedral = ("
		16 12 9 6
	")
}

ee,wfn = optimize('scf', return_wfn=True)
oeprop( wfn, 'DIPOLE', 'QUADRUPOLE', 'MULLIKEN_CHARGES')
f=open( 'psi4out.xyz', 'w' )
f.write( "20  " )
f.write( str(ee) + "\n" )
f.write( MOL.save_string_xyz() )
f.close()
--------------------------------------------------------------------------

    Molecular point group: c1
  Charge       = 0
  Multiplicity = 1
  Basis Set: CC-PVTZ
  Basis Set:
  @DF-RHF Final Energy:  -384.09189670539445
    Total Energy =                       -384.0918967053944471
    Molecular point group: c1
  Basis Set: CC-PVTZ
  Basis Set:
  Basis Set: CC-PVTZ
  Basis Set:
  @DF-RHF Final Energy:  -384.04327270747990
    Total Energy =                       -384.0432727074800141
  Basis Set: CC-PVTZ
  Basis Set:
  Basis Set: CC-PVTZ
  Basis Set:
  @DF-RHF Final Energy:  -384.08671489087135
    Total Energy =                       -384.0867148908714626
  Basis Set: CC-PVTZ
  Basis Set:
  Basis Set: CC-PVTZ
  Basis Set:
  @DF-RHF Final Energy:  -384.09275850543310
    Total Energy =                       -384.0927585054330393
  Basis Set: CC-PVTZ
  Basis Set:
  @DF-RHF Final Energy:  -384.09314883091304
    Total Energy =                       -384.0931488309130373
  Basis Set: CC-PVTZ
  Basis Set:
  @DF-RHF Final Energy:  -384.09318725790502
    Total Energy =                       -384.0931872579050150
  Basis Set: CC-PVTZ
  Basis Set:
  Basis Set: CC-PVTZ
  Basis Set:
  @DF-RHF Final Energy:  -384.09300311753952
    Total Energy =                       -384.0930031175390695
  Basis Set: CC-PVTZ
  Basis Set:
  Basis Set: CC-PVTZ
  Basis Set:
  @DF-RHF Final Energy:  -384.09323030567725
    Total Energy =                       -384.0932303056774799
  Basis Set: CC-PVTZ
  Basis Set:
  Charge       = 0
  Multiplicity = 1
  Basis Set: CC-PVTZ
  Basis Set:

    Orbital Energies (a.u.)
    -----------------------

    Doubly Occupied:

       1A    -20.603867     2A    -20.540482     3A    -11.373407
       4A    -11.238621     5A    -11.220160     6A    -11.219070
       7A    -11.218469     8A    -11.210953     9A     -1.477443
      10A     -1.368918    11A     -1.097543    12A     -1.039661
      13A     -0.961334    14A     -0.881277    15A     -0.817301
      16A     -0.766037    17A     -0.703485    18A     -0.693772
      19A     -0.669591    20A     -0.626942    21A     -0.625712
      22A     -0.583921    23A     -0.572784    24A     -0.569988
      25A     -0.532047    26A     -0.514320    27A     -0.506529
      28A     -0.484428    29A     -0.466731    30A     -0.464246
      31A     -0.458748    32A     -0.446247

  @DF-RHF Final Energy:  -384.09323128443026

   => Energetics <=

    Nuclear Repulsion Energy =            383.2188770716942940
    One-Electron Energy =               -1282.7161432715206502
    Two-Electron Energy =                 515.4040349153960960
    DFT Exchange-Correlation Energy =       0.0000000000000000
    Empirical Dispersion Energy =           0.0000000000000000
    PCM Polarization Energy =               0.0000000000000000
    EFP Energy =                            0.0000000000000000
    Total Energy =                       -384.0932312844302032
    Molecular point group: c1
  Basis Set: CC-PVTZ
  Basis Set:

  -Total Gradient:
     Atom            X                  Y                   Z
    ------   -----------------  -----------------  -----------------
       1        0.000007607643    -0.000003584129     0.000003496619
       2       -0.000002867199     0.000039209634    -0.000016062431
       3       -0.000068000715    -0.000107428990     0.000019740892
       4        0.000023236427     0.000021320095    -0.000029069467
       5        0.000035921424     0.000063088162     0.000003547163
       6       -0.000041000169     0.001069443049    -0.000904525313
       7        0.000004116574     0.000000848557     0.000006769923
       8       -0.000003509775     0.000000584238     0.000016174254
       9       -0.000347973106    -0.001650006188     0.001438093383
      10        0.000001515147    -0.000010948013    -0.000001704539
      11       -0.000003658375     0.000009247896     0.000011989821
      12        0.002098217575     0.000943451357    -0.001191695622
      13       -0.000004855260     0.000012823270     0.000020029565
      14        0.000003724259    -0.000002617237     0.000004430971
      15        0.000036138164    -0.000008798240     0.000000990489
      16       -0.001733519698    -0.000401007576     0.000627610756
      17        0.000002362176     0.000009790109     0.000015273751
      18        0.000008244633     0.000000792269     0.000000009304
      19       -0.000010385530     0.000009991187    -0.000012070051
      20       -0.000005314195     0.000003800548    -0.000013029470

  **** Optimization is complete! (in 9 steps) ****
    Final optimized geometry and variables:
    Molecular point group: c1

    Geometry (in Angstrom), charge = 0, multiplicity = 1:

    H            3.163325861700    -0.850706162960     1.642471877592
    O            2.292733260543    -1.124592809627     1.395916170178
    C            1.610166137859    -0.052605003791     1.003041092946
    C            0.207034530430    -0.406093385972     0.589815959655
    O            2.088765532663     1.028589915708     0.994253023099
    C           -0.616857338004     0.796297068057     0.146979409627
    H            0.290077401065    -1.152457680528    -0.191941743400
    H           -0.255668489405    -0.911198293447     1.431857589557
    C           -2.068560871275     0.451051211430    -0.191403284309
    H           -0.133249714857     1.271398530879    -0.696818620700
    H           -0.611296681728     1.531842435625     0.942089936068
    C           -2.289291014571    -0.511164104233    -1.363420624850
    H           -2.585710043598     1.381004883805    -0.409817778112
    H           -2.551840205864     0.038893210334     0.690386308846
    C           -1.638364967059    -0.087676861950    -2.677038322476
    H           -1.962335835484    -1.511128695317    -1.093704963714
    H           -3.360615643114    -0.595086306296    -1.519051158333
    H           -1.922234057362    -0.760207876560    -3.478072816140
    H           -0.556500460366    -0.091687224339    -2.618077060803
    H           -1.947873131985     0.912946437638    -2.960917259549

  Mulliken Charges: (a.u.)
   Center  Symbol    Alpha    Beta     Spin     Total
       1     H     0.38237  0.38237  0.00000  0.23526
       2     O     4.16024  4.16024  0.00000 -0.32049
       3     C     2.80370  2.80370  0.00000  0.39260
       4     C     3.11225  3.11225  0.00000 -0.22450
       5     O     4.19104  4.19104  0.00000 -0.38208
       6     C     3.10092  3.10092  0.00000 -0.20184
       7     H     0.43715  0.43715  0.00000  0.12569
       8     H     0.43654  0.43654  0.00000  0.12692
       9     C     3.10493  3.10493  0.00000 -0.20986
      10     H     0.44230  0.44230  0.00000  0.11540
      11     H     0.43583  0.43583  0.00000  0.12834
      12     C     3.09976  3.09976  0.00000 -0.19951
      13     H     0.44470  0.44470  0.00000  0.11060
      14     H     0.44834  0.44834  0.00000  0.10332
      15     C     3.15320  3.15320  0.00000 -0.30640
      16     H     0.45185  0.45185  0.00000  0.09630
      17     H     0.44411  0.44411  0.00000  0.11177
      18     H     0.44485  0.44485  0.00000  0.11030
      19     H     0.45410  0.45410  0.00000  0.09179
      20     H     0.45181  0.45181  0.00000  0.09639

   Total alpha = 32.00000, Total beta = 32.00000, Total charge =  0.00000

*** Psi4 exiting successfully. Buy a developer a beer!
