  ==> Input File <==

--------------------------------------------------------------------------
set {
	reference rhf
	basis 6-31G*
}

set_num_threads( 4 )
memory 2 gb

molecule MOL {
0 1

H	 -4.236494	 0.538104	 0.039757
O	 -3.517110	 -0.026191	 -0.205115
C	 -2.306886	 0.532354	 0.237577
C	 -1.177863	 -0.397191	 -0.171080
H	 -2.156308	 1.517575	 -0.201710
H	 -2.315015	 0.655684	 1.319734
C	 0.198102	 0.111031	 0.262842
H	 -1.208843	 -0.518759	 -1.250427
H	 -1.368741	 -1.376554	 0.258909
C	 1.331804	 -0.827780	 -0.158768
H	 0.361943	 1.100838	 -0.156218
H	 0.217265	 0.229072	 1.345532
C	 2.723619	 -0.410569	 0.329459
H	 1.342964	 -0.912588	 -1.244120
H	 1.116806	 -1.824343	 0.220779
C	 3.872506	 -1.251763	 -0.229814
H	 2.740699	 -0.475523	 1.414621
H	 2.890943	 0.636843	 0.086362
H	 3.725555	 -2.306384	 -0.012513
H	 3.968107	 -1.145832	 -1.305368
H	 4.818652	 -0.953323	 0.211201

	symmetry c1
}
set optking {
	frozen_dihedral = ("
		16 13 10 14
	")
}

ee = optimize('scf')
oeprop('DIPOLE', 'QUADRUPOLE', 'MULLIKEN_CHARGES')
f=open( 'psi4out.xyz', 'w' )
f.write( "21  " )
f.write( str(ee) + "\n" )
f.write( MOL.save_string_xyz() )
f.close()
--------------------------------------------------------------------------

    Molecular point group: c1
  Charge       = 0
  Multiplicity = 1
  Basis Set: 6-31G*
  Basis Set:
  @DF-RHF Final Energy:  -310.21385728571107
    Total Energy =                       -310.2138572857107874
    Molecular point group: c1
  Basis Set: 6-31G*
  Basis Set:
  Basis Set: 6-31G*
  Basis Set:
  @DF-RHF Final Energy:  -310.21418220560145
    Total Energy =                       -310.2141822056009914
  Basis Set: 6-31G*
  Basis Set:
  Basis Set: 6-31G*
  Basis Set:
  @DF-RHF Final Energy:  -310.21421165173632
    Total Energy =                       -310.2142116517365480
  Basis Set: 6-31G*
  Basis Set:
  Basis Set: 6-31G*
  Basis Set:
  @DF-RHF Final Energy:  -310.21421846381747
    Total Energy =                       -310.2142184638175877
  Basis Set: 6-31G*
  Basis Set:
  Basis Set: 6-31G*
  Basis Set:
  @DF-RHF Final Energy:  -310.21422331251773
    Total Energy =                       -310.2142233125176745
  Basis Set: 6-31G*
  Basis Set:
  Charge       = 0
  Multiplicity = 1
  Basis Set: 6-31G*
  Basis Set:

    Orbital Energies (a.u.)
    -----------------------

    Doubly Occupied:

       1A    -20.551864     2A    -11.267092     3A    -11.216192
       4A    -11.214781     5A    -11.213266     6A    -11.210703
       7A    -11.208044     8A     -1.358695     9A     -1.086372
      10A     -1.034736    11A     -0.956790    12A     -0.867269
      13A     -0.802024    14A     -0.790769    15A     -0.691882
      16A     -0.663844    17A     -0.632239    18A     -0.596477
      19A     -0.580476    20A     -0.562227    21A     -0.548145
      22A     -0.520753    23A     -0.507646    24A     -0.483776
      25A     -0.477451    26A     -0.462777    27A     -0.461064
      28A     -0.442959    29A     -0.434013

  @DF-RHF Final Energy:  -310.21422365351958

   => Energetics <=

    Nuclear Repulsion Energy =            308.9035062692336737
    One-Electron Energy =               -1032.5468082468782995
    Two-Electron Energy =                 413.4290783241249869
    DFT Exchange-Correlation Energy =       0.0000000000000000
    Empirical Dispersion Energy =           0.0000000000000000
    PCM Polarization Energy =               0.0000000000000000
    EFP Energy =                            0.0000000000000000
    Total Energy =                       -310.2142236535195821
    Molecular point group: c1
  Basis Set: 6-31G*
  Basis Set:

  -Total Gradient:
     Atom            X                  Y                   Z
    ------   -----------------  -----------------  -----------------
       1        0.000003799274     0.000002083474     0.000002420161
       2        0.000020083710    -0.000009748293    -0.000004001615
       3        0.000019066959     0.000018403579     0.000011842766
       4        0.000033382017    -0.000037358597    -0.000034428269
       5       -0.000003223250    -0.000001307782    -0.000000316864
       6        0.000000074263     0.000002245221     0.000000384445
       7        0.000032422135     0.000029678626     0.000018012450
       8       -0.000009304324    -0.000003897029    -0.000006852879
       9       -0.000001893623    -0.000003018715    -0.000003780937
      10       -0.000541676237     0.002106939641    -0.000545138108
      11       -0.000004427669    -0.000007610818     0.000005092766
      12        0.000000014741    -0.000002238640     0.000017224886
      13        0.000040333334    -0.001366506085     0.001323134253
      14        0.000417949021    -0.001492788270     0.000109154255
      15        0.000004528354     0.000017986672     0.000027627999
      16        0.000009617791     0.000726995850    -0.000942897566
      17        0.000009989615     0.000005974163     0.000025217033
      18       -0.000003786845    -0.000010985802    -0.000021006390
      19       -0.000020148789     0.000001403483     0.000007555202
      20        0.000040506039    -0.000001921918    -0.000011472592
      21       -0.000047306513     0.000025671239     0.000022229005

  **** Optimization is complete! (in 6 steps) ****
    Final optimized geometry and variables:
    Molecular point group: c1

    Geometry (in Angstrom), charge = 0, multiplicity = 1:

    H           -4.316243516530     0.883127200784     0.009140548192
    O           -3.600690737280     0.316075695871    -0.240566031540
    C           -2.389559429863     0.848451329739     0.230901842159
    C           -1.266786211367    -0.084528511156    -0.186961835512
    H           -2.221505178668     1.842329188487    -0.181726408252
    H           -2.409865631729     0.944920629301     1.315615313574
    C            0.109207727697     0.396254938169     0.275725346328
    H           -1.285996631207    -0.179637270246    -1.269184092659
    H           -1.474247171734    -1.071606873583     0.216934833504
    C            1.242200968149    -0.538953182756    -0.148294852771
    H            0.299818679892     1.391626744263    -0.122316145424
    H            0.114505449210     0.495368803836     1.360230753136
    C            2.620929763505    -0.082566079860     0.333509935797
    H            1.251694881825    -0.635559125502    -1.232540343313
    H            1.044931653051    -1.538367171670     0.236176514651
    C            3.761834451309    -0.922960083777    -0.238644784166
    H            2.652464188288    -0.113872977525     1.420388620304
    H            2.773160341006     0.958218415428     0.054479544813
    H            3.652387086908    -1.970198732043     0.029493426207
    H            3.786421329645    -0.861301464776    -1.322817729886
    H            4.724058778746    -0.585584839980     0.134060364267

  Mulliken Charges: (a.u.)
   Center  Symbol    Alpha    Beta     Spin     Total
       1     H     0.28118  0.28118  0.00000  0.43765
       2     O     4.37182  4.37182  0.00000 -0.74365
       3     C     2.98973  2.98973  0.00000  0.02055
       4     C     3.15927  3.15927  0.00000 -0.31854
       5     H     0.43284  0.43284  0.00000  0.13432
       6     H     0.43284  0.43284  0.00000  0.13431
       7     C     3.16015  3.16015  0.00000 -0.32030
       8     H     0.41474  0.41474  0.00000  0.17052
       9     H     0.41471  0.41471  0.00000  0.17058
      10     C     3.15029  3.15029  0.00000 -0.30058
      11     H     0.42350  0.42350  0.00000  0.15300
      12     H     0.42357  0.42357  0.00000  0.15286
      13     C     3.15149  3.15149  0.00000 -0.30299
      14     H     0.42271  0.42271  0.00000  0.15457
      15     H     0.42262  0.42262  0.00000  0.15476
      16     C     3.23945  3.23945  0.00000 -0.47890
      17     H     0.42283  0.42283  0.00000  0.15434
      18     H     0.42371  0.42371  0.00000  0.15258
      19     H     0.42160  0.42160  0.00000  0.15681
      20     H     0.42143  0.42143  0.00000  0.15714
      21     H     0.41952  0.41952  0.00000  0.16095

   Total alpha = 29.00000, Total beta = 29.00000, Total charge =  0.00000
