  ==> Input File <==

--------------------------------------------------------------------------
set {
	reference rhf
	basis cc-pvtz
}

set_num_threads( 4 )
memory 2 gb

molecule MOL {
0 1

H	 -3.184631	 -0.088163	 0.630441
C	 -2.782255	 -0.149526	 -0.378129
O	 -1.401606	 -0.295183	 -0.366624
H	 -3.202119	 -1.016078	 -0.867710
H	 -3.085954	 0.741757	 -0.924267
C	 -0.718530	 0.758693	 0.228682
C	 0.718529	 0.758687	 -0.228709
H	 -1.176498	 1.708665	 -0.046615
H	 -0.748705	 0.673525	 1.312779
O	 1.401606	 -0.295166	 0.366636
H	 0.748705	 0.673477	 -1.312803
H	 1.176496	 1.708671	 0.046552
C	 2.714315	 -0.441627	 -0.061017
H	 2.765292	 -0.641548	 -1.128869
H	 3.305661	 0.447341	 0.150952
H	 3.143725	 -1.278506	 0.470147

	symmetry c1
}
set optking {
	frozen_dihedral = ("
		2 3 6 7
	")
}

ee = optimize('scf')
oeprop('DIPOLE', 'QUADRUPOLE', 'MULLIKEN_CHARGES')
f=open( 'psi4out.xyz', 'w' )
f.write( "16  " )
f.write( str(ee) + "\n" )
f.write( MOL.save_string_xyz() )
f.close()
--------------------------------------------------------------------------

    Molecular point group: c1
  Charge       = 0
  Multiplicity = 1
  Basis Set: CC-PVTZ
  Basis Set:
  @DF-RHF Final Energy:  -307.09666611532970
    Total Energy =                       -307.0966661153298105
    Molecular point group: c1
  Basis Set: CC-PVTZ
  Basis Set:
  Basis Set: CC-PVTZ
  Basis Set:
  @DF-RHF Final Energy:  -307.09672464602465
    Total Energy =                       -307.0967246460246542
  Basis Set: CC-PVTZ
  Basis Set:
  Basis Set: CC-PVTZ
  Basis Set:
  @DF-RHF Final Energy:  -307.09673393322697
    Total Energy =                       -307.0967339332270285
  Basis Set: CC-PVTZ
  Basis Set:
  Charge       = 0
  Multiplicity = 1
  Basis Set: CC-PVTZ
  Basis Set:

    Orbital Energies (a.u.)
    -----------------------

    Doubly Occupied:

       1A    -20.547519     2A    -20.547402     3A    -11.267768
       4A    -11.267079     5A    -11.262600     6A    -11.261370
       7A     -1.391192     8A     -1.374224     9A     -1.032046
      10A     -0.937258    11A     -0.893803    12A     -0.823487
      13A     -0.687906    14A     -0.680757    15A     -0.659502
      16A     -0.640070    17A     -0.629911    18A     -0.599139
      19A     -0.555623    20A     -0.532657    21A     -0.508987
      22A     -0.478060    23A     -0.468567    24A     -0.422373
      25A     -0.412698

  @DF-RHF Final Energy:  -307.09673422052759

   => Energetics <=

    Nuclear Repulsion Energy =            258.4900900706584821
    One-Electron Energy =                -931.4096520546715965
    Two-Electron Energy =                 365.8228277634858046
    DFT Exchange-Correlation Energy =       0.0000000000000000
    Empirical Dispersion Energy =           0.0000000000000000
    PCM Polarization Energy =               0.0000000000000000
    EFP Energy =                            0.0000000000000000
    Total Energy =                       -307.0967342205273667
    Molecular point group: c1
  Basis Set: CC-PVTZ
  Basis Set:

  -Total Gradient:
     Atom            X                  Y                   Z
    ------   -----------------  -----------------  -----------------
       1        0.000018076292     0.000002888192    -0.000000035315
       2        0.000127609055     0.000989844929    -0.002017591659
       3       -0.000381086638    -0.001000115569     0.002250077915
       4       -0.000023378032    -0.000005930037     0.000003630057
       5        0.000008297548     0.000002332575     0.000014103955
       6        0.000729790865    -0.001147147853     0.001301402296
       7       -0.000488564753     0.001229790900    -0.001557480954
       8       -0.000001591738    -0.000002364941    -0.000009119851
       9        0.000002606835    -0.000009980809    -0.000025398353
      10        0.000026574610    -0.000052216372     0.000026166702
      11       -0.000007728252    -0.000015554360     0.000021644107
      12        0.000008227418    -0.000013721193     0.000006250128
      13       -0.000017336639     0.000024070634    -0.000019939147
      14        0.000004225836    -0.000002815057    -0.000000586099
      15        0.000006704977    -0.000000956078     0.000001457569
      16       -0.000012427390     0.000001875036     0.000005418648

  **** Optimization is complete! (in 4 steps) ****
    Final optimized geometry and variables:
    Molecular point group: c1

    Geometry (in Angstrom), charge = 0, multiplicity = 1:

    H           -3.182598738093    -0.122191676671     0.707001079590
    C           -2.773335046062    -0.203500507590    -0.297988065494
    O           -1.392213600797    -0.345751880931    -0.280931434149
    H           -3.189742725304    -1.081711125851    -0.769526974627
    H           -3.075615305777     0.675259055316    -0.863789557041
    C           -0.705247496063     0.712202485753     0.306056653571
    C            0.733948116698     0.711111054079    -0.146040071415
    H           -1.149918797137     1.661136776615     0.008364742948
    H           -0.751822621851     0.645836823369     1.390431712724
    O            1.412995744268    -0.353971288123     0.433273923313
    H            0.765623121496     0.642781158541    -1.231232564433
    H            1.194669112055     1.655083756659     0.146021780484
    C            2.728008959240    -0.493256074245     0.010665909723
    H            2.785294766476    -0.672207595055    -1.060639370802
    H            3.318750669923     0.390932200961     0.243566593868
    H            3.153489397770    -1.340794132208     0.527822357546

  Mulliken Charges: (a.u.)
   Center  Symbol    Alpha    Beta     Spin     Total
       1     H     0.47141  0.47141  0.00000  0.05719
       2     C     3.03173  3.03173  0.00000 -0.06346
       3     O     4.17055  4.17055  0.00000 -0.34110
       4     H     0.44685  0.44685  0.00000  0.10629
       5     H     0.47252  0.47252  0.00000  0.05497
       6     C     2.96055  2.96055  0.00000  0.07890
       7     C     2.96006  2.96006  0.00000  0.07989
       8     H     0.47926  0.47926  0.00000  0.04147
       9     H     0.46599  0.46599  0.00000  0.06802
      10     O     4.16959  4.16959  0.00000 -0.33919
      11     H     0.47182  0.47182  0.00000  0.05636
      12     H     0.47715  0.47715  0.00000  0.04571
      13     C     3.03203  3.03203  0.00000 -0.06405
      14     H     0.47053  0.47053  0.00000  0.05895
      15     H     0.47384  0.47384  0.00000  0.05233
      16     H     0.44613  0.44613  0.00000  0.10774

   Total alpha = 25.00000, Total beta = 25.00000, Total charge =  0.00000
