  ==> Input File <==

--------------------------------------------------------------------------
set {
	reference rhf
	basis 6-31G*
}

set_num_threads( 1 )
memory 2 gb

molecule MOL {
0 1

H	 2.591676	 2.013956	 0.335017
O	 3.341076	 1.666752	 -0.126416
C	 3.569581	 0.339145	 0.272707
C	 2.539767	 -0.640285	 -0.279495
H	 4.553106	 0.084646	 -0.100901
H	 3.608576	 0.269204	 1.359154
C	 1.115811	 -0.397273	 0.226630
H	 2.556196	 -0.582511	 -1.364741
H	 2.852081	 -1.648031	 -0.010655
C	 0.470018	 -1.659861	 0.804248
H	 0.506497	 -0.018917	 -0.589426
H	 1.131169	 0.378373	 0.992448
C	 -0.925817	 -1.452725	 1.403482
H	 0.419382	 -2.422634	 0.029354
H	 1.121578	 -2.058368	 1.579078
C	 -2.012156	 -1.077071	 0.391934
H	 -1.222119	 -2.371620	 1.905132
H	 -0.874662	 -0.689140	 2.178180
C	 -3.404722	 -0.984858	 1.019383
H	 -2.028071	 -1.815353	 -0.408564
H	 -1.774401	 -0.124986	 -0.076372
C	 -4.489980	 -0.603745	 0.013088
H	 -3.656892	 -1.938766	 1.477595
H	 -3.388334	 -0.254662	 1.825876
H	 -4.553686	 -1.332857	 -0.789758
H	 -5.464942	 -0.548516	 0.487465
H	 -4.285992	 0.364074	 -0.436443

	symmetry c1
}
set optking {
	frozen_dihedral = ("
		14 10 7 4,
		14 10 13 16,
		8 4 3 2,
		10 13 16 20,
		20 16 19 22,
		4 3 2 1
	")
}

ee = energy('scf')
oeprop('DIPOLE', 'QUADRUPOLE', 'MULLIKEN_CHARGES')
f=open( 'psi4out.xyz', 'w' )
f.write( "27  " )
f.write( str(ee) + "\n" )
f.write( MOL.save_string_xyz() )
f.close()
--------------------------------------------------------------------------

    Molecular point group: c1

    Geometry (in Angstrom), charge = 0, multiplicity = 1:

       Center              X                  Y                   Z               Mass
    ------------   -----------------  -----------------  -----------------  -----------------
           H          2.531588564124     2.504643363491    -0.069635947621     1.007825032070
           O          3.280988564124     2.157439363491    -0.531068947621    15.994914619560
           C          3.509493564124     0.829832363491    -0.131945947621    12.000000000000
           C          2.479679564124    -0.149597636509    -0.684147947621    12.000000000000
           H          4.493018564124     0.575333363491    -0.505553947621     1.007825032070
           H          3.548488564124     0.759891363491     0.954501052379     1.007825032070
           C          1.055723564124     0.093414363491    -0.178022947621    12.000000000000
           H          2.496108564124    -0.091823636509    -1.769393947621     1.007825032070
           H          2.791993564124    -1.157343636509    -0.415307947621     1.007825032070
           C          0.409930564124    -1.169173636509     0.399595052379    12.000000000000
           H          0.446409564124     0.471770363491    -0.994078947621     1.007825032070
           H          1.071081564124     0.869060363491     0.587795052379     1.007825032070
           C         -0.985904435876    -0.962037636509     0.998829052379    12.000000000000
           H          0.359294564124    -1.931946636509    -0.375298947621     1.007825032070
           H          1.061490564124    -1.567680636509     1.174425052379     1.007825032070
           C         -2.072243435876    -0.586383636509    -0.012718947621    12.000000000000
           H         -1.282206435876    -1.880932636509     1.500479052379     1.007825032070
           H         -0.934749435876    -0.198452636509     1.773527052379     1.007825032070
           C         -3.464809435876    -0.494170636509     0.614730052379    12.000000000000
           H         -2.088158435876    -1.324665636509    -0.813216947621     1.007825032070
           H         -1.834488435876     0.365701363491    -0.481024947621     1.007825032070
           C         -4.550067435876    -0.113057636509    -0.391564947621    12.000000000000
           H         -3.716979435876    -1.448078636509     1.072942052379     1.007825032070
           H         -3.448421435876     0.236025363491     1.421223052379     1.007825032070
           H         -4.613773435876    -0.842169636509    -1.194410947621     1.007825032070
           H         -5.525029435876    -0.057828636509     0.082812052379     1.007825032070
           H         -4.346079435876     0.854761363491    -0.841095947621     1.007825032070

  Charge       = 0
  Multiplicity = 1
  Basis Set: 6-31G*
  Basis Set:

    Orbital Energies (a.u.)
    -----------------------

    Doubly Occupied:

       1A    -20.551834     2A    -11.267023     3A    -11.219447
       4A    -11.218441     5A    -11.216303     6A    -11.216016
       7A    -11.214497     8A    -11.213737     9A    -11.209467
      10A     -1.358699    11A     -1.095892    12A     -1.061876
      13A     -1.011317    14A     -0.948053    15A     -0.889025
      16A     -0.821378    17A     -0.800924    18A     -0.778551
      19A     -0.697786    20A     -0.647850    21A     -0.629446
      22A     -0.620395    23A     -0.604928    24A     -0.585178
      25A     -0.575955    26A     -0.554587    27A     -0.542682
      28A     -0.526003    29A     -0.509654    30A     -0.496342
      31A     -0.485221    32A     -0.475564    33A     -0.469267
      34A     -0.461582    35A     -0.446720    36A     -0.440460
      37A     -0.424207

  @DF-RHF Final Energy:  -388.27652132901841

   => Energetics <=

    Nuclear Repulsion Energy =            459.0413597650264705
    One-Electron Energy =               -1436.0631463594456818
    Two-Electron Energy =                 588.7452652653997802
    DFT Exchange-Correlation Energy =       0.0000000000000000
    Empirical Dispersion Energy =           0.0000000000000000
    PCM Polarization Energy =               0.0000000000000000
    EFP Energy =                            0.0000000000000000
    Total Energy =                       -388.2765213290193742

  Mulliken Charges: (a.u.)
   Center  Symbol    Alpha    Beta     Spin     Total
       1     H     0.27978  0.27978  0.00000  0.44044
       2     O     4.37132  4.37132  0.00000 -0.74265
       3     C     3.00001  3.00001  0.00000 -0.00002
       4     C     3.16272  3.16272  0.00000 -0.32544
       5     H     0.41524  0.41524  0.00000  0.16952
       6     H     0.43216  0.43216  0.00000  0.13569
       7     C     3.16088  3.16088  0.00000 -0.32176
       8     H     0.41295  0.41295  0.00000  0.17410
       9     H     0.42126  0.42126  0.00000  0.15747
      10     C     3.15588  3.15588  0.00000 -0.31177
      11     H     0.41358  0.41358  0.00000  0.17284
      12     H     0.43227  0.43227  0.00000  0.13546
      13     C     3.15387  3.15387  0.00000 -0.30774
      14     H     0.42140  0.42140  0.00000  0.15719
      15     H     0.42194  0.42194  0.00000  0.15611
      16     C     3.15276  3.15276  0.00000 -0.30552
      17     H     0.42137  0.42137  0.00000  0.15725
      18     H     0.42458  0.42458  0.00000  0.15084
      19     C     3.15115  3.15115  0.00000 -0.30229
      20     H     0.42407  0.42407  0.00000  0.15185
      21     H     0.42251  0.42251  0.00000  0.15498
      22     C     3.23923  3.23923  0.00000 -0.47847
      23     H     0.42299  0.42299  0.00000  0.15402
      24     H     0.42332  0.42332  0.00000  0.15336
      25     H     0.42162  0.42162  0.00000  0.15675
      26     H     0.41923  0.41923  0.00000  0.16155
      27     H     0.42189  0.42189  0.00000  0.15622

   Total alpha = 37.00000, Total beta = 37.00000, Total charge =  0.00000
