  ==> Input File <==

--------------------------------------------------------------------------
set {
	reference rhf
	basis cc-pvtz
}

set_num_threads( 4 )
memory 2 gb

molecule MOL {
0 1

H	 0.365242	 -2.285204	 0.774804
C	 -0.444565	 -1.577700	 0.962152
N	 -0.537714	 -0.645117	 0.000000
O	 -1.140819	 -1.662163	 1.923825
C	 -1.522613	 0.412524	 0.000000
H	 0.110504	 -0.695247	 -0.746515
H	 -2.150256	 0.356137	 -0.880771
H	 -1.005621	 1.357208	 0.000000
H	 -2.150256	 0.356137	 0.880771

	symmetry c1
}
set optking {
	frozen_dihedral = ("
		6 3 5 7
	")
}

ee = optimize('scf')
oeprop('DIPOLE', 'QUADRUPOLE', 'MULLIKEN_CHARGES')
f=open( 'psi4out.xyz', 'w' )
f.write( "9  " )
f.write( str(ee) + "\n" )
f.write( MOL.save_string_xyz() )
f.close()
--------------------------------------------------------------------------

    Molecular point group: c1
  Charge       = 0
  Multiplicity = 1
  Basis Set: CC-PVTZ
  Basis Set:
  @DF-RHF Final Energy:  -208.04307703068019
    Total Energy =                       -208.0430770306801946
    Molecular point group: c1
  Basis Set: CC-PVTZ
  Basis Set:
  Basis Set: CC-PVTZ
  Basis Set:
  @DF-RHF Final Energy:  -208.04350609467002
    Total Energy =                       -208.0435060946701071
  Basis Set: CC-PVTZ
  Basis Set:
  Basis Set: CC-PVTZ
  Basis Set:
  @DF-RHF Final Energy:  -208.04354452564621
    Total Energy =                       -208.0435445256461833
  Basis Set: CC-PVTZ
  Basis Set:
  Basis Set: CC-PVTZ
  Basis Set:
  @DF-RHF Final Energy:  -208.04353428225892
    Total Energy =                       -208.0435342822589746
  Basis Set: CC-PVTZ
  Basis Set:
  Basis Set: CC-PVTZ
  Basis Set:
  @DF-RHF Final Energy:  -208.04356632458962
    Total Energy =                       -208.0435663245897331
  Basis Set: CC-PVTZ
  Basis Set:
  Charge       = 0
  Multiplicity = 1
  Basis Set: CC-PVTZ
  Basis Set:

    Orbital Energies (a.u.)
    -----------------------

    Doubly Occupied:

       1A    -20.515847     2A    -15.585169     3A    -11.337670
       4A    -11.259115     5A     -1.393455     6A     -1.239957
       7A     -0.970567     8A     -0.808254     9A     -0.748853
      10A     -0.646348    11A     -0.629220    12A     -0.597001
      13A     -0.554698    14A     -0.542890    15A     -0.428028
      16A     -0.395759

  @DF-RHF Final Energy:  -208.04356649517069

   => Energetics <=

    Nuclear Repulsion Energy =            122.6886907415038195
    One-Electron Energy =                -526.1588566086684295
    Two-Electron Energy =                 195.4265993719939161
    DFT Exchange-Correlation Energy =       0.0000000000000000
    Empirical Dispersion Energy =           0.0000000000000000
    PCM Polarization Energy =               0.0000000000000000
    EFP Energy =                            0.0000000000000000
    Total Energy =                       -208.0435664951706940
    Molecular point group: c1
  Basis Set: CC-PVTZ
  Basis Set:

  -Total Gradient:
     Atom            X                  Y                   Z
    ------   -----------------  -----------------  -----------------
       1        0.000004154272     0.000006589560     0.000004003243
       2       -0.000028366932    -0.000013587847    -0.000037605276
       3        0.000087827241     0.000086998152     0.000068827029
       4       -0.000004051300    -0.000001412993     0.000012381640
       5       -0.000053925905    -0.000055631810     0.000007978118
       6       -0.000039602096    -0.000032268280    -0.000033847874
       7        0.000014334805     0.000016996434    -0.000017475079
       8        0.000012936019    -0.000007360073    -0.000006226073
       9        0.000006693895    -0.000000323144     0.000001964274

  **** Optimization is complete! (in 6 steps) ****
    Final optimized geometry and variables:
    Molecular point group: c1

    Geometry (in Angstrom), charge = 0, multiplicity = 1:

    H            1.272561293979    -1.440295249899     0.060071704929
    C            0.469590246092    -0.724610444771     0.246694313742
    N            0.383028067418     0.205709250170    -0.718497746429
    O           -0.225422646947    -0.798217154426     1.210060573926
    C           -0.595108740218     1.269514346928    -0.722481059366
    H            1.025849643133     0.143691409629    -1.468906467866
    H           -1.229359436077     1.208357419698    -1.598269104521
    H           -0.112145550442     2.238803455909    -0.707873634089
    H           -1.206683883481     1.171454669950     0.158608700015

  Mulliken Charges: (a.u.)
   Center  Symbol    Alpha    Beta     Spin     Total
       1     H     0.46272  0.46272  0.00000  0.07456
       2     C     2.88098  2.88098  0.00000  0.23805
       3     N     3.60832  3.60832  0.00000 -0.21664
       4     O     4.21531  4.21531  0.00000 -0.43063
       5     C     3.08128  3.08128  0.00000 -0.16256
       6     H     0.40932  0.40932  0.00000  0.18137
       7     H     0.45474  0.45474  0.00000  0.09051
       8     H     0.45468  0.45468  0.00000  0.09064
       9     H     0.43265  0.43265  0.00000  0.13470

   Total alpha = 16.00000, Total beta = 16.00000, Total charge = -0.00000
