                              Psi4 1.0.54 Driver

  ==> Input File <==

--------------------------------------------------------------------------
set {
	reference rhf
	basis cc-pvtz
}

set_num_threads( 4 )
memory 2 gb

molecule MOL {
0 1

H	 2.614283	 2.028610	 0.296620
O	 3.358864	 1.662087	 -0.142800
C	 3.565468	 0.338079	 0.273842
C	 2.533667	 -0.637565	 -0.272227
H	 4.548038	 0.064914	 -0.086598
H	 3.593945	 0.282242	 1.360360
C	 1.114816	 -0.402372	 0.240993
H	 2.544552	 -0.580764	 -1.356576
H	 2.850574	 -1.642962	 -0.005497
C	 0.227243	 0.308370	 -0.779740
H	 1.155979	 0.182865	 1.153575
H	 0.663239	 -1.357989	 0.502073
C	 -1.226817	 0.504135	 -0.346562
H	 0.663256	 1.274990	 -1.020085
H	 0.236144	 -0.264568	 -1.702849
C	 -1.429349	 1.467363	 0.821734
H	 -1.789907	 0.872714	 -1.199560
H	 -1.659147	 -0.461831	 -0.095254
C	 -2.900761	 1.705664	 1.151230
H	 -0.957109	 2.418868	 0.587006
H	 -0.928916	 1.089883	 1.708344
C	 -3.106496	 2.663988	 2.319640
H	 -3.406474	 2.096111	 0.272377
H	 -3.376050	 0.754948	 1.377732
H	 -2.670011	 3.635122	 2.110793
H	 -4.160420	 2.812917	 2.524998
H	 -2.644264	 2.283438	 3.224557

	symmetry c1
}
set optking {
	frozen_dihedral = ("
		10 7 4 8
	")
}

ee,wfn = optimize('scf', return_wfn=True)
oeprop( wfn, 'DIPOLE', 'QUADRUPOLE', 'MULLIKEN_CHARGES')
f=open( 'psi4out.xyz', 'w' )
f.write( "27  " )
f.write( str(ee) + "\n" )
f.write( MOL.save_string_xyz() )
f.close()
--------------------------------------------------------------------------

    Molecular point group: c1
  Charge       = 0
  Multiplicity = 1
  Basis Set: CC-PVTZ
  Basis Set:
  @DF-RHF Final Energy:  -388.42293188547450
    Total Energy =                       -388.4229318854747817
    Molecular point group: c1
  Basis Set: CC-PVTZ
  Basis Set:
  Basis Set: CC-PVTZ
  Basis Set:
  @DF-RHF Final Energy:  -388.42230308498603
    Total Energy =                       -388.4223030849865381
  Basis Set: CC-PVTZ
  Basis Set:
  Basis Set: CC-PVTZ
  Basis Set:
  @DF-RHF Final Energy:  -388.42335265237750
    Total Energy =                       -388.4233526523780711
  Basis Set: CC-PVTZ
  Basis Set:
  Basis Set: CC-PVTZ
  Basis Set:
  @DF-RHF Final Energy:  -388.42338213725520
    Total Energy =                       -388.4233821372553166
  Basis Set: CC-PVTZ
  Basis Set:
  Basis Set: CC-PVTZ
  Basis Set:
  @DF-RHF Final Energy:  -388.42337450869877
    Total Energy =                       -388.4233745086992258
  Basis Set: CC-PVTZ
  Basis Set:
  Basis Set: CC-PVTZ
  Basis Set:
  @DF-RHF Final Energy:  -388.42339414122256
    Total Energy =                       -388.4233941412226159
  Basis Set: CC-PVTZ
  Basis Set:
  Charge       = 0
  Multiplicity = 1
  Basis Set: CC-PVTZ
  Basis Set:

    Orbital Energies (a.u.)
    -----------------------

    Doubly Occupied:

       1A    -20.545979     2A    -11.265080     3A    -11.216999
       4A    -11.214474     5A    -11.213365     6A    -11.213325
       7A    -11.213059     8A    -11.212415     9A    -11.207922
      10A     -1.363702    11A     -1.095091    12A     -1.061263
      13A     -1.012360    14A     -0.949658    15A     -0.888615
      16A     -0.821938    17A     -0.801698    18A     -0.778024
      19A     -0.698867    20A     -0.649672    21A     -0.641438
      22A     -0.614499    23A     -0.595454    24A     -0.584090
      25A     -0.575364    26A     -0.558834    27A     -0.544923
      28A     -0.532418    29A     -0.512756    30A     -0.496205
      31A     -0.488988    32A     -0.472574    33A     -0.466511
      34A     -0.457435    35A     -0.451120    36A     -0.441152
      37A     -0.425512

  @DF-RHF Final Energy:  -388.42339419682924

   => Energetics <=

    Nuclear Repulsion Energy =            467.8572198089481162
    One-Electron Energy =               -1453.9956789561178994
    Two-Electron Energy =                 597.7150649503407749
    DFT Exchange-Correlation Energy =       0.0000000000000000
    Empirical Dispersion Energy =           0.0000000000000000
    PCM Polarization Energy =               0.0000000000000000
    EFP Energy =                            0.0000000000000000
    Total Energy =                       -388.4233941968290083
    Molecular point group: c1
  Basis Set: CC-PVTZ
  Basis Set:

  -Total Gradient:
     Atom            X                  Y                   Z
    ------   -----------------  -----------------  -----------------
       1        0.000002189811    -0.000007368634     0.000004068687
       2        0.000011754863     0.000009091018    -0.000009851950
       3       -0.000000633715    -0.000025398605     0.000003009018
       4       -0.000280184515    -0.002150336544    -0.000088291004
       5       -0.000003761751     0.000009712055    -0.000004144138
       6       -0.000004114926    -0.000002053513    -0.000006042762
       7        0.000349745722     0.001711745443     0.000438210923
       8        0.000170028794     0.001428985103    -0.000029947776
       9        0.000011758518     0.000002074090    -0.000002493558
      10       -0.000237998263    -0.000988694184    -0.000303609692
      11       -0.000016385506     0.000006567451     0.000001938697
      12       -0.000007693464     0.000008514561    -0.000004210617
      13       -0.000004484880    -0.000006501089     0.000005140773
      14        0.000006439584    -0.000000940415     0.000009913150
      15        0.000000611678    -0.000002501520     0.000001083287
      16        0.000000950859     0.000008868912    -0.000015959734
      17        0.000002321808     0.000004683220     0.000002975045
      18       -0.000004887060    -0.000004393900    -0.000003676891
      19       -0.000000657297     0.000000455313    -0.000002262411
      20       -0.000002349900     0.000004013024    -0.000001846765
      21        0.000003434055     0.000001926056    -0.000001352188
      22        0.000003820342    -0.000008122411     0.000007038107
      23        0.000004980700     0.000003713764     0.000001627825
      24       -0.000003751490    -0.000000117320    -0.000001638999
      25       -0.000001271933    -0.000003804796    -0.000002580191
      26       -0.000000138172    -0.000002509215     0.000001551141
      27        0.000000276139     0.000002392133     0.000001352020

  **** Optimization is complete! (in 7 steps) ****
    Final optimized geometry and variables:
    Molecular point group: c1

    Geometry (in Angstrom), charge = 0, multiplicity = 1:

    H            2.211136743681     1.256633160918    -0.115729897412
    O            2.959855395491     0.938134743488    -0.584903198256
    C            3.308223868317    -0.342972074835    -0.129572238741
    C            2.348347052309    -1.434008764843    -0.582872284201
    H            4.295333435950    -0.540654446582    -0.525801097611
    H            3.389107061356    -0.348045879690     0.955458909898
    C            0.905794899244    -1.266455719644    -0.069528150518
    H            2.352700158282    -1.456818807320    -1.667656989241
    H            2.754838407711    -2.381912857651    -0.244290084424
    C           -0.058808205113    -0.701007126687    -1.114508270420
    H            0.908276877399    -0.643732436700     0.820667749818
    H            0.524768319337    -2.230684544158     0.252070131395
    C           -1.503120682645    -0.542971409700    -0.636493753837
    H            0.309705973707     0.253984900715    -1.478045305368
    H           -0.050862784177    -1.367283199710    -1.972086676477
    C           -1.720652415820     0.544869900937     0.414023900488
    H           -2.125380718827    -0.318041250845    -1.498167624524
    H           -1.859262632170    -1.494383620733    -0.247756514745
    C           -3.187738498354     0.723656630230     0.796117584270
    H           -1.334327008360     1.489106816986     0.035338849061
    H           -1.151628562247     0.318572998157     1.310858308522
    C           -3.406979456957     1.807244131598     1.846558262171
    H           -3.763192880591     0.963283982413    -0.093708499871
    H           -3.578871267215    -0.220291090474     1.165884309214
    H           -3.056162151043     2.771381669030     1.493521335529
    H           -4.457596094943     1.908635616190     2.093265397753
    H           -2.873291362162     1.578212511298     2.763111470282

  Mulliken Charges: (a.u.)
   Center  Symbol    Alpha    Beta     Spin     Total
       1     H     0.39117  0.39117  0.00000  0.21765
       2     O     4.20642  4.20642  0.00000 -0.41283
       3     C     2.98010  2.98010  0.00000  0.03980
       4     C     3.09325  3.09325  0.00000 -0.18651
       5     H     0.44915  0.44915  0.00000  0.10170
       6     H     0.46950  0.46950  0.00000  0.06099
       7     C     3.11590  3.11590  0.00000 -0.23179
       8     H     0.45343  0.45343  0.00000  0.09314
       9     H     0.44775  0.44775  0.00000  0.10449
      10     C     3.10177  3.10177  0.00000 -0.20353
      11     H     0.45477  0.45477  0.00000  0.09045
      12     H     0.44410  0.44410  0.00000  0.11179
      13     C     3.09709  3.09709  0.00000 -0.19417
      14     H     0.44785  0.44785  0.00000  0.10431
      15     H     0.44544  0.44544  0.00000  0.10912
      16     C     3.09080  3.09080  0.00000 -0.18161
      17     H     0.44743  0.44743  0.00000  0.10514
      18     H     0.45402  0.45402  0.00000  0.09195
      19     C     3.08382  3.08382  0.00000 -0.16765
      20     H     0.45571  0.45571  0.00000  0.08857
      21     H     0.45422  0.45422  0.00000  0.09156
      22     C     3.14984  3.14984  0.00000 -0.29968
      23     H     0.45345  0.45345  0.00000  0.09309
      24     H     0.45418  0.45418  0.00000  0.09163
      25     H     0.45507  0.45507  0.00000  0.08985
      26     H     0.44795  0.44795  0.00000  0.10410
      27     H     0.45579  0.45579  0.00000  0.08842

   Total alpha = 37.00000, Total beta = 37.00000, Total charge = -0.00000

*** Psi4 exiting successfully. Buy a developer a beer!
