  ==> Input File <==

--------------------------------------------------------------------------
set {
	reference rhf
	basis 6-31G*
}

set_num_threads( 1 )
memory 2 gb

molecule MOL {
0 1

H	 -2.648414	 -2.311582	 0.647738
C	 -2.957226	 -1.521668	 -0.048173
C	 -2.723299	 -0.114793	 0.440284
O	 -3.436797	 -1.804440	 -1.097841
C	 -1.278877	 0.113759	 0.906829
H	 -3.000111	 0.572452	 -0.350778
H	 -3.400357	 0.049777	 1.277640
C	 -0.252658	 0.041456	 -0.226725
H	 -1.221572	 1.087698	 1.383740
H	 -1.028126	 -0.614999	 1.676109
C	 1.180775	 0.282413	 0.250794
H	 -0.510324	 0.775493	 -0.987412
H	 -0.309468	 -0.929772	 -0.714606
C	 2.148627	 -0.814315	 -0.201312
H	 1.516199	 1.249228	 -0.115937
H	 1.192670	 0.346017	 1.338083
C	 3.580890	 -0.659131	 0.322722
H	 2.166869	 -0.852443	 -1.289387
H	 1.762857	 -1.776509	 0.128956
C	 4.324889	 0.564933	 -0.213704
H	 4.142010	 -1.551473	 0.056605
H	 3.564836	 -0.624694	 1.410140
H	 4.342616	 0.565491	 -1.300421
H	 3.866655	 1.493402	 0.110242
H	 5.353900	 0.572371	 0.132816

	symmetry c1
}
set optking {
	frozen_dihedral = ("
		6 3 5 8,
		6 3 2 4,
		3 5 8 12,
		8 11 14 18,
		20 17 14 18
	")
}

ee = energy('scf')
oeprop('DIPOLE', 'QUADRUPOLE', 'MULLIKEN_CHARGES')
f=open( 'psi4out.xyz', 'w' )
f.write( "25  " )
f.write( str(ee) + "\n" )
f.write( MOL.save_string_xyz() )
f.close()
--------------------------------------------------------------------------

    Molecular point group: c1

    Geometry (in Angstrom), charge = 0, multiplicity = 1:

       Center              X                  Y                   Z               Mass
    ------------   -----------------  -----------------  -----------------  -----------------
           H         -2.720377536288    -1.873596021651     0.642751525751     1.007825032070
           C         -3.029189536288    -1.083682021651    -0.053159474249    12.000000000000
           C         -2.795262536288     0.323192978349     0.435297525751    12.000000000000
           O         -3.508760536288    -1.366454021651    -1.102827474249    15.994914619560
           C         -1.350840536288     0.551744978349     0.901842525751    12.000000000000
           H         -3.072074536288     1.010437978349    -0.355764474249     1.007825032070
           H         -3.472320536288     0.487762978349     1.272653525751     1.007825032070
           C         -0.324621536288     0.479441978349    -0.231711474249    12.000000000000
           H         -1.293535536288     1.525683978349     1.378753525751     1.007825032070
           H         -1.100089536288    -0.177013021651     1.671122525751     1.007825032070
           C          1.108811463712     0.720398978349     0.245807525751    12.000000000000
           H         -0.582287536288     1.213478978349    -0.992398474249     1.007825032070
           H         -0.381431536288    -0.491786021651    -0.719592474249     1.007825032070
           C          2.076663463712    -0.376329021651    -0.206298474249    12.000000000000
           H          1.444235463712     1.687213978349    -0.120923474249     1.007825032070
           H          1.120706463712     0.784002978349     1.333096525751     1.007825032070
           C          3.508926463712    -0.221145021651     0.317735525751    12.000000000000
           H          2.094905463712    -0.414457021651    -1.294373474249     1.007825032070
           H          1.690893463712    -1.338523021651     0.123969525751     1.007825032070
           C          4.252925463712     1.002918978349    -0.218690474249    12.000000000000
           H          4.070046463712    -1.113487021651     0.051618525751     1.007825032070
           H          3.492872463712    -0.186708021651     1.405153525751     1.007825032070
           H          4.270652463712     1.003476978349    -1.305407474249     1.007825032070
           H          3.794691463712     1.931387978349     0.105255525751     1.007825032070
           H          5.281936463712     1.010356978349     0.127829525751     1.007825032070

  Charge       = 0
  Multiplicity = 1
  Basis Set: 6-31G*
  Basis Set:

    Orbital Energies (a.u.)
    -----------------------

    Doubly Occupied:

       1A    -20.561870     2A    -11.326052     3A    -11.235671
       4A    -11.234255     5A    -11.222371     6A    -11.218472
       7A    -11.218000     8A    -11.217498     9A    -11.210499
      10A     -1.401851    11A     -1.104292    12A     -1.069448
      13A     -1.013176    14A     -0.941853    15A     -0.876323
      16A     -0.820423    17A     -0.787892    18A     -0.782750
      19A     -0.665123    20A     -0.657333    21A     -0.631468
      22A     -0.625497    23A     -0.603942    24A     -0.591300
      25A     -0.581122    26A     -0.552854    27A     -0.532654
      28A     -0.525018    29A     -0.509802    30A     -0.496556
      31A     -0.490007    32A     -0.479606    33A     -0.462981
      34A     -0.454845    35A     -0.441212    36A     -0.409439

  @DF-RHF Final Energy:  -387.11664157827227

   => Energetics <=

    Nuclear Repulsion Energy =            440.9656005069973617
    One-Electron Energy =               -1398.2576724157511308
    Two-Electron Energy =                 570.1754303304774112
    DFT Exchange-Correlation Energy =       0.0000000000000000
    Empirical Dispersion Energy =           0.0000000000000000
    PCM Polarization Energy =               0.0000000000000000
    EFP Energy =                            0.0000000000000000
    Total Energy =                       -387.1166415782763579

  Mulliken Charges: (a.u.)
   Center  Symbol    Alpha    Beta     Spin     Total
       1     H     0.43277  0.43277  0.00000  0.13446
       2     C     2.83059  2.83059  0.00000  0.33881
       3     C     3.20880  3.20880  0.00000 -0.41760
       4     O     4.23784  4.23784  0.00000 -0.47568
       5     C     3.16898  3.16898  0.00000 -0.33795
       6     H     0.39970  0.39970  0.00000  0.20059
       7     H     0.40687  0.40687  0.00000  0.18626
       8     C     3.15712  3.15712  0.00000 -0.31424
       9     H     0.41217  0.41217  0.00000  0.17567
      10     H     0.41940  0.41940  0.00000  0.16121
      11     C     3.15683  3.15683  0.00000 -0.31365
      12     H     0.41587  0.41587  0.00000  0.16826
      13     H     0.41575  0.41575  0.00000  0.16850
      14     C     3.15555  3.15555  0.00000 -0.31110
      15     H     0.41702  0.41702  0.00000  0.16596
      16     H     0.42182  0.42182  0.00000  0.15636
      17     C     3.15318  3.15318  0.00000 -0.30635
      18     H     0.42146  0.42146  0.00000  0.15708
      19     H     0.42241  0.42241  0.00000  0.15519
      20     C     3.24131  3.24131  0.00000 -0.48263
      21     H     0.42022  0.42022  0.00000  0.15955
      22     H     0.42355  0.42355  0.00000  0.15290
      23     H     0.42158  0.42158  0.00000  0.15683
      24     H     0.42047  0.42047  0.00000  0.15907
      25     H     0.41875  0.41875  0.00000  0.16251

   Total alpha = 36.00000, Total beta = 36.00000, Total charge = -0.00000
