  ==> Input File <==

--------------------------------------------------------------------------
set {
	reference rhf
	basis cc-pvtz
}

set_num_threads( 4 )
memory 2 gb

molecule MOL {
0 1

O	 1.024823	 1.606668	 0.479483
C	 0.564173	 1.004894	 1.388730
C	 -0.714814	 0.208408	 1.353157
O	 1.129126	 0.953748	 2.583966
C	 -1.413045	 0.229353	 0.001137
H	 -0.469853	 -0.805178	 1.653356
H	 -1.358442	 0.600134	 2.134025
C	 -2.702562	 -0.586401	 0.000228
H	 -0.737400	 -0.150904	 -0.756788
H	 -1.627427	 1.255561	 -0.275417
C	 -3.953810	 0.284959	 -0.000782
H	 -2.717793	 -1.238567	 -0.869075
H	 -2.719108	 -1.238472	 0.869576
H	 -3.983727	 0.924403	 -0.876454
H	 -4.852989	 -0.320147	 -0.001515
H	 -3.985140	 0.924399	 0.874841
C	 2.340751	 1.659709	 2.759752
H	 3.100460	 1.286206	 2.089257
H	 2.634884	 1.495731	 3.783698
H	 2.197479	 2.714428	 2.577365

	symmetry c1
}
set optking {
	frozen_dihedral = ("
		9 5 8 12
	")
}

ee = optimize('scf')
oeprop('DIPOLE', 'QUADRUPOLE', 'MULLIKEN_CHARGES')
f=open( 'psi4out.xyz', 'w' )
f.write( "20  " )
f.write( str(ee) + "\n" )
f.write( MOL.save_string_xyz() )
f.close()
--------------------------------------------------------------------------

    Molecular point group: c1
  Charge       = 0
  Multiplicity = 1
  Basis Set: CC-PVTZ
  Basis Set:
  @DF-RHF Final Energy:  -384.07778700059839
    Total Energy =                       -384.0777870005983914
    Molecular point group: c1
  Basis Set: CC-PVTZ
  Basis Set:
  Basis Set: CC-PVTZ
  Basis Set:
  @DF-RHF Final Energy:  -384.07810632241569
    Total Energy =                       -384.0781063224160334
  Basis Set: CC-PVTZ
  Basis Set:
  Basis Set: CC-PVTZ
  Basis Set:
  @DF-RHF Final Energy:  -384.07803849653658
    Total Energy =                       -384.0780384965369194
  Basis Set: CC-PVTZ
  Basis Set:
  Basis Set: CC-PVTZ
  Basis Set:
  @DF-RHF Final Energy:  -384.07817611717758
    Total Energy =                       -384.0781761171770086
  Basis Set: CC-PVTZ
  Basis Set:
  Basis Set: CC-PVTZ
  Basis Set:
  @DF-RHF Final Energy:  -384.07817780783819
    Total Energy =                       -384.0781778078376192
  Basis Set: CC-PVTZ
  Basis Set:
  Charge       = 0
  Multiplicity = 1
  Basis Set: CC-PVTZ
  Basis Set:

    Orbital Energies (a.u.)
    -----------------------

    Doubly Occupied:

       1A    -20.596456     2A    -20.534360     3A    -11.364637
       4A    -11.278595     5A    -11.234565     6A    -11.218125
       7A    -11.216979     8A    -11.210343     9A     -1.472353
      10A     -1.365963    11A     -1.088309    12A     -1.024379
      13A     -0.969591    14A     -0.889151    15A     -0.804385
      16A     -0.769164    17A     -0.702647    18A     -0.685876
      19A     -0.676529    20A     -0.633437    21A     -0.608789
      22A     -0.597049    23A     -0.574938    24A     -0.546207
      25A     -0.527091    26A     -0.524662    27A     -0.515871
      28A     -0.475057    29A     -0.474406    30A     -0.466279
      31A     -0.458323    32A     -0.439726

  @DF-RHF Final Energy:  -384.07817829613361

   => Energetics <=

    Nuclear Repulsion Energy =            383.3996008478592330
    One-Electron Energy =               -1283.0670734349450868
    Two-Electron Energy =                 515.5892942909524663
    DFT Exchange-Correlation Energy =       0.0000000000000000
    Empirical Dispersion Energy =           0.0000000000000000
    PCM Polarization Energy =               0.0000000000000000
    EFP Energy =                            0.0000000000000000
    Total Energy =                       -384.0781782961333874
    Molecular point group: c1
  Basis Set: CC-PVTZ
  Basis Set:

  -Total Gradient:
     Atom            X                  Y                   Z
    ------   -----------------  -----------------  -----------------
       1       -0.000004063368    -0.000005378553    -0.000013808219
       2        0.000004416484     0.000005586560     0.000003635780
       3       -0.000001604341     0.000011242492     0.000007353061
       4        0.000000008872    -0.000001351386     0.000014325121
       5        0.001660379444    -0.002813450573     0.002754569978
       6        0.000003604047    -0.000002197841    -0.000007769358
       7        0.000002530951    -0.000004735292    -0.000006165071
       8       -0.001793814836     0.003056432749    -0.002345298309
       9       -0.001087553811     0.001854730545    -0.001919574530
      10       -0.000001212565     0.000000696628     0.000005627906
      11       -0.000014811673     0.000002252623     0.000001602175
      12        0.001234029188    -0.002095196861     0.001508102152
      13       -0.000004529135     0.000005474153     0.000000916998
      14        0.000004528457    -0.000007803596     0.000001909773
      15       -0.000003111804    -0.000000208022     0.000002013085
      16        0.000005804665    -0.000003787398    -0.000003895640
      17       -0.000001502018     0.000000818339    -0.000003458985
      18       -0.000000254321    -0.000000493338    -0.000000133309
      19       -0.000003044597    -0.000002305148    -0.000000113408
      20        0.000000200358    -0.000000326080     0.000000160801

  **** Optimization is complete! (in 6 steps) ****
    Final optimized geometry and variables:
    Molecular point group: c1

    Geometry (in Angstrom), charge = 0, multiplicity = 1:

    O            1.459028816627     0.925236789753    -0.604967247057
    C            1.002973672106     0.313676528752     0.300066883020
    C           -0.264269990067    -0.501220813686     0.256035950232
    O            1.563386379797     0.265877523984     1.497643011876
    C           -0.954231769307    -0.492192315071    -1.100773873758
    H           -0.007452588045    -1.510832564683     0.558609283370
    H           -0.919173097035    -0.117965741375     1.032004685133
    C           -2.280604433378    -1.275704360820    -1.104417357382
    H           -0.281540156895    -0.879384092441    -1.855191776437
    H           -1.137712279390     0.535620981715    -1.391262028179
    C           -3.517468946942    -0.383965196701    -1.068134651679
    H           -2.319606598438    -1.923613601890    -1.972756557935
    H           -2.307474926725    -1.947479031862    -0.250815274746
    H           -3.564764980670     0.251303177728    -1.945690195149
    H           -4.426534057257    -0.973483397693    -1.034278174129
    H           -3.510105993203     0.261629060245    -0.195673311262
    C            2.764287542737     0.987875723898     1.681388588254
    H            3.532039918184     0.627414459884     1.012913096293
    H            3.056186329159     0.824194682274     2.706024021143
    H            2.607240193146     2.041188872743     1.502207520909

  Mulliken Charges: (a.u.)
   Center  Symbol    Alpha    Beta     Spin     Total
       1     O     4.19662  4.19662  0.00000 -0.39323
       2     C     2.80747  2.80747  0.00000  0.38506
       3     C     3.09892  3.09892  0.00000 -0.19784
       4     O     4.14704  4.14704  0.00000 -0.29408
       5     C     3.09054  3.09054  0.00000 -0.18109
       6     H     0.43934  0.43934  0.00000  0.12132
       7     H     0.43973  0.43973  0.00000  0.12055
       8     C     3.09274  3.09274  0.00000 -0.18548
       9     H     0.44091  0.44091  0.00000  0.11819
      10     H     0.44747  0.44747  0.00000  0.10506
      11     C     3.14622  3.14622  0.00000 -0.29244
      12     H     0.44635  0.44635  0.00000  0.10730
      13     H     0.45727  0.45727  0.00000  0.08545
      14     H     0.45277  0.45277  0.00000  0.09445
      15     H     0.44897  0.44897  0.00000  0.10206
      16     H     0.45603  0.45603  0.00000  0.08793
      17     C     3.03769  3.03769  0.00000 -0.07539
      18     H     0.45432  0.45432  0.00000  0.09136
      19     H     0.44529  0.44529  0.00000  0.10942
      20     H     0.45430  0.45430  0.00000  0.09139

   Total alpha = 32.00000, Total beta = 32.00000, Total charge =  0.00000
