  ==> Input File <==

--------------------------------------------------------------------------
set {
	reference rhf
	basis 6-31G*
}

set_num_threads( 4 )
memory 2 gb

molecule MOL {
0 1

O	 -2.042549	 -1.228399	 -0.269030
C	 -1.653912	 -0.146171	 0.050137
C	 -0.332303	 0.024011	 0.778412
C	 -2.438579	 1.106236	 -0.272369
C	 0.845713	 -0.001731	 -0.208243
H	 -0.323783	 0.953829	 1.340327
H	 -0.235459	 -0.796807	 1.480410
C	 2.200309	 0.136118	 0.488247
H	 0.733710	 0.800019	 -0.936072
H	 0.811185	 -0.933796	 -0.764304
C	 3.319176	 0.542180	 -0.470114
H	 2.123226	 0.870797	 1.286828
H	 2.455785	 -0.807956	 0.963665
H	 3.108458	 1.500405	 -0.936434
H	 3.441721	 -0.190880	 -1.261978
H	 4.267699	 0.629289	 0.050216
H	 -3.277823	 0.863061	 -0.908988
H	 -1.806773	 1.843019	 -0.759671
H	 -2.802853	 1.554979	 0.648059

	symmetry c1
}
set optking {
	frozen_dihedral = ("
		11 8 5 9
	")
}

ee = optimize('scf')
oeprop('DIPOLE', 'QUADRUPOLE', 'MULLIKEN_CHARGES')
f=open( 'psi4out.xyz', 'w' )
f.write( "19  " )
f.write( str(ee) + "\n" )
f.write( MOL.save_string_xyz() )
f.close()
--------------------------------------------------------------------------

    Molecular point group: c1
  Charge       = 0
  Multiplicity = 1
  Basis Set: 6-31G*
  Basis Set:
  @DF-RHF Final Energy:  -309.06391514768688
    Total Energy =                       -309.0639151476869984
    Molecular point group: c1
  Basis Set: 6-31G*
  Basis Set:
  Basis Set: 6-31G*
  Basis Set:
  @DF-RHF Final Energy:  -309.06382310450982
    Total Energy =                       -309.0638231045101065
  Basis Set: 6-31G*
  Basis Set:
  Basis Set: 6-31G*
  Basis Set:
  @DF-RHF Final Energy:  -309.06388402267828
    Total Energy =                       -309.0638840226785646
  Basis Set: 6-31G*
  Basis Set:
  Basis Set: 6-31G*
  Basis Set:
  @DF-RHF Final Energy:  -309.06392046221208
    Total Energy =                       -309.0639204622121383
  Basis Set: 6-31G*
  Basis Set:
  @DF-RHF Final Energy:  -309.06399318291290
    Total Energy =                       -309.0639931829128955
  Basis Set: 6-31G*
  Basis Set:
  @DF-RHF Final Energy:  -309.06405641441353
    Total Energy =                       -309.0640564144135851
  Basis Set: 6-31G*
  Basis Set:
  Basis Set: 6-31G*
  Basis Set:
  @DF-RHF Final Energy:  -309.06406009468390
    Total Energy =                       -309.0640600946837253
  Basis Set: 6-31G*
  Basis Set:
  Basis Set: 6-31G*
  Basis Set:
  @DF-RHF Final Energy:  -309.06406303056758
    Total Energy =                       -309.0640630305672403
  Basis Set: 6-31G*
  Basis Set:
  Charge       = 0
  Multiplicity = 1
  Basis Set: 6-31G*
  Basis Set:

    Orbital Energies (a.u.)
    -----------------------

    Doubly Occupied:

       1A    -20.547638     2A    -11.324722     3A    -11.230376
       4A    -11.229654     5A    -11.228326     6A    -11.224713
       7A    -11.215349     8A     -1.393382     9A     -1.090902
      10A     -1.029340    11A     -0.983999    12A     -0.890013
      13A     -0.807086    14A     -0.733633    15A     -0.663258
      16A     -0.643940    17A     -0.623020    18A     -0.613172
      19A     -0.583462    20A     -0.571563    21A     -0.555418
      22A     -0.536474    23A     -0.509849    24A     -0.503189
      25A     -0.482662    26A     -0.473256    27A     -0.467423
      28A     -0.396928

  @DF-RHF Final Energy:  -309.06406318927128

   => Energetics <=

    Nuclear Repulsion Energy =            301.1967127469791308
    One-Electron Energy =               -1015.4160583056866471
    Two-Electron Energy =                 405.1552823694360654
    DFT Exchange-Correlation Energy =       0.0000000000000000
    Empirical Dispersion Energy =           0.0000000000000000
    PCM Polarization Energy =               0.0000000000000000
    EFP Energy =                            0.0000000000000000
    Total Energy =                       -309.0640631892715078
    Molecular point group: c1
  Basis Set: 6-31G*
  Basis Set:

  -Total Gradient:
     Atom            X                  Y                   Z
    ------   -----------------  -----------------  -----------------
       1        0.000002788565    -0.000001208315    -0.000001445769
       2       -0.000002036325     0.000004006909    -0.000004365617
       3       -0.000002205178    -0.000000393410    -0.000001419054
       4       -0.000002972727    -0.000003119085     0.000003593300
       5       -0.001848755834     0.003345611938     0.003119455296
       6        0.000002580867    -0.000001199430    -0.000000977925
       7       -0.000001727194    -0.000000443320     0.000003143289
       8        0.000900730381    -0.003749713560    -0.001207991248
       9        0.001365509393    -0.001967056424    -0.002375118316
      10       -0.000005950673     0.000001159003     0.000000558825
      11       -0.000414140955     0.002371225212     0.000463991904
      12        0.000002811105    -0.000000073530     0.000005474426
      13       -0.000000134566     0.000002288356    -0.000004107644
      14       -0.000001797911    -0.000001729726     0.000002963065
      15        0.000000853830    -0.000000222238    -0.000001458703
      16        0.000001441609     0.000000183012    -0.000002045369
      17        0.000000703109    -0.000000462927     0.000000135717
      18        0.000001501393    -0.000000221182    -0.000000617790
      19        0.000000801114     0.000001368718     0.000000231612

  **** Optimization is complete! (in 9 steps) ****
    Final optimized geometry and variables:
    Molecular point group: c1

    Geometry (in Angstrom), charge = 0, multiplicity = 1:

    O           -2.021398263240    -1.305191582168    -0.267969517102
    C           -1.647320125314    -0.216819246979     0.047557335823
    C           -0.327873603872    -0.025818310296     0.774710303094
    C           -2.448922636196     1.023899907608    -0.278420003320
    C            0.849892642626    -0.032749236690    -0.210562151764
    H           -0.333404021702     0.903730209200     1.336835313468
    H           -0.217107203279    -0.845254101937     1.476572448065
    C            2.211415574041     0.071657813974     0.484537863223
    H            0.748342069819     0.772739178256    -0.935487435873
    H            0.810394676414    -0.952572025467    -0.787184540808
    C            3.338539806985     0.457548932693    -0.472534049151
    H            2.157161222965     0.816406110786     1.276063107422
    H            2.440718915394    -0.872897026777     0.970603189012
    H            3.158911993716     1.435450499304    -0.909419553152
    H            3.428576194975    -0.256606935699    -1.286320901873
    H            4.293714166866     0.494133334780     0.041596135730
    H           -3.285789157082     0.767241675493    -0.912870698124
    H           -1.827416698607     1.766873437730    -0.769569627755
    H           -2.817743209249     1.471501725069     0.640752744512

  Mulliken Charges: (a.u.)
   Center  Symbol    Alpha    Beta     Spin     Total
       1     O     4.26186  4.26186  0.00000 -0.52371
       2     C     2.73759  2.73759  0.00000  0.52481
       3     C     3.20014  3.20014  0.00000 -0.40028
       4     C     3.28956  3.28956  0.00000 -0.57911
       5     C     3.16272  3.16272  0.00000 -0.32544
       6     H     0.41662  0.41662  0.00000  0.16677
       7     H     0.40087  0.40087  0.00000  0.19826
       8     C     3.15174  3.15174  0.00000 -0.30348
       9     H     0.42063  0.42063  0.00000  0.15873
      10     H     0.40598  0.40598  0.00000  0.18805
      11     C     3.24080  3.24080  0.00000 -0.48160
      12     H     0.42270  0.42270  0.00000  0.15461
      13     H     0.41737  0.41737  0.00000  0.16527
      14     H     0.42121  0.42121  0.00000  0.15757
      15     H     0.41927  0.41927  0.00000  0.16146
      16     H     0.41747  0.41747  0.00000  0.16506
      17     H     0.39700  0.39700  0.00000  0.20601
      18     H     0.40971  0.40971  0.00000  0.18058
      19     H     0.40677  0.40677  0.00000  0.18646

   Total alpha = 28.00000, Total beta = 28.00000, Total charge =  0.00000
