                              Psi4 1.0.54 Driver

  ==> Input File <==

--------------------------------------------------------------------------
set {
	reference rhf
	basis cc-pvtz
}

set_num_threads( 4 )
memory 2 gb

molecule MOL {
0 1

H	 -3.436473	 1.252944	 -1.023892
O	 -3.458596	 0.315260	 -0.960865
C	 -3.176635	 -0.080824	 0.355601
C	 -1.763371	 0.265266	 0.799691
H	 -3.321825	 -1.153438	 0.379502
H	 -3.895468	 0.357385	 1.043382
C	 -0.673390	 -0.426948	 -0.013392
H	 -1.631049	 1.344913	 0.747560
H	 -1.664587	 -0.001624	 1.849167
C	 0.737842	 -0.043159	 0.423759
H	 -0.806103	 -0.190518	 -1.063345
H	 -0.797221	 -1.503753	 0.074146
C	 1.824000	 -0.743224	 -0.390623
H	 0.850588	 1.033777	 0.343840
H	 0.868587	 -0.286314	 1.476203
C	 3.255957	 -0.453067	 0.062319
H	 1.718250	 -0.470599	 -1.438164
H	 1.658105	 -1.815850	 -0.339904
C	 3.492656	 -0.599406	 1.563553
H	 3.509748	 0.560778	 -0.231763
H	 3.940751	 -1.103835	 -0.475248
H	 2.817180	 0.035884	 2.127658
H	 4.505995	 -0.314229	 1.822511
H	 3.346208	 -1.618650	 1.900154

	symmetry c1
}
set optking {
	frozen_dihedral = ("
		20 16 13 17
	")
}

ee,wfn = optimize('scf', return_wfn=True)
oeprop( wfn, 'DIPOLE', 'QUADRUPOLE', 'MULLIKEN_CHARGES')
f=open( 'psi4out.xyz', 'w' )
f.write( "24  " )
f.write( str(ee) + "\n" )
f.write( MOL.save_string_xyz() )
f.close()
--------------------------------------------------------------------------

    Molecular point group: c1
  Charge       = 0
  Multiplicity = 1
  Basis Set: CC-PVTZ
  Basis Set:
  @DF-RHF Final Energy:  -349.37812743706723
    Total Energy =                       -349.3781274370669507
    Molecular point group: c1
  Basis Set: CC-PVTZ
  Basis Set:
  Basis Set: CC-PVTZ
  Basis Set:
  @DF-RHF Final Energy:  -349.37855155445482
    Total Energy =                       -349.3785515544550435
  Basis Set: CC-PVTZ
  Basis Set:
  Basis Set: CC-PVTZ
  Basis Set:
  @DF-RHF Final Energy:  -349.37965528594816
    Total Energy =                       -349.3796552859479334
  Basis Set: CC-PVTZ
  Basis Set:
  Basis Set: CC-PVTZ
  Basis Set:
  @DF-RHF Final Energy:  -349.37972459477425
    Total Energy =                       -349.3797245947747570
  Basis Set: CC-PVTZ
  Basis Set:
  Basis Set: CC-PVTZ
  Basis Set:
  @DF-RHF Final Energy:  -349.37972968050832
    Total Energy =                       -349.3797296805078076
  Basis Set: CC-PVTZ
  Basis Set:
  Charge       = 0
  Multiplicity = 1
  Basis Set: CC-PVTZ
  Basis Set:

    Orbital Energies (a.u.)
    -----------------------

    Doubly Occupied:

       1A    -20.546250     2A    -11.265455     3A    -11.215071
       4A    -11.212096     5A    -11.210015     6A    -11.209432
       7A    -11.208794     8A    -11.205460     9A     -1.364105
      10A     -1.089739    11A     -1.049166    12A     -0.986333
      13A     -0.916354    14A     -0.852713    15A     -0.801987
      16A     -0.773602    17A     -0.681722    18A     -0.656304
      19A     -0.626645    20A     -0.619679    21A     -0.597275
      22A     -0.587158    23A     -0.557031    24A     -0.543200
      25A     -0.518916    26A     -0.507729    27A     -0.499917
      28A     -0.471388    29A     -0.468778    30A     -0.460487
      31A     -0.457135    32A     -0.450799    33A     -0.420748

  @DF-RHF Final Energy:  -349.37973042567990

   => Energetics <=

    Nuclear Repulsion Energy =            385.1624536856120358
    One-Electron Energy =               -1237.0213922531274875
    Two-Electron Energy =                 502.4792081418351017
    DFT Exchange-Correlation Energy =       0.0000000000000000
    Empirical Dispersion Energy =           0.0000000000000000
    PCM Polarization Energy =               0.0000000000000000
    EFP Energy =                            0.0000000000000000
    Total Energy =                       -349.3797304256803500
    Molecular point group: c1
  Basis Set: CC-PVTZ
  Basis Set:

  -Total Gradient:
     Atom            X                  Y                   Z
    ------   -----------------  -----------------  -----------------
       1        0.000000519567    -0.000014904011     0.000009470444
       2       -0.000005813398     0.000004352616     0.000011729641
       3        0.000006929150     0.000002634792    -0.000000763563
       4        0.000004803605     0.000024621542    -0.000030677041
       5        0.000001792794     0.000013140866    -0.000007068561
       6        0.000003689233    -0.000001507405    -0.000011293937
       7       -0.000015098247    -0.000000216948     0.000008977963
       8        0.000003129086    -0.000001010498     0.000009506835
       9        0.000001273548    -0.000008119300    -0.000023214017
      10        0.000011205455    -0.000033211120     0.000009543990
      11       -0.000004726486    -0.000013505907     0.000015192299
      12        0.000012473645     0.000009255700     0.000003946335
      13        0.001216881479    -0.003583540364    -0.001324750309
      14       -0.000002141925     0.000008100707     0.000009787564
      15        0.000018552547    -0.000007798118     0.000019080892
      16       -0.001240075567     0.002084694433     0.003236571969
      17       -0.000851332996     0.002697025608     0.000591384788
      18       -0.000006983969     0.000002696377     0.000013613178
      19        0.000004462354    -0.000017709547    -0.000013296409
      20        0.000865169774    -0.001178224489    -0.002527342465
      21        0.000001653116     0.000017641601     0.000021365297
      22       -0.000005983383    -0.000032593751    -0.000029927849
      23       -0.000022126383    -0.000000952205     0.000007294230
      24        0.000001746998     0.000029129423     0.000000868729

  **** Optimization is complete! (in 6 steps) ****
    Final optimized geometry and variables:
    Molecular point group: c1

    Geometry (in Angstrom), charge = 0, multiplicity = 1:

    H           -3.338446099869     1.570389608439    -1.257034886567
    O           -3.410528472787     0.635964634071    -1.184175417180
    C           -3.165426202855     0.241095390113     0.139929970194
    C           -1.741278389219     0.517790845666     0.597752556107
    H           -3.367068028047    -0.822085133410     0.173472484168
    H           -3.868519566495     0.724196463211     0.813759514624
    C           -0.679453466561    -0.239374779872    -0.194355618099
    H           -1.551824600472     1.588400105436     0.535740809510
    H           -1.669108509997     0.258055516332     1.651122498955
    C            0.744984087978     0.078326487718     0.253040063592
    H           -0.790320217868    -0.012045381798    -1.248690760420
    H           -0.857877515782    -1.307465937031    -0.092964879454
    C            1.800348235843    -0.700310659169    -0.532024324316
    H            0.927257811371     1.145046797095     0.137490585365
    H            0.839106974177    -0.133332543678     1.313648048451
    C            3.249915057809    -0.313131455526    -0.227360353471
    H            1.619877136298    -0.528516077841    -1.589369083707
    H            1.663603475755    -1.764256698403    -0.356581409854
    C            3.646769652838    -0.369246723783     1.244717617478
    H            3.448838131550     0.676586554221    -0.629893214631
    H            3.897996820443    -0.983396861197    -0.785077785979
    H            3.119297692971     0.368832564271     1.836309411385
    H            4.708113748765    -0.182673328387     1.361724407993
    H            3.435582316136    -1.345870750870     1.669086195773

  Mulliken Charges: (a.u.)
   Center  Symbol    Alpha    Beta     Spin     Total
       1     H     0.39532  0.39532  0.00000  0.20936
       2     O     4.20370  4.20370  0.00000 -0.40740
       3     C     2.97789  2.97789  0.00000  0.04422
       4     C     3.10169  3.10169  0.00000 -0.20338
       5     H     0.45881  0.45881  0.00000  0.08238
       6     H     0.46026  0.46026  0.00000  0.07948
       7     C     3.08809  3.08809  0.00000 -0.17618
       8     H     0.45918  0.45918  0.00000  0.08164
       9     H     0.45342  0.45342  0.00000  0.09315
      10     C     3.09235  3.09235  0.00000 -0.18470
      11     H     0.44575  0.44575  0.00000  0.10850
      12     H     0.45539  0.45539  0.00000  0.08922
      13     C     3.09518  3.09518  0.00000 -0.19036
      14     H     0.45521  0.45521  0.00000  0.08959
      15     H     0.45329  0.45329  0.00000  0.09342
      16     C     3.08988  3.08988  0.00000 -0.17975
      17     H     0.45019  0.45019  0.00000  0.09962
      18     H     0.45251  0.45251  0.00000  0.09498
      19     C     3.15528  3.15528  0.00000 -0.31056
      20     H     0.45401  0.45401  0.00000  0.09198
      21     H     0.44972  0.44972  0.00000  0.10055
      22     H     0.45284  0.45284  0.00000  0.09433
      23     H     0.44578  0.44578  0.00000  0.10845
      24     H     0.45427  0.45427  0.00000  0.09147

   Total alpha = 33.00000, Total beta = 33.00000, Total charge = -0.00000

*** Psi4 exiting successfully. Buy a developer a beer!
