  ==> Input File <==

--------------------------------------------------------------------------
set {
	reference rhf
	basis cc-pvtz
}

set_num_threads( 4 )
memory 2 gb

molecule MOL {
0 1

H	 -0.725736	 0.067622	 1.994921
C	 -0.412930	 -0.484980	 1.135086
C	 -0.410334	 -1.865080	 1.127917
C	 0.000000	 0.179985	 0.000046
H	 -0.727835	 -2.400841	 2.000652
C	 -0.000003	 -2.552036	 -0.000011
N	 0.000000	 1.644631	 0.000076
C	 0.412931	 -0.484933	 -1.135021
H	 -0.000000	 -3.625035	 -0.000032
C	 0.410332	 -1.865033	 -1.127910
O	 1.050559	 2.194174	 -0.000073
O	 -1.050559	 2.194174	 -0.000074
H	 0.725730	 0.067703	 -1.994836
H	 0.727837	 -2.400759	 -2.000666

	symmetry c1
}
set optking {
	frozen_dihedral = ("
		2 4 7 11
	")
}

ee = optimize('scf')
oeprop('DIPOLE', 'QUADRUPOLE', 'MULLIKEN_CHARGES')
f=open( 'psi4out.xyz', 'w' )
f.write( "14  " )
f.write( str(ee) + "\n" )
f.write( MOL.save_string_xyz() )
f.close()
--------------------------------------------------------------------------

    Molecular point group: c1
  Charge       = 0
  Multiplicity = 1
  Basis Set: CC-PVTZ
  Basis Set:
  @DF-RHF Final Energy:  -434.32124560859262
    Total Energy =                       -434.3212456085927897
    Molecular point group: c1
  Basis Set: CC-PVTZ
  Basis Set:
  Basis Set: CC-PVTZ
  Basis Set:
  @DF-RHF Final Energy:  -434.31502368292382
    Total Energy =                       -434.3150236829242203
  Basis Set: CC-PVTZ
  Basis Set:
  Basis Set: CC-PVTZ
  Basis Set:
  @DF-RHF Final Energy:  -434.32138150894093
    Total Energy =                       -434.3213815089409309
  Basis Set: CC-PVTZ
  Basis Set:
  Basis Set: CC-PVTZ
  Basis Set:
  @DF-RHF Final Energy:  -434.32166457381044
    Total Energy =                       -434.3216645738102670
  Basis Set: CC-PVTZ
  Basis Set:
  Basis Set: CC-PVTZ
  Basis Set:
  @DF-RHF Final Energy:  -434.32166574405477
    Total Energy =                       -434.3216657440545987
  Basis Set: CC-PVTZ
  Basis Set:
  Charge       = 0
  Multiplicity = 1
  Basis Set: CC-PVTZ
  Basis Set:

    Orbital Energies (a.u.)
    -----------------------

    Doubly Occupied:

       1A    -20.597692     2A    -20.597525     3A    -15.848086
       4A    -11.307377     5A    -11.267595     6A    -11.267457
       7A    -11.260854     8A    -11.260352     9A    -11.258713
      10A     -1.644993    11A     -1.428123    12A     -1.206473
      13A     -1.096776    14A     -1.056811    15A     -0.959310
      16A     -0.874307    17A     -0.831151    18A     -0.786443
      19A     -0.740635    20A     -0.737934    21A     -0.717738
      22A     -0.652837    23A     -0.650680    24A     -0.625952
      25A     -0.561245    26A     -0.551754    27A     -0.533748
      28A     -0.499853    29A     -0.486625    30A     -0.458709
      31A     -0.372232    32A     -0.370523

  @DF-RHF Final Energy:  -434.32166601801703

   => Energetics <=

    Nuclear Repulsion Energy =            417.5013307238563129
    One-Electron Energy =               -1418.6249902036156527
    Two-Electron Energy =                 566.8019934617423132
    DFT Exchange-Correlation Energy =       0.0000000000000000
    Empirical Dispersion Energy =           0.0000000000000000
    PCM Polarization Energy =               0.0000000000000000
    EFP Energy =                            0.0000000000000000
    Total Energy =                       -434.3216660180170265
    Molecular point group: c1
  Basis Set: CC-PVTZ
  Basis Set:

  -Total Gradient:
     Atom            X                  Y                   Z
    ------   -----------------  -----------------  -----------------
       1       -0.000003684012     0.000008603663     0.000012612530
       2        0.003689707148    -0.000078327076     0.001214810566
       3        0.000032074171     0.000006738005    -0.000003684743
       4       -0.005232546491     0.000107651986    -0.000093510682
       5       -0.000002401492     0.000002253996    -0.000002909796
       6       -0.000000878564    -0.000001270441    -0.000000515976
       7        0.001480928651     0.000004489961    -0.005696106545
       8       -0.000044228051    -0.000004780008     0.000013463466
       9       -0.000000011583    -0.000000885482     0.000000451442
      10       -0.000029381544     0.000010567677     0.000000847547
      11        0.000131605966    -0.000054407846     0.004556344964
      12       -0.000027132613    -0.000012260339     0.000007733662
      13        0.000002708926     0.000009170423    -0.000012560451
      14        0.000003239490     0.000002455479     0.000003024015

  **** Optimization is complete! (in 6 steps) ****
    Final optimized geometry and variables:
    Molecular point group: c1

    Geometry (in Angstrom), charge = 0, multiplicity = 1:

    H           -0.756228130354     0.078483128364     1.979655954079
    C           -0.429342610637    -0.475509628829     1.122548838077
    C           -0.406324766045    -1.856643437755     1.124832075642
    C           -0.027984221409     0.178457208189    -0.017461853407
    H           -0.710407465418    -2.390338586553     2.003767303590
    C            0.005239906055    -2.546583621895    -0.000213449837
    N            0.000762989599     1.642679937989    -0.004763331344
    C            0.412146289122    -0.479899870763    -1.140551475971
    H            0.014637016047    -3.619172563868     0.005338693116
    C            0.409789122306    -1.861068413440    -1.130640030493
    O            1.065688809046     2.161040930942    -0.023488202369
    O           -1.040645176081     2.203811729444     0.059356667002
    H            0.745506795464     0.070932210102    -1.997246027485
    H            0.732746734868    -2.398322989817    -2.000625635665

  Mulliken Charges: (a.u.)
   Center  Symbol    Alpha    Beta     Spin     Total
       1     H     0.41211  0.41211  0.00000  0.17577
       2     C     3.08641  3.08641  0.00000 -0.17282
       3     C     3.06527  3.06527  0.00000 -0.13054
       4     C     2.92590  2.92590  0.00000  0.14820
       5     H     0.41734  0.41734  0.00000  0.16532
       6     C     3.07586  3.07586  0.00000 -0.15172
       7     N     3.28880  3.28880  0.00000  0.42240
       8     C     3.08634  3.08634  0.00000 -0.17269
       9     H     0.41789  0.41789  0.00000  0.16422
      10     C     3.06479  3.06479  0.00000 -0.12959
      11     O     4.16371  4.16371  0.00000 -0.32741
      12     O     4.16507  4.16507  0.00000 -0.33014
      13     H     0.41315  0.41315  0.00000  0.17370
      14     H     0.41736  0.41736  0.00000  0.16529

   Total alpha = 32.00000, Total beta = 32.00000, Total charge = -0.00000
