                              Psi4 1.0.54 Driver

  ==> Input File <==

--------------------------------------------------------------------------
set {
	reference rhf
	basis cc-pvtz
}

set_num_threads( 4 )
memory 2 gb

molecule MOL {
0 1

H	 -3.294565	 0.569785	 0.000000
C	 -2.246225	 0.343737	 0.000000
C	 -1.809462	 -0.973484	 0.000000
C	 -1.312577	 1.353775	 0.000000
H	 -2.523539	 -1.775124	 0.000000
C	 -0.467257	 -1.267606	 0.000000
H	 -1.631287	 2.379013	 0.000000
C	 0.046966	 1.074396	 0.000000
H	 -0.119372	 -2.281828	 0.000000
C	 0.471772	 -0.241514	 0.000000
H	 0.748162	 1.882966	 0.000000
O	 1.760432	 -0.625184	 0.000000
C	 2.088693	 -1.965449	 -0.209983
H	 1.667099	 -2.603385	 0.558786
H	 3.164689	 -2.026048	 -0.166086
H	 1.754719	 -2.309089	 -1.182650

	symmetry c1
}
set optking {
	frozen_dihedral = ("
		13 12 10 8
	")
}

ee,wfn = optimize('scf', return_wfn=True)
oeprop( wfn, 'DIPOLE', 'QUADRUPOLE', 'MULLIKEN_CHARGES')
f=open( 'psi4out.xyz', 'w' )
f.write( "16  " )
f.write( str(ee) + "\n" )
f.write( MOL.save_string_xyz() )
f.close()
--------------------------------------------------------------------------

    Molecular point group: c1
  Charge       = 0
  Multiplicity = 1
  Basis Set: CC-PVTZ
  Basis Set:
  @DF-RHF Final Energy:  -344.69509447077286
    Total Energy =                       -344.6950944707729150
    Molecular point group: c1
  Basis Set: CC-PVTZ
  Basis Set:
  Basis Set: CC-PVTZ
  Basis Set:
  @DF-RHF Final Energy:  -344.69911662511987
    Total Energy =                       -344.6991166251200411
  Basis Set: CC-PVTZ
  Basis Set:
  Basis Set: CC-PVTZ
  Basis Set:
  @DF-RHF Final Energy:  -344.70301714215282
    Total Energy =                       -344.7030171421528166
  Basis Set: CC-PVTZ
  Basis Set:
  Basis Set: CC-PVTZ
  Basis Set:
  @DF-RHF Final Energy:  -344.70351756188040
    Total Energy =                       -344.7035175618804033
  Basis Set: CC-PVTZ
  Basis Set:
  Basis Set: CC-PVTZ
  Basis Set:
  @DF-RHF Final Energy:  -344.70357741237876
    Total Energy =                       -344.7035774123788201
  Basis Set: CC-PVTZ
  Basis Set:
  Basis Set: CC-PVTZ
  Basis Set:
  @DF-RHF Final Energy:  -344.70358410419698
    Total Energy =                       -344.7035841041967501
  Basis Set: CC-PVTZ
  Basis Set:
  Charge       = 0
  Multiplicity = 1
  Basis Set: CC-PVTZ
  Basis Set:

    Orbital Energies (a.u.)
    -----------------------

    Doubly Occupied:

       1A    -20.580122     2A    -11.293517     3A    -11.278449
       4A    -11.231285     5A    -11.230023     6A    -11.221938
       7A    -11.218061     8A    -11.217058     9A     -1.419567
      10A     -1.151003    11A     -1.025670    12A     -1.016689
      13A     -0.944154    14A     -0.834646    15A     -0.808349
      16A     -0.726086    17A     -0.667771    18A     -0.666579
      19A     -0.660552    20A     -0.619319    21A     -0.590348
      22A     -0.579729    23A     -0.528654    24A     -0.523124
      25A     -0.512229    26A     -0.479661    27A     -0.466532
      28A     -0.339783    29A     -0.310333

  @DF-RHF Final Energy:  -344.70358506192281

   => Energetics <=

    Nuclear Repulsion Energy =            348.8985497669366396
    One-Electron Energy =               -1158.9218095872834056
    Two-Electron Energy =                 465.3196747584241848
    DFT Exchange-Correlation Energy =       0.0000000000000000
    Empirical Dispersion Energy =           0.0000000000000000
    PCM Polarization Energy =               0.0000000000000000
    EFP Energy =                            0.0000000000000000
    Total Energy =                       -344.7035850619225812
    Molecular point group: c1
  Basis Set: CC-PVTZ
  Basis Set:

  -Total Gradient:
     Atom            X                  Y                   Z
    ------   -----------------  -----------------  -----------------
       1       -0.000014949478     0.000001969660     0.000003543005
       2       -0.000032635858    -0.000071025096    -0.000028055536
       3       -0.000053878790     0.000049711761     0.000016689698
       4        0.000087511489    -0.000009200373     0.000026699843
       5       -0.000011529630    -0.000000456998     0.000004491806
       6        0.000042171276    -0.000015342234     0.000047129837
       7        0.000006094024    -0.000008401946    -0.000008405954
       8        0.000048880415     0.000008765504    -0.000765382358
       9       -0.000010280234    -0.000007780603     0.000012002032
      10       -0.000093719185     0.000070654989     0.000596318288
      11        0.000027262886     0.000003995180    -0.000001849434
      12       -0.000091745683    -0.000227706514     0.000930273548
      13        0.000070508569     0.000147007955    -0.000825725550
      14        0.000000148755     0.000040511332    -0.000040077527
      15        0.000007443762     0.000014227097     0.000020603519
      16        0.000018717680     0.000003070285     0.000011744783

  **** Optimization is complete! (in 7 steps) ****
    Final optimized geometry and variables:
    Molecular point group: c1

    Geometry (in Angstrom), charge = 0, multiplicity = 1:

    H           -2.893407062134     1.673098832715     0.074457621257
    C           -1.944283908132     1.173895919458     0.061455375886
    C           -1.876451177965    -0.198797358282     0.003246066568
    C           -0.764399126508     1.903066445878     0.101932944519
    H           -2.778770910251    -0.779729475504    -0.029066886415
    C           -0.654396787465    -0.856229994587    -0.014178356399
    H           -0.797974977356     2.975231191724     0.144970966603
    C            0.454001333090     1.267676232633     0.083283347528
    H           -0.634398901997    -1.925524680695    -0.058293698735
    C            0.515516969443    -0.120406648683     0.028355084347
    H            1.371697434620     1.821514136391     0.112134338810
    O            1.749974212648    -0.654690050468     0.023791153751
    C            1.918960385566    -2.015485010752    -0.238882119401
    H            1.491801248098    -2.630155653515     0.545442398786
    H            2.982933683438    -2.188727336789    -0.277376624797
    H            1.478335910919    -2.292442272077    -1.190050039736

  Mulliken Charges: (a.u.)
   Center  Symbol    Alpha    Beta     Spin     Total
       1     H     0.42440  0.42440  0.00000  0.15120
       2     C     3.10061  3.10061  0.00000 -0.20123
       3     C     3.06150  3.06150  0.00000 -0.12299
       4     C     3.05826  3.05826  0.00000 -0.11653
       5     H     0.42357  0.42357  0.00000  0.15286
       6     C     3.14268  3.14268  0.00000 -0.28536
       7     H     0.42297  0.42297  0.00000  0.15406
       8     C     3.11137  3.11137  0.00000 -0.22274
       9     H     0.42253  0.42253  0.00000  0.15495
      10     C     2.85120  2.85120  0.00000  0.29761
      11     H     0.42081  0.42081  0.00000  0.15837
      12     O     4.15166  4.15166  0.00000 -0.30332
      13     C     3.04500  3.04500  0.00000 -0.09000
      14     H     0.46240  0.46240  0.00000  0.07521
      15     H     0.43901  0.43901  0.00000  0.12199
      16     H     0.46204  0.46204  0.00000  0.07591

   Total alpha = 29.00000, Total beta = 29.00000, Total charge = -0.00000

*** Psi4 exiting successfully. Buy a developer a beer!
