                              Psi4 1.0.54 Driver

  ==> Input File <==

--------------------------------------------------------------------------
set {
	reference rhf
	basis cc-pvtz
}

set_num_threads( 4 )
memory 2 gb

molecule MOL {
0 1

O	 0.623971	 1.347241	 -0.000777
C	 0.485107	 0.171416	 -0.000134
C	 1.606966	 -0.836201	 0.000174
O	 -0.695554	 -0.422406	 0.000602
C	 2.988788	 -0.202529	 -0.000115
H	 1.465110	 -1.474645	 -0.864821
H	 1.465209	 -1.474077	 0.865596
H	 3.131767	 0.419673	 -0.873407
H	 3.750876	 -0.972315	 0.000098
H	 3.131883	 0.420264	 0.872742
C	 -1.385453	 -0.524556	 1.238298
C	 -2.695016	 -1.232194	 0.979881
H	 -1.542479	 0.467448	 1.637822
H	 -0.771377	 -1.070130	 1.940853
H	 -3.300762	 -0.677357	 0.274473
H	 -3.248406	 -1.327010	 1.906705
H	 -2.525293	 -2.223706	 0.579296

	symmetry c1
}
set optking {
	frozen_dihedral = ("
		11 4 2 3
	")
}

ee,wfn = optimize('scf', return_wfn=True)
oeprop( wfn, 'DIPOLE', 'QUADRUPOLE', 'MULLIKEN_CHARGES')
f=open( 'psi4out.xyz', 'w' )
f.write( "17  " )
f.write( str(ee) + "\n" )
f.write( MOL.save_string_xyz() )
f.close()
--------------------------------------------------------------------------

    Molecular point group: c1
  Charge       = 0
  Multiplicity = 1
  Basis Set: CC-PVTZ
  Basis Set:
  @DF-RHF Final Energy:  -345.02200075985058
    Total Energy =                       -345.0220007598508687
    Molecular point group: c1
  Basis Set: CC-PVTZ
  Basis Set:
  Basis Set: CC-PVTZ
  Basis Set:
  @DF-RHF Final Energy:  -345.02276929787308
    Total Energy =                       -345.0227692978734240
  Basis Set: CC-PVTZ
  Basis Set:
  Basis Set: CC-PVTZ
  Basis Set:
  @DF-RHF Final Energy:  -345.02220805246628
    Total Energy =                       -345.0222080524662829
  Basis Set: CC-PVTZ
  Basis Set:
  Basis Set: CC-PVTZ
  Basis Set:
  @DF-RHF Final Energy:  -345.02299179065920
    Total Energy =                       -345.0229917906591481
  Basis Set: CC-PVTZ
  Basis Set:
  Basis Set: CC-PVTZ
  Basis Set:
  @DF-RHF Final Energy:  -345.02302078513367
    Total Energy =                       -345.0230207851333262
  Basis Set: CC-PVTZ
  Basis Set:
  Basis Set: CC-PVTZ
  Basis Set:
  @DF-RHF Final Energy:  -345.02302293797464
    Total Energy =                       -345.0230229379744173
  Basis Set: CC-PVTZ
  Basis Set:
  Charge       = 0
  Multiplicity = 1
  Basis Set: CC-PVTZ
  Basis Set:

    Orbital Energies (a.u.)
    -----------------------

    Doubly Occupied:

       1A    -20.574898     2A    -20.544444     3A    -11.366626
       4A    -11.291706     5A    -11.240126     6A    -11.222026
       7A    -11.216810     8A     -1.460706     9A     -1.368143
      10A     -1.066886    11A     -1.036335    12A     -0.906422
      13A     -0.861618    14A     -0.770867    15A     -0.703063
      16A     -0.685964    17A     -0.659157    18A     -0.636792
      19A     -0.604335    20A     -0.564317    21A     -0.557138
      22A     -0.529843    23A     -0.526445    24A     -0.521243
      25A     -0.506469    26A     -0.493084    27A     -0.452826
      28A     -0.437264

  @DF-RHF Final Energy:  -345.02302304676942

   => Energetics <=

    Nuclear Repulsion Energy =            314.9266801964660658
    One-Electron Energy =               -1094.2882978593970620
    Two-Electron Energy =                 434.3385946161617994
    DFT Exchange-Correlation Energy =       0.0000000000000000
    Empirical Dispersion Energy =           0.0000000000000000
    PCM Polarization Energy =               0.0000000000000000
    EFP Energy =                            0.0000000000000000
    Total Energy =                       -345.0230230467691399
    Molecular point group: c1
  Basis Set: CC-PVTZ
  Basis Set:

  -Total Gradient:
     Atom            X                  Y                   Z
    ------   -----------------  -----------------  -----------------
       1        0.000012430062    -0.000036088134     0.000002430910
       2        0.000835651852    -0.001560813882    -0.004794314468
       3       -0.000014126561    -0.000006744486     0.003540808802
       4       -0.002508064655     0.005040224649     0.000579765587
       5       -0.000006994844    -0.000008374845    -0.000000474663
       6        0.000005207705    -0.000005452326     0.000010437165
       7        0.000004743887    -0.000003475597    -0.000006971709
       8       -0.000000413646    -0.000001489425     0.000002804167
       9       -0.000003285364     0.000001749553    -0.000000870363
      10       -0.000000289995     0.000001351950     0.000000236525
      11        0.001689637242    -0.003402772885     0.000676008557
      12       -0.000014235303    -0.000005071229    -0.000001119624
      13       -0.000004135410    -0.000014236850     0.000004778400
      14        0.000001234066     0.000005320267    -0.000015809903
      15        0.000002043080    -0.000005228031     0.000006883162
      16        0.000003144433    -0.000002044282    -0.000006265769
      17       -0.000002546545     0.000003145552     0.000001673223

  **** Optimization is complete! (in 7 steps) ****
    Final optimized geometry and variables:
    Molecular point group: c1

    Geometry (in Angstrom), charge = 0, multiplicity = 1:

    O            0.489192585467     1.567216999541    -0.300359065074
    C            0.375460876926     0.395973211286    -0.320685814214
    C            1.521007371511    -0.582603003833    -0.319803241143
    O           -0.832466569092    -0.202446829205    -0.335016708271
    C            2.892478054584     0.072208291510    -0.336399604445
    H            1.382974192731    -1.239180143617    -1.172229022770
    H            1.395718987024    -1.212626300011     0.555694688551
    H            3.017924041672     0.685824294445    -1.218494313762
    H            3.668151485773    -0.683838416021    -0.332817079593
    H            3.030830043770     0.708523691930     0.527502768673
    C           -1.513455475259    -0.300110664321     0.904704947066
    C           -2.850250538818    -0.959057071450     0.660161537505
    H           -1.639390099065     0.691906465857     1.320062704167
    H           -0.918513862390    -0.888154554877     1.596921203198
    H           -3.442034454192    -0.369238956599    -0.027479274952
    H           -3.392532934259    -1.050141129944     1.594037809898
    H           -2.718383443019    -1.947876219269     0.239723891069

  Mulliken Charges: (a.u.)
   Center  Symbol    Alpha    Beta     Spin     Total
       1     O     4.17264  4.17264  0.00000 -0.34528
       2     C     2.79698  2.79698  0.00000  0.40603
       3     C     3.10349  3.10349  0.00000 -0.20699
       4     O     4.17364  4.17364  0.00000 -0.34728
       5     C     3.13852  3.13852  0.00000 -0.27704
       6     H     0.43943  0.43943  0.00000  0.12115
       7     H     0.44590  0.44590  0.00000  0.10821
       8     H     0.44678  0.44678  0.00000  0.10643
       9     H     0.45067  0.45067  0.00000  0.09867
      10     H     0.44861  0.44861  0.00000  0.10278
      11     C     2.97586  2.97586  0.00000  0.04828
      12     C     3.13472  3.13472  0.00000 -0.26945
      13     H     0.45197  0.45197  0.00000  0.09606
      14     H     0.46692  0.46692  0.00000  0.06615
      15     H     0.44640  0.44640  0.00000  0.10721
      16     H     0.45664  0.45664  0.00000  0.08672
      17     H     0.45083  0.45083  0.00000  0.09834

   Total alpha = 28.00000, Total beta = 28.00000, Total charge = -0.00000

*** Psi4 exiting successfully. Buy a developer a beer!
