                              Psi4 1.0.54 Driver

  ==> Input File <==

--------------------------------------------------------------------------
set {
	reference rhf
	basis cc-pvtz
}

set_num_threads( 4 )
memory 2 gb

molecule MOL {
0 1

H	 -2.266619	 1.169943	 0.000098
O	 -1.438073	 1.611259	 0.000041
C	 -0.408657	 0.734701	 0.000005
C	 0.066917	 0.329833	 1.233423
C	 0.155216	 0.254423	 -1.176215
H	 -0.394872	 0.723135	 2.117727
C	 1.115107	 -0.562729	 1.308253
C	 1.207023	 -0.641217	 -1.071047
C	 -0.364920	 0.697208	 -2.521429
H	 1.479026	 -0.872533	 2.269275
C	 1.692436	 -1.054440	 0.153549
H	 1.653686	 -1.021646	 -1.970899
H	 -0.272458	 1.771330	 -2.655714
H	 0.189696	 0.224843	 -3.319372
H	 -1.410605	 0.434770	 -2.655574
H	 2.508137	 -1.749026	 0.204053

	symmetry c1
}
set optking {
	frozen_dihedral = ("
		4 3 2 1
	")
}

ee,wfn = optimize('scf', return_wfn=True)
oeprop( wfn, 'DIPOLE', 'QUADRUPOLE', 'MULLIKEN_CHARGES')
f=open( 'psi4out.xyz', 'w' )
f.write( "16  " )
f.write( str(ee) + "\n" )
f.write( MOL.save_string_xyz() )
f.close()
--------------------------------------------------------------------------

    Molecular point group: c1
  Charge       = 0
  Multiplicity = 1
  Basis Set: CC-PVTZ
  Basis Set:
  @DF-RHF Final Energy:  -344.71501328607098
    Total Energy =                       -344.7150132860710414
    Molecular point group: c1
  Basis Set: CC-PVTZ
  Basis Set:
  Basis Set: CC-PVTZ
  Basis Set:
  @DF-RHF Final Energy:  -344.71602805470843
    Total Energy =                       -344.7160280547084312
  Basis Set: CC-PVTZ
  Basis Set:
  Basis Set: CC-PVTZ
  Basis Set:
  @DF-RHF Final Energy:  -344.71609620314933
    Total Energy =                       -344.7160962031493341
  Basis Set: CC-PVTZ
  Basis Set:
  Basis Set: CC-PVTZ
  Basis Set:
  @DF-RHF Final Energy:  -344.71610445858545
    Total Energy =                       -344.7161044585856189
  Basis Set: CC-PVTZ
  Basis Set:
  Basis Set: CC-PVTZ
  Basis Set:
  @DF-RHF Final Energy:  -344.71610704380993
    Total Energy =                       -344.7161070438099841
  Basis Set: CC-PVTZ
  Basis Set:
  Charge       = 0
  Multiplicity = 1
  Basis Set: CC-PVTZ
  Basis Set:

    Orbital Energies (a.u.)
    -----------------------

    Doubly Occupied:

       1A    -20.569571     2A    -11.282384     3A    -11.233535
       4A    -11.227093     5A    -11.226118     6A    -11.223130
       7A    -11.222912     8A    -11.218248     9A     -1.395778
      10A     -1.153574    11A     -1.048174    12A     -1.006982
      13A     -0.935315    14A     -0.833019    15A     -0.808881
      16A     -0.730172    17A     -0.669906    18A     -0.659923
      19A     -0.625402    20A     -0.594079    21A     -0.573705
      22A     -0.567787    23A     -0.546248    24A     -0.521287
      25A     -0.502802    26A     -0.487931    27A     -0.465961
      28A     -0.333711    29A     -0.322484

  @DF-RHF Final Energy:  -344.71610763518402

   => Energetics <=

    Nuclear Repulsion Energy =            350.4329492972424305
    One-Electron Energy =               -1162.3258909821490761
    Two-Electron Energy =                 467.1768340497225722
    DFT Exchange-Correlation Energy =       0.0000000000000000
    Empirical Dispersion Energy =           0.0000000000000000
    PCM Polarization Energy =               0.0000000000000000
    EFP Energy =                            0.0000000000000000
    Total Energy =                       -344.7161076351840734
    Molecular point group: c1
  Basis Set: CC-PVTZ
  Basis Set:

  -Total Gradient:
     Atom            X                  Y                   Z
    ------   -----------------  -----------------  -----------------
       1        0.000020119039    -0.000003022490    -0.000045413124
       2       -0.000068432893     0.000084242542     0.000065159673
       3        0.000052006910    -0.000150540551     0.000015114863
       4       -0.000071539798     0.000105470839     0.000006870783
       5        0.000044743822    -0.000020209360    -0.000029882855
       6        0.000009076033    -0.000008450352    -0.000013779925
       7        0.000068550385    -0.000051483224    -0.000033684584
       8       -0.000069128063     0.000067828067    -0.000045090273
       9       -0.000002281565    -0.000041880604     0.000018879922
      10        0.000004192782    -0.000005976571     0.000005413755
      11        0.000003963543     0.000002965036     0.000076020231
      12        0.000001868583    -0.000005500612    -0.000006801852
      13        0.000013157186     0.000024169197    -0.000001678717
      14        0.000004036836    -0.000001299059    -0.000013909257
      15       -0.000004458159     0.000002997484     0.000003744527
      16       -0.000005874641     0.000000689664    -0.000000963165

  **** Optimization is complete! (in 6 steps) ****
    Final optimized geometry and variables:
    Molecular point group: c1

    Geometry (in Angstrom), charge = 0, multiplicity = 1:

    H           -2.449061772656     0.992829252319     0.243064321387
    O           -1.611296353503     1.421824513362     0.236069147123
    C           -0.596447179309     0.502842327922     0.295638969337
    C           -0.116221550907     0.107539545874     1.526399691815
    C           -0.034981116832     0.027404839611    -0.882669275042
    H           -0.566383677939     0.512550161946     2.412135634691
    C            0.935000970633    -0.786673270650     1.605530939356
    C            1.018287738651    -0.865926525648    -0.780581002659
    C           -0.559891381785     0.480409534826    -2.220136020170
    H            1.306340443414    -1.092237330032     2.564855812636
    C            1.503165690960    -1.276106895018     0.448033811804
    H            1.468390779877    -1.245903138501    -1.678628527042
    H           -0.535641976749     1.559511839950    -2.301751883855
    H            0.029893380623     0.061277347299    -3.024006193658
    H           -1.589499901385     0.172340297973    -2.366150472875
    H            2.321664155737    -1.968317574811     0.496562117748

  Mulliken Charges: (a.u.)
   Center  Symbol    Alpha    Beta     Spin     Total
       1     H     0.39026  0.39026  0.00000  0.21949
       2     O     4.18900  4.18900  0.00000 -0.37799
       3     C     2.88685  2.88685  0.00000  0.22630
       4     C     3.10746  3.10746  0.00000 -0.21491
       5     C     2.99298  2.99298  0.00000  0.01404
       6     H     0.41860  0.41860  0.00000  0.16280
       7     C     3.07740  3.07740  0.00000 -0.15480
       8     C     3.09510  3.09510  0.00000 -0.19020
       9     C     3.14425  3.14425  0.00000 -0.28849
      10     H     0.42205  0.42205  0.00000  0.15589
      11     C     3.07880  3.07880  0.00000 -0.15761
      12     H     0.42443  0.42443  0.00000  0.15115
      13     H     0.44143  0.44143  0.00000  0.11713
      14     H     0.45211  0.45211  0.00000  0.09578
      15     H     0.45531  0.45531  0.00000  0.08937
      16     H     0.42397  0.42397  0.00000  0.15205

   Total alpha = 29.00000, Total beta = 29.00000, Total charge =  0.00000

*** Psi4 exiting successfully. Buy a developer a beer!
