                              Psi4 1.0.54 Driver

  ==> Input File <==

--------------------------------------------------------------------------
set {
	reference rhf
	basis cc-pvtz
}

set_num_threads( 4 )
memory 2 gb

molecule MOL {
0 1

H	 1.015141	 1.074105	 1.626722
C	 1.145790	 0.579871	 0.654353
C	 0.062554	 0.862911	 -0.350953
O	 2.088623	 -0.106419	 0.461411
C	 -1.339253	 0.577611	 0.196911
H	 0.263993	 0.288164	 -1.245705
H	 0.139585	 1.917756	 -0.604807
C	 -1.813142	 -0.849710	 -0.061612
H	 -2.032833	 1.276441	 -0.256032
H	 -1.357249	 0.782269	 1.263793
H	 -1.839268	 -1.063526	 -1.124230
H	 -2.810118	 -1.001930	 0.334000
H	 -1.159274	 -1.579980	 0.402282

	symmetry c1
}
set optking {
	frozen_dihedral = ("
		6 3 5 9
	")
}

ee,wfn = optimize('scf', return_wfn=True)
oeprop( wfn, 'DIPOLE', 'QUADRUPOLE', 'MULLIKEN_CHARGES')
f=open( 'psi4out.xyz', 'w' )
f.write( "13  " )
f.write( str(ee) + "\n" )
f.write( MOL.save_string_xyz() )
f.close()
--------------------------------------------------------------------------

    Molecular point group: c1
  Charge       = 0
  Multiplicity = 1
  Basis Set: CC-PVTZ
  Basis Set:
  @DF-RHF Final Energy:  -231.06888338210183
    Total Energy =                       -231.0688833821018875
    Molecular point group: c1
  Basis Set: CC-PVTZ
  Basis Set:
  Basis Set: CC-PVTZ
  Basis Set:
  @DF-RHF Final Energy:  -231.06909321176150
    Total Energy =                       -231.0690932117612988
  Basis Set: CC-PVTZ
  Basis Set:
  Basis Set: CC-PVTZ
  Basis Set:
  @DF-RHF Final Energy:  -231.06706791190047
    Total Energy =                       -231.0670679119005513
  Basis Set: CC-PVTZ
  Basis Set:
  Basis Set: CC-PVTZ
  Basis Set:
  @DF-RHF Final Energy:  -231.06915391136050
    Total Energy =                       -231.0691539113606439
  Basis Set: CC-PVTZ
  Basis Set:
  Basis Set: CC-PVTZ
  Basis Set:
  @DF-RHF Final Energy:  -231.06918757021836
    Total Energy =                       -231.0691875702182756
  Basis Set: CC-PVTZ
  Basis Set:
  Basis Set: CC-PVTZ
  Basis Set:
  @DF-RHF Final Energy:  -231.06919310731624
    Total Energy =                       -231.0691931073163516
  Basis Set: CC-PVTZ
  Basis Set:
  Basis Set: CC-PVTZ
  Basis Set:
  @DF-RHF Final Energy:  -231.06919668994757
    Total Energy =                       -231.0691966899476597
  Basis Set: CC-PVTZ
  Basis Set:
  Charge       = 0
  Multiplicity = 1
  Basis Set: CC-PVTZ
  Basis Set:

    Orbital Energies (a.u.)
    -----------------------

    Doubly Occupied:

       1A    -20.552968     2A    -11.321846     3A    -11.237051
       4A    -11.234691     5A    -11.219005     6A     -1.407849
       7A     -1.086766     8A     -0.974782     9A     -0.844499
      10A     -0.792566    11A     -0.671180    12A     -0.651645
      13A     -0.627758    14A     -0.589950    15A     -0.561459
      16A     -0.540179    17A     -0.502756    18A     -0.496715
      19A     -0.483074    20A     -0.413061

  @DF-RHF Final Energy:  -231.06919772477400

   => Energetics <=

    Nuclear Repulsion Energy =            173.4974651861430459
    One-Electron Energy =                -656.7137269219590507
    Two-Electron Energy =                 252.1470640110420618
    DFT Exchange-Correlation Energy =       0.0000000000000000
    Empirical Dispersion Energy =           0.0000000000000000
    PCM Polarization Energy =               0.0000000000000000
    EFP Energy =                            0.0000000000000000
    Total Energy =                       -231.0691977247739715
    Molecular point group: c1
  Basis Set: CC-PVTZ
  Basis Set:

  -Total Gradient:
     Atom            X                  Y                   Z
    ------   -----------------  -----------------  -----------------
       1       -0.000032991156     0.000034040299     0.000035605744
       2       -0.000001304872     0.000033888052     0.000028761530
       3       -0.001580837683     0.003844326538    -0.001920588482
       4        0.000059331224    -0.000070105312    -0.000038975302
       5       -0.000280736240    -0.003463605995    -0.002722110176
       6        0.001325277564    -0.002629176788     0.001971750704
       7        0.000009862818    -0.000009556015     0.000010685958
       8       -0.000016552358     0.000013704176     0.000004712458
       9        0.000513293267     0.002236998675     0.002624227580
      10       -0.000010169092     0.000002973761     0.000005369305
      11        0.000001177492     0.000002971548     0.000005533047
      12        0.000013311377     0.000000077901    -0.000003360537
      13        0.000000337659     0.000003463158    -0.000001611829

  **** Optimization is complete! (in 8 steps) ****
    Final optimized geometry and variables:
    Molecular point group: c1

    Geometry (in Angstrom), charge = 0, multiplicity = 1:

    H            1.017907273077     0.899613029952     1.433889223274
    C            1.108988257919     0.377565895496     0.471827151502
    C            0.046909453871     0.719661540868    -0.540109117935
    O            1.990713225383    -0.389812255468     0.295804819838
    C           -1.362454538044     0.416880498534    -0.005546090632
    H            0.262313398089     0.151412505548    -1.435414976533
    H            0.144041621051     1.778587999776    -0.760424407301
    C           -1.795405261787    -1.026755779091    -0.233570465051
    H           -2.071415533651     1.103338879159    -0.452558779970
    H           -1.391886068975     0.637555249222     1.058909480709
    H           -1.847267008101    -1.253411188709    -1.292395315737
    H           -2.773156083209    -1.210132844519     0.195554049372
    H           -1.097581496543    -1.723178884188     0.217945115532

  Mulliken Charges: (a.u.)
   Center  Symbol    Alpha    Beta     Spin     Total
       1     H     0.46594  0.46594  0.00000  0.06812
       2     C     2.90507  2.90507  0.00000  0.18986
       3     C     3.08602  3.08602  0.00000 -0.17204
       4     O     4.16435  4.16435  0.00000 -0.32870
       5     C     3.09961  3.09961  0.00000 -0.19921
       6     H     0.44495  0.44495  0.00000  0.11009
       7     H     0.44190  0.44190  0.00000  0.11620
       8     C     3.14410  3.14410  0.00000 -0.28821
       9     H     0.44418  0.44418  0.00000  0.11164
      10     H     0.45499  0.45499  0.00000  0.09002
      11     H     0.45235  0.45235  0.00000  0.09531
      12     H     0.44719  0.44719  0.00000  0.10562
      13     H     0.44935  0.44935  0.00000  0.10129

   Total alpha = 20.00000, Total beta = 20.00000, Total charge = -0.00000

*** Psi4 exiting successfully. Buy a developer a beer!
