  ==> Input File <==

--------------------------------------------------------------------------
set {
	reference rhf
	basis 6-31G*
}

set_num_threads( 4 )
memory 2 gb

molecule MOL {
0 1

O	 -2.042549	 -1.228399	 -0.269030
C	 -1.653912	 -0.146171	 0.050137
C	 -0.332303	 0.024011	 0.778412
C	 -2.438579	 1.106236	 -0.272369
C	 0.845713	 -0.001731	 -0.208243
H	 -0.323783	 0.953829	 1.340327
H	 -0.235459	 -0.796807	 1.480410
C	 0.470186	 -0.615443	 -1.557823
H	 1.674019	 -0.561873	 0.222142
H	 1.199052	 1.014936	 -0.352052
C	 1.637365	 -0.634146	 -2.544002
H	 0.108537	 -1.630068	 -1.405602
H	 -0.357580	 -0.056006	 -1.987243
H	 2.469395	 -1.215457	 -2.156887
H	 1.999550	 0.370548	 -2.741119
H	 1.341474	 -1.071494	 -3.492265
H	 -3.277823	 0.863061	 -0.908988
H	 -1.806773	 1.843019	 -0.759671
H	 -2.802853	 1.554979	 0.648059

	symmetry c1
}
set optking {
	frozen_dihedral = ("
		9 5 3 2
	")
}

ee = optimize('scf')
oeprop('DIPOLE', 'QUADRUPOLE', 'MULLIKEN_CHARGES')
f=open( 'psi4out.xyz', 'w' )
f.write( "19  " )
f.write( str(ee) + "\n" )
f.write( MOL.save_string_xyz() )
f.close()
--------------------------------------------------------------------------

    Molecular point group: c1
  Charge       = 0
  Multiplicity = 1
  Basis Set: 6-31G*
  Basis Set:
  @DF-RHF Final Energy:  -309.05421179220656
    Total Energy =                       -309.0542117922065017
    Molecular point group: c1
  Basis Set: 6-31G*
  Basis Set:
  Basis Set: 6-31G*
  Basis Set:
  @DF-RHF Final Energy:  -309.05679889867906
    Total Energy =                       -309.0567988986793466
  Basis Set: 6-31G*
  Basis Set:
  Basis Set: 6-31G*
  Basis Set:
  @DF-RHF Final Energy:  -309.05714821132949
    Total Energy =                       -309.0571482113293200
  Basis Set: 6-31G*
  Basis Set:
  Basis Set: 6-31G*
  Basis Set:
  @DF-RHF Final Energy:  -309.05816126462668
    Total Energy =                       -309.0581612646266194
  Basis Set: 6-31G*
  Basis Set:
  @DF-RHF Final Energy:  -309.05828499649988
    Total Energy =                       -309.0582849964997649
  @DF-RHF Final Energy:  -309.05832082502491
    Total Energy =                       -309.0583208250251346
  Basis Set: 6-31G*
  Basis Set:
  @DF-RHF Final Energy:  -309.05837882673092
    Total Energy =                       -309.0583788267307455
  Basis Set: 6-31G*
  Basis Set:
  Basis Set: 6-31G*
  Basis Set:
  @DF-RHF Final Energy:  -309.05839773894047
    Total Energy =                       -309.0583977389403572
  Basis Set: 6-31G*
  Basis Set:
  Basis Set: 6-31G*
  Basis Set:
  @DF-RHF Final Energy:  -309.05840344978606
    Total Energy =                       -309.0584034497859420
  Basis Set: 6-31G*
  Basis Set:
  Charge       = 0
  Multiplicity = 1
  Basis Set: 6-31G*
  Basis Set:

    Orbital Energies (a.u.)
    -----------------------

    Doubly Occupied:

       1A    -20.548019     2A    -11.324702     3A    -11.232260
       4A    -11.229471     5A    -11.227861     6A    -11.221589
       7A    -11.213685     8A     -1.393812     9A     -1.088123
      10A     -1.026238    11A     -0.982752    12A     -0.890992
      13A     -0.812116    14A     -0.725367    15A     -0.659251
      16A     -0.642685    17A     -0.621563    18A     -0.617083
      19A     -0.580593    20A     -0.571954    21A     -0.558631
      22A     -0.541105    23A     -0.508695    24A     -0.493504
      25A     -0.485724    26A     -0.469304    27A     -0.463977
      28A     -0.397270

  @DF-RHF Final Energy:  -309.05840412527601

   => Energetics <=

    Nuclear Repulsion Energy =            309.6301143360289529
    One-Electron Energy =               -1032.3203809915275997
    Two-Electron Energy =                 413.6318625302224632
    DFT Exchange-Correlation Energy =       0.0000000000000000
    Empirical Dispersion Energy =           0.0000000000000000
    PCM Polarization Energy =               0.0000000000000000
    EFP Energy =                            0.0000000000000000
    Total Energy =                       -309.0584041252761267
    Molecular point group: c1
  Basis Set: 6-31G*
  Basis Set:

  -Total Gradient:
     Atom            X                  Y                   Z
    ------   -----------------  -----------------  -----------------
       1       -0.000020621262    -0.000038386711     0.000008940855
       2        0.000355422067    -0.003992910127     0.000162166339
       3       -0.000890851450     0.004764492976    -0.000754909871
       4       -0.000022885875    -0.000038245694     0.000070358632
       5        0.002517418665     0.003747654391     0.002883937150
       6        0.000004776118    -0.000007093329    -0.000003587826
       7        0.000006226533     0.000006058618    -0.000004445837
       8       -0.000052947068     0.000030672228     0.000021709597
       9       -0.001973679142    -0.004481792080    -0.002335152542
      10       -0.000006145458    -0.000008014622    -0.000003774407
      11        0.000040516654    -0.000011131589     0.000000350923
      12        0.000014792034     0.000010450716    -0.000005445431
      13       -0.000005139692    -0.000003746722     0.000001484995
      14        0.000009158329     0.000003967871    -0.000002463484
      15       -0.000007579948     0.000001091169    -0.000004522822
      16        0.000001559591    -0.000003518587     0.000001808126
      17        0.000006237676     0.000003236781    -0.000009946367
      18        0.000008359005    -0.000005805308    -0.000009953047
      19        0.000015383223     0.000023020024    -0.000016554985

  **** Optimization is complete! (in 10 steps) ****
    Final optimized geometry and variables:
    Molecular point group: c1

    Geometry (in Angstrom), charge = 0, multiplicity = 1:

    O           -1.716620369462    -1.014932406832     0.623403091936
    C           -1.196425443172     0.054326301176     0.720874423922
    C            0.191279171380     0.203378485324     1.321298916495
    C           -1.898676028991     1.318101321858     0.271775372143
    C            1.347182267807     0.233992692335     0.281362909542
    H            0.230354488117     1.097441466509     1.935981955845
    H            0.321298664453    -0.650568158194     1.974475133276
    C            1.025176441666    -0.375823745542    -1.089665410266
    H            2.169192237310    -0.343323425592     0.692054671749
    H            1.700381629447     1.251569839811     0.146094011061
    C            2.250294546685    -0.403121133634    -2.002970158530
    H            0.644612655731    -1.383767460075    -0.957810708487
    H            0.233402044955     0.186294793330    -1.578753889646
    H            3.050409623581    -0.996017007500    -1.569060238335
    H            2.636847198757     0.597714439425    -2.174647428711
    H            2.006672036817    -0.833730190821    -2.968861549917
    H           -2.772181913608     1.068351942799    -0.314603445579
    H           -1.234361132223     1.955103737992    -0.303695852842
    H           -2.208442271165     1.884442795628     1.146518913679

  Mulliken Charges: (a.u.)
   Center  Symbol    Alpha    Beta     Spin     Total
       1     O     4.26233  4.26233  0.00000 -0.52466
       2     C     2.73630  2.73630  0.00000  0.52741
       3     C     3.20416  3.20416  0.00000 -0.40832
       4     C     3.28865  3.28865  0.00000 -0.57729
       5     C     3.15737  3.15737  0.00000 -0.31474
       6     H     0.41341  0.41341  0.00000  0.17318
       7     H     0.39970  0.39970  0.00000  0.20061
       8     C     3.16453  3.16453  0.00000 -0.32905
       9     H     0.41310  0.41310  0.00000  0.17380
      10     H     0.41841  0.41841  0.00000  0.16318
      11     C     3.23994  3.23994  0.00000 -0.47989
      12     H     0.40647  0.40647  0.00000  0.18706
      13     H     0.42243  0.42243  0.00000  0.15513
      14     H     0.42040  0.42040  0.00000  0.15920
      15     H     0.42234  0.42234  0.00000  0.15533
      16     H     0.41607  0.41607  0.00000  0.16786
      17     H     0.39727  0.39727  0.00000  0.20545
      18     H     0.41111  0.41111  0.00000  0.17777
      19     H     0.40601  0.40601  0.00000  0.18798

   Total alpha = 28.00000, Total beta = 28.00000, Total charge =  0.00000
