  ==> Input File <==

--------------------------------------------------------------------------
set {
	reference rhf
	basis 6-31G*
}

set_num_threads( 4 )
memory 2 gb

molecule MOL {
0 1

O	 -2.042549	 -1.228399	 -0.269030
C	 -1.653912	 -0.146171	 0.050137
C	 -0.332303	 0.024011	 0.778412
C	 -2.438579	 1.106236	 -0.272369
C	 0.845713	 -0.001731	 -0.208243
H	 -0.323783	 0.953829	 1.340327
H	 -0.235459	 -0.796807	 1.480410
C	 2.200309	 0.136118	 0.488247
H	 0.733710	 0.800019	 -0.936072
H	 0.811185	 -0.933796	 -0.764304
C	 2.560086	 1.588391	 0.799168
H	 2.192991	 -0.440508	 1.410675
H	 2.972074	 -0.301285	 -0.140740
H	 1.823534	 2.043746	 1.455062
H	 2.606985	 2.183066	 -0.108359
H	 3.525983	 1.655863	 1.289593
H	 -3.277823	 0.863061	 -0.908988
H	 -1.806773	 1.843019	 -0.759671
H	 -2.802853	 1.554979	 0.648059

	symmetry c1
}
set optking {
	frozen_dihedral = ("
		11 8 5 9
	")
}

ee = optimize('scf')
oeprop('DIPOLE', 'QUADRUPOLE', 'MULLIKEN_CHARGES')
f=open( 'psi4out.xyz', 'w' )
f.write( "19  " )
f.write( str(ee) + "\n" )
f.write( MOL.save_string_xyz() )
f.close()
--------------------------------------------------------------------------

    Molecular point group: c1
  Charge       = 0
  Multiplicity = 1
  Basis Set: 6-31G*
  Basis Set:
  @DF-RHF Final Energy:  -309.06260804947078
    Total Energy =                       -309.0626080494710095
    Molecular point group: c1
  Basis Set: 6-31G*
  Basis Set:
  Basis Set: 6-31G*
  Basis Set:
  @DF-RHF Final Energy:  -309.06270310229456
    Total Energy =                       -309.0627031022945630
  Basis Set: 6-31G*
  Basis Set:
  Basis Set: 6-31G*
  Basis Set:
  @DF-RHF Final Energy:  -309.06281002688883
    Total Energy =                       -309.0628100268887692
  Basis Set: 6-31G*
  Basis Set:
  Basis Set: 6-31G*
  Basis Set:
  @DF-RHF Final Energy:  -309.06264404415072
    Total Energy =                       -309.0626440441509430
  Basis Set: 6-31G*
  Basis Set:
  Basis Set: 6-31G*
  Basis Set:
  @DF-RHF Final Energy:  -309.06249480681555
    Total Energy =                       -309.0624948068156073
  Basis Set: 6-31G*
  Basis Set:
  Basis Set: 6-31G*
  Basis Set:
  @DF-RHF Final Energy:  -309.06283670894118
    Total Energy =                       -309.0628367089411768
  Basis Set: 6-31G*
  Basis Set:
  Basis Set: 6-31G*
  Basis Set:
  @DF-RHF Final Energy:  -309.06284993440778
    Total Energy =                       -309.0628499344078364
  Basis Set: 6-31G*
  Basis Set:
  Charge       = 0
  Multiplicity = 1
  Basis Set: 6-31G*
  Basis Set:

    Orbital Energies (a.u.)
    -----------------------

    Doubly Occupied:

       1A    -20.547467     2A    -11.324467     3A    -11.230792
       4A    -11.229088     5A    -11.228253     6A    -11.225100
       7A    -11.217164     8A     -1.393177     9A     -1.091012
      10A     -1.028103    11A     -0.982699    12A     -0.896640
      13A     -0.801995    14A     -0.735246    15A     -0.659168
      16A     -0.648342    17A     -0.617925    18A     -0.608341
      19A     -0.598349    20A     -0.569253    21A     -0.553073
      22A     -0.535584    23A     -0.522437    24A     -0.498535
      25A     -0.482088    26A     -0.472292    27A     -0.464860
      28A     -0.397028

  @DF-RHF Final Energy:  -309.06285004776248

   => Energetics <=

    Nuclear Repulsion Energy =            304.0084684698720139
    One-Electron Energy =               -1021.0256859178825835
    Two-Electron Energy =                 407.9543674002483158
    DFT Exchange-Correlation Energy =       0.0000000000000000
    Empirical Dispersion Energy =           0.0000000000000000
    PCM Polarization Energy =               0.0000000000000000
    EFP Energy =                            0.0000000000000000
    Total Energy =                       -309.0628500477622538
    Molecular point group: c1
  Basis Set: 6-31G*
  Basis Set:

  -Total Gradient:
     Atom            X                  Y                   Z
    ------   -----------------  -----------------  -----------------
       1       -0.000008143507     0.000002860744     0.000010921073
       2        0.000019990232    -0.000004705378    -0.000021364568
       3       -0.000007239350     0.000002806743     0.000022796022
       4       -0.000005079972     0.000003756165     0.000007889880
       5        0.001736908617    -0.001804043914    -0.002992342358
       6       -0.000008510109    -0.000005839923     0.000007830336
       7        0.000000332898     0.000000812500    -0.000005205822
       8       -0.001473930300     0.000128936908     0.002879377949
       9       -0.001113517010     0.001518319405     0.001839415076
      10        0.000010889128     0.000003286029    -0.000002916960
      11        0.000867010050     0.000152099471    -0.001748420806
      12       -0.000016986777    -0.000002417537    -0.000003776735
      13        0.000007755672     0.000000383186     0.000010868431
      14        0.000009722323    -0.000001169778     0.000009325959
      15       -0.000024736515     0.000000281943     0.000003485578
      16        0.000009118344     0.000003341533    -0.000013513533
      17       -0.000001538106     0.000001881737    -0.000001480870
      18       -0.000000894708    -0.000001276548     0.000000206175
      19       -0.000001150905     0.000000686714    -0.000003094826

  **** Optimization is complete! (in 8 steps) ****
    Final optimized geometry and variables:
    Molecular point group: c1

    Geometry (in Angstrom), charge = 0, multiplicity = 1:

    O           -1.925750888152    -1.448640053359    -0.475935756733
    C           -1.535109381043    -0.369910567907    -0.147296293848
    C           -0.218071179091    -0.209665008795     0.591225193547
    C           -2.312785722500     0.887459501551    -0.467789182395
    C            0.965649882903    -0.241545426101    -0.392775498021
    H           -0.213588823751     0.715728602634     1.159128120053
    H           -0.129257420685    -1.035697436284     1.288004252998
    C            2.326672541578    -0.077125711029     0.297944563074
    H            0.838656967299     0.553806287147    -1.124768064542
    H            0.930453762250    -1.182503868415    -0.930504113617
    C            2.691265931152     1.375238250832     0.609431168071
    H            2.346912826077    -0.669800002084     1.209023032369
    H            3.095855624690    -0.490920156940    -0.348699598020
    H            1.969283914666     1.843207690497     1.272311104078
    H            2.735844030633     1.965972534228    -0.300909863862
    H            3.661944022726     1.436827444665     1.091168317879
    H           -3.145572426926     0.652165263178    -1.115759930223
    H           -1.673889408745     1.627131674073    -0.941236600882
    H           -2.686376493547     1.328766102992     0.452532663218

  Mulliken Charges: (a.u.)
   Center  Symbol    Alpha    Beta     Spin     Total
       1     O     4.26222  4.26222  0.00000 -0.52444
       2     C     2.73697  2.73697  0.00000  0.52605
       3     C     3.20150  3.20150  0.00000 -0.40300
       4     C     3.28959  3.28959  0.00000 -0.57918
       5     C     3.16313  3.16313  0.00000 -0.32626
       6     H     0.41606  0.41606  0.00000  0.16787
       7     H     0.40114  0.40114  0.00000  0.19772
       8     C     3.15463  3.15463  0.00000 -0.30925
       9     H     0.42072  0.42072  0.00000  0.15855
      10     H     0.40378  0.40378  0.00000  0.19244
      11     C     3.24144  3.24144  0.00000 -0.48288
      12     H     0.41931  0.41931  0.00000  0.16138
      13     H     0.41664  0.41664  0.00000  0.16672
      14     H     0.42210  0.42210  0.00000  0.15581
      15     H     0.42055  0.42055  0.00000  0.15890
      16     H     0.41652  0.41652  0.00000  0.16695
      17     H     0.39701  0.39701  0.00000  0.20598
      18     H     0.40991  0.40991  0.00000  0.18019
      19     H     0.40677  0.40677  0.00000  0.18646

   Total alpha = 28.00000, Total beta = 28.00000, Total charge = -0.00000
