  ==> Input File <==

--------------------------------------------------------------------------
set {
	reference rhf
	basis 6-31G*
}

set_num_threads( 4 )
memory 2 gb

molecule MOL {
0 1

H	 -2.991383	 -0.396278	 -2.814107
O	 -2.772478	 -0.584314	 -1.912649
C	 -1.494912	 -0.078684	 -1.621521
C	 -1.177863	 -0.397191	 -0.171080
H	 -0.747323	 -0.527809	 -2.273982
H	 -1.463262	 0.998120	 -1.782242
C	 0.198102	 0.111031	 0.262842
H	 -1.239063	 -1.473661	 -0.036190
H	 -1.952943	 0.040028	 0.452271
C	 1.331804	 -0.827780	 -0.158768
H	 0.361943	 1.100838	 -0.156218
H	 0.217265	 0.229072	 1.345532
C	 2.723619	 -0.410569	 0.329459
H	 1.342964	 -0.912588	 -1.244120
H	 1.116806	 -1.824343	 0.220779
C	 3.243875	 0.895854	 -0.272975
H	 3.424222	 -1.207124	 0.091250
H	 2.714788	 -0.329854	 1.414619
H	 3.251977	 0.848779	 -1.358681
H	 2.637085	 1.747371	 0.016682
H	 4.259473	 1.094070	 0.055697

	symmetry c1
}
set optking {
	frozen_dihedral = ("
		8 4 7 10
	")
}

ee = optimize('scf')
oeprop('DIPOLE', 'QUADRUPOLE', 'MULLIKEN_CHARGES')
f=open( 'psi4out.xyz', 'w' )
f.write( "21  " )
f.write( str(ee) + "\n" )
f.write( MOL.save_string_xyz() )
f.close()
--------------------------------------------------------------------------

    Molecular point group: c1
  Charge       = 0
  Multiplicity = 1
  Basis Set: 6-31G*
  Basis Set:
  @DF-RHF Final Energy:  -310.21029353962490
    Total Energy =                       -310.2102935396251837
    Molecular point group: c1
  Basis Set: 6-31G*
  Basis Set:
  Basis Set: 6-31G*
  Basis Set:
  @DF-RHF Final Energy:  -310.21053437763021
    Total Energy =                       -310.2105343776299264
  Basis Set: 6-31G*
  Basis Set:
  Basis Set: 6-31G*
  Basis Set:
  @DF-RHF Final Energy:  -310.21056459185809
    Total Energy =                       -310.2105645918580308
  Basis Set: 6-31G*
  Basis Set:
  Basis Set: 6-31G*
  Basis Set:
  @DF-RHF Final Energy:  -310.21054594024349
    Total Energy =                       -310.2105459402432643
  Basis Set: 6-31G*
  Basis Set:
  Basis Set: 6-31G*
  Basis Set:
  @DF-RHF Final Energy:  -310.21056670440834
    Total Energy =                       -310.2105667044082793
  Basis Set: 6-31G*
  Basis Set:
  Charge       = 0
  Multiplicity = 1
  Basis Set: 6-31G*
  Basis Set:

    Orbital Energies (a.u.)
    -----------------------

    Doubly Occupied:

       1A    -20.551622     2A    -11.266565     3A    -11.216032
       4A    -11.215823     5A    -11.214506     6A    -11.210769
       7A    -11.209204     8A     -1.358413     9A     -1.086220
      10A     -1.032236    11A     -0.952592    12A     -0.880308
      13A     -0.811294    14A     -0.774339    15A     -0.694170
      16A     -0.649923    17A     -0.630985    18A     -0.609122
      19A     -0.589202    20A     -0.556137    21A     -0.548093
      22A     -0.520003    23A     -0.510936    24A     -0.495572
      25A     -0.475617    26A     -0.457182    27A     -0.453675
      28A     -0.447149    29A     -0.431123

  @DF-RHF Final Energy:  -310.21056671949344

   => Energetics <=

    Nuclear Repulsion Energy =            316.0715697941887470
    One-Electron Energy =               -1046.8666538794470853
    Two-Electron Energy =                 420.5845173657648957
    DFT Exchange-Correlation Energy =       0.0000000000000000
    Empirical Dispersion Energy =           0.0000000000000000
    PCM Polarization Energy =               0.0000000000000000
    EFP Energy =                            0.0000000000000000
    Total Energy =                       -310.2105667194934995
    Molecular point group: c1
  Basis Set: 6-31G*
  Basis Set:

  -Total Gradient:
     Atom            X                  Y                   Z
    ------   -----------------  -----------------  -----------------
       1        0.000001074479     0.000001006147     0.000000368664
       2        0.000008833816     0.000004809940    -0.000000100777
       3       -0.000009728629    -0.000005838482     0.000007306354
       4       -0.000867261465     0.000031487590     0.002707503607
       5       -0.000000886914    -0.000000137755     0.000000430430
       6       -0.000001918512     0.000001645792    -0.000003043595
       7        0.000340561126     0.000921689462    -0.002128672953
       8        0.000648543436    -0.000258131477    -0.001787086752
       9       -0.000001602416    -0.000001514121    -0.000002717273
      10       -0.000131870613    -0.000688788201     0.001216340158
      11        0.000005539851     0.000001997692    -0.000002453670
      12        0.000005696442     0.000002564575     0.000002553996
      13        0.000005232291    -0.000013495379    -0.000009982308
      14        0.000004275745     0.000004553191     0.000004371684
      15        0.000001723058    -0.000000842119    -0.000001620337
      16       -0.000006626354     0.000002495021    -0.000000500833
      17        0.000001963776    -0.000005183232     0.000000436710
      18       -0.000000296832    -0.000001568696    -0.000001852534
      19        0.000006434551     0.000001713722    -0.000001627447
      20       -0.000005452226     0.000001729304    -0.000004487409
      21       -0.000004234611    -0.000000192972     0.000004834288

  **** Optimization is complete! (in 6 steps) ****
    Final optimized geometry and variables:
    Molecular point group: c1

    Geometry (in Angstrom), charge = 0, multiplicity = 1:

    H           -3.262746896882    -0.215348080594    -2.252308152382
    O           -3.032923489544    -0.401899094627    -1.353253492731
    C           -1.754061981960     0.109125847196    -1.076492588935
    C           -1.424098262152    -0.212958020489     0.372627580936
    H           -1.016472610457    -0.330810663063    -1.744758994055
    H           -1.731259803939     1.187353447472    -1.229414980741
    C           -0.035108694429     0.275893010526     0.806959101533
    H           -1.501264497256    -1.288997806344     0.499786679718
    H           -2.191845679914     0.237012834404     0.994041248284
    C            1.110478257305    -0.654017994635     0.390457021982
    H            0.130578397153     1.279517469543     0.422752371294
    H           -0.021281466400     0.364978486978     1.890814004245
    C            2.492660581914    -0.221362437853     0.893190150831
    H            1.143119312162    -0.748216641320    -0.693401638697
    H            0.898877002789    -1.649432166756     0.774334861046
    C            3.015924357152     1.077374621475     0.276759164820
    H            3.201189510329    -1.017919615241     0.679703245828
    H            2.465844965260    -0.122205052948     1.976485828167
    H            3.045978180090     1.010028688457    -0.807590886639
    H            2.398184903249     1.930002862000     0.538435260225
    H            4.023586641341     1.288657404644     0.621221466047

  Mulliken Charges: (a.u.)
   Center  Symbol    Alpha    Beta     Spin     Total
       1     H     0.28126  0.28126  0.00000  0.43748
       2     O     4.37177  4.37177  0.00000 -0.74354
       3     C     2.99161  2.99161  0.00000  0.01678
       4     C     3.16058  3.16058  0.00000 -0.32116
       5     H     0.43175  0.43175  0.00000  0.13650
       6     H     0.43297  0.43297  0.00000  0.13405
       7     C     3.16492  3.16492  0.00000 -0.32985
       8     H     0.41434  0.41434  0.00000  0.17132
       9     H     0.41253  0.41253  0.00000  0.17493
      10     C     3.15322  3.15322  0.00000 -0.30645
      11     H     0.42185  0.42185  0.00000  0.15630
      12     H     0.41899  0.41899  0.00000  0.16202
      13     C     3.15250  3.15250  0.00000 -0.30500
      14     H     0.42478  0.42478  0.00000  0.15043
      15     H     0.42022  0.42022  0.00000  0.15955
      16     C     3.24113  3.24113  0.00000 -0.48225
      17     H     0.42067  0.42067  0.00000  0.15866
      18     H     0.42292  0.42292  0.00000  0.15417
      19     H     0.42292  0.42292  0.00000  0.15417
      20     H     0.42015  0.42015  0.00000  0.15969
      21     H     0.41891  0.41891  0.00000  0.16218

   Total alpha = 29.00000, Total beta = 29.00000, Total charge = -0.00000
