  ==> Input File <==

--------------------------------------------------------------------------
set {
	reference rhf
	basis cc-pvtz
}

set_num_threads( 4 )
memory 2 gb

molecule MOL {
0 1

O	 -0.694481	 1.313155	 -0.204815
C	 -0.862519	 0.151932	 -0.046791
C	 -2.171428	 -0.477048	 0.339095
O	 0.085519	 -0.757083	 -0.192238
H	 -2.467997	 -1.191667	 -0.417688
H	 -2.923379	 0.287970	 0.444097
H	 -2.053854	 -1.015120	 1.270901
C	 1.008276	 -0.618164	 -1.266342
C	 2.162990	 0.290301	 -0.898609
H	 0.487455	 -0.251944	 -2.137229
H	 1.355374	 -1.621970	 -1.460370
H	 2.876774	 0.318617	 -1.714183
H	 1.818030	 1.298409	 -0.713939
H	 2.670832	 -0.075251	 -0.014266

	symmetry c1
}
set optking {
	frozen_dihedral = ("
		8 4 2 1
	")
}

ee = optimize('scf')
oeprop('DIPOLE', 'QUADRUPOLE', 'MULLIKEN_CHARGES')
f=open( 'psi4out.xyz', 'w' )
f.write( "14  " )
f.write( str(ee) + "\n" )
f.write( MOL.save_string_xyz() )
f.close()
--------------------------------------------------------------------------

    Molecular point group: c1
  Charge       = 0
  Multiplicity = 1
  Basis Set: CC-PVTZ
  Basis Set:
  @DF-RHF Final Energy:  -305.98246509315925
    Total Energy =                       -305.9824650931594761
    Molecular point group: c1
  Basis Set: CC-PVTZ
  Basis Set:
  Basis Set: CC-PVTZ
  Basis Set:
  @DF-RHF Final Energy:  -305.98041109249931
    Total Energy =                       -305.9804110924992528
  Basis Set: CC-PVTZ
  Basis Set:
  Basis Set: CC-PVTZ
  Basis Set:
  @DF-RHF Final Energy:  -305.98355142658801
    Total Energy =                       -305.9835514265877805
  Basis Set: CC-PVTZ
  Basis Set:
  Basis Set: CC-PVTZ
  Basis Set:
  @DF-RHF Final Energy:  -305.98373294461499
    Total Energy =                       -305.9837329446148715
  Basis Set: CC-PVTZ
  Basis Set:
  Basis Set: CC-PVTZ
  Basis Set:
  @DF-RHF Final Energy:  -305.98383647640594
    Total Energy =                       -305.9838364764054859
  Basis Set: CC-PVTZ
  Basis Set:
  Basis Set: CC-PVTZ
  Basis Set:
  @DF-RHF Final Energy:  -305.98385924087256
    Total Energy =                       -305.9838592408725617
  Basis Set: CC-PVTZ
  Basis Set:
  Basis Set: CC-PVTZ
  Basis Set:
  @DF-RHF Final Energy:  -305.98386302656286
    Total Energy =                       -305.9838630265627444
  Basis Set: CC-PVTZ
  Basis Set:
  Charge       = 0
  Multiplicity = 1
  Basis Set: CC-PVTZ
  Basis Set:

    Orbital Energies (a.u.)
    -----------------------

    Doubly Occupied:

       1A    -20.586998     2A    -20.537042     3A    -11.369052
       4A    -11.287313     5A    -11.232520     6A    -11.215014
       7A     -1.466399     8A     -1.366327     9A     -1.053989
      10A     -1.000375    11A     -0.879705    12A     -0.773002
      13A     -0.699710    14A     -0.684726    15A     -0.655353
      16A     -0.615029    17A     -0.584062    18A     -0.572954
      19A     -0.564501    20A     -0.532043    21A     -0.509691
      22A     -0.498935    23A     -0.451290    24A     -0.442517

  @DF-RHF Final Energy:  -305.98386354943682

   => Energetics <=

    Nuclear Repulsion Energy =            247.5862825651697960
    One-Electron Energy =                -907.9831999072979443
    Two-Electron Energy =                 354.4130537926914712
    DFT Exchange-Correlation Energy =       0.0000000000000000
    Empirical Dispersion Energy =           0.0000000000000000
    PCM Polarization Energy =               0.0000000000000000
    EFP Energy =                            0.0000000000000000
    Total Energy =                       -305.9838635494367054
    Molecular point group: c1
  Basis Set: CC-PVTZ
  Basis Set:

  -Total Gradient:
     Atom            X                  Y                   Z
    ------   -----------------  -----------------  -----------------
       1        0.002010033004     0.002581462134     0.009194677106
       2       -0.005027712723    -0.006534610285    -0.015630828583
       3       -0.000023393671    -0.000051525664    -0.000056627629
       4        0.007101324396     0.009341114691     0.010406428236
       5       -0.000004740366    -0.000006335878     0.000000635781
       6        0.000010067070     0.000000724943    -0.000003691946
       7        0.000003108391     0.000007820110     0.000004747583
       8       -0.004050441054    -0.005351276123    -0.003915778607
       9        0.000005364101     0.000018623082     0.000022243232
      10       -0.000012640773     0.000000405090    -0.000016359481
      11       -0.000008469901     0.000002087689    -0.000002039409
      12       -0.000010300042    -0.000002253083     0.000001117684
      13        0.000006669564    -0.000008183200    -0.000004875007
      14        0.000001132004     0.000001946499     0.000000351040

  **** Optimization is complete! (in 8 steps) ****
    Final optimized geometry and variables:
    Molecular point group: c1

    Geometry (in Angstrom), charge = 0, multiplicity = 1:

    O           -0.817237254898     1.295680319695    -0.072646653134
    C           -0.858060749031     0.161545380801     0.257087239724
    C           -2.072278729794    -0.519552762949     0.820145861074
    O            0.203714310809    -0.638588859210     0.256313290294
    H           -2.385444400193    -1.306372959074     0.144432953597
    H           -2.868850087577     0.195219552569     0.948496261405
    H           -1.822672354013    -0.982127060183     1.765886151183
    C            1.129284371719    -0.542044253034    -0.822212876333
    C            2.368653370008     0.231538810254    -0.425849798033
    H            0.642023152630    -0.076470105902    -1.666779753644
    H            1.375539316037    -1.562220772579    -1.078666178934
    H            3.078948705940     0.232614248570    -1.245414981891
    H            2.117182699050     1.254921173398    -0.184078916862
    H            2.842032035926    -0.224214714950     0.435240116410

  Mulliken Charges: (a.u.)
   Center  Symbol    Alpha    Beta     Spin     Total
       1     O     4.19000  4.19000  0.00000 -0.38000
       2     C     2.80597  2.80597  0.00000  0.38805
       3     C     3.13573  3.13573  0.00000 -0.27147
       4     O     4.16320  4.16320  0.00000 -0.32640
       5     H     0.44915  0.44915  0.00000  0.10169
       6     H     0.43872  0.43872  0.00000  0.12255
       7     H     0.44351  0.44351  0.00000  0.11298
       8     C     2.98204  2.98204  0.00000  0.03592
       9     C     3.13998  3.13998  0.00000 -0.27996
      10     H     0.45671  0.45671  0.00000  0.08658
      11     H     0.44564  0.44564  0.00000  0.10871
      12     H     0.45444  0.45444  0.00000  0.09112
      13     H     0.44229  0.44229  0.00000  0.11541
      14     H     0.45259  0.45259  0.00000  0.09481

   Total alpha = 24.00000, Total beta = 24.00000, Total charge = -0.00000
