  ==> Input File <==

--------------------------------------------------------------------------
set {
	reference rhf
	basis 6-31G*
}

set_num_threads( 1 )
memory 2 gb

molecule MOL {
0 1

O	 -0.291628	 1.323815	 -0.000732
C	 -0.449655	 0.146360	 0.000961
C	 -1.783294	 -0.549321	 -0.000296
O	 0.550821	 -0.724572	 0.000672
H	 -1.863538	 -1.185371	 -0.874187
H	 -2.574672	 0.185258	 -0.002793
H	 -1.866414	 -1.182381	 0.875436
C	 1.036618	 -1.144369	 1.263231
H	 1.411268	 -0.301068	 1.825224
H	 1.834550	 -1.840031	 1.055606
H	 0.254046	 -1.629322	 1.828690

	symmetry c1
}
set optking {
	frozen_dihedral = ("
		2 4 8 9
	")
}

ee = energy('scf')
oeprop('DIPOLE', 'QUADRUPOLE', 'MULLIKEN_CHARGES')
f=open( 'psi4out.xyz', 'w' )
f.write( "11  " )
f.write( str(ee) + "\n" )
f.write( MOL.save_string_xyz() )
f.close()
--------------------------------------------------------------------------

    Molecular point group: c1

    Geometry (in Angstrom), charge = 0, multiplicity = 1:

       Center              X                  Y                   Z               Mass
    ------------   -----------------  -----------------  -----------------  -----------------
           O         -0.115541066829     1.526182205117    -0.269660612525    15.994914619560
           C         -0.273568066829     0.348727205117    -0.267967612525    12.000000000000
           C         -1.607207066829    -0.346953794883    -0.269224612525    12.000000000000
           O          0.726907933171    -0.522204794883    -0.268256612525    15.994914619560
           H         -1.687451066829    -0.983003794883    -1.143115612525     1.007825032070
           H         -2.398585066829     0.387625205117    -0.271721612525     1.007825032070
           H         -1.690327066829    -0.980013794883     0.606507387475     1.007825032070
           C          1.212704933171    -0.942001794883     0.994302387475    12.000000000000
           H          1.587354933171    -0.098700794883     1.556295387475     1.007825032070
           H          2.010636933171    -1.637663794883     0.786677387475     1.007825032070
           H          0.430132933171    -1.426954794883     1.559761387475     1.007825032070

  Charge       = 0
  Multiplicity = 1
  Basis Set: 6-31G*
  Basis Set:

    Orbital Energies (a.u.)
    -----------------------

    Doubly Occupied:

       1A    -20.589190     2A    -20.556333     3A    -11.377842
       4A    -11.297166     5A    -11.236054     6A     -1.465998
       7A     -1.369225     8A     -1.027500     9A     -0.970372
      10A     -0.782219    11A     -0.694645    12A     -0.686214
      13A     -0.673334    14A     -0.614122    15A     -0.589017
      16A     -0.576393    17A     -0.546455    18A     -0.490583
      19A     -0.462168    20A     -0.441016

  @DF-RHF Final Energy:  -266.81452161864831

   => Energetics <=

    Nuclear Repulsion Energy =            183.2539390256580702
    One-Electron Energy =                -727.2452549516010549
    Two-Electron Energy =                 277.1767943072957223
    DFT Exchange-Correlation Energy =       0.0000000000000000
    Empirical Dispersion Energy =           0.0000000000000000
    PCM Polarization Energy =               0.0000000000000000
    EFP Energy =                            0.0000000000000000
    Total Energy =                       -266.8145216186472908

  Mulliken Charges: (a.u.)
   Center  Symbol    Alpha    Beta     Spin     Total
       1     O     4.25394  4.25394  0.00000 -0.50788
       2     C     2.63264  2.63264  0.00000  0.73471
       3     C     3.28613  3.28613  0.00000 -0.57225
       4     O     4.30267  4.30267  0.00000 -0.60534
       5     H     0.39794  0.39794  0.00000  0.20412
       6     H     0.39788  0.39788  0.00000  0.20423
       7     H     0.40772  0.40772  0.00000  0.18456
       8     C     3.09282  3.09282  0.00000 -0.18565
       9     H     0.40674  0.40674  0.00000  0.18652
      10     H     0.40047  0.40047  0.00000  0.19906
      11     H     0.42105  0.42105  0.00000  0.15790

   Total alpha = 20.00000, Total beta = 20.00000, Total charge =  0.00000
