  ==> Input File <==

--------------------------------------------------------------------------
set {
	reference rhf
	basis 6-31G*
}

set_num_threads( 4 )
memory 2 gb

molecule MOL {
0 1

H	 -3.420663	 1.227371	 -1.044276
O	 -3.452007	 0.283848	 -0.965577
C	 -3.181085	 -0.079926	 0.364119
C	 -1.765924	 0.277073	 0.805136
H	 -3.327791	 -1.152017	 0.410903
H	 -3.905698	 0.375695	 1.036898
C	 -0.677594	 -0.417312	 -0.014550
H	 -1.637766	 1.358238	 0.744969
H	 -1.659588	 0.017670	 1.857098
C	 0.738335	 -0.034840	 0.421385
H	 -0.814977	 -0.178223	 -1.064632
H	 -0.802730	 -1.495410	 0.071702
C	 0.789255	 1.302604	 1.164847
H	 1.140208	 -0.825292	 1.050751
H	 1.385031	 0.017204	 -0.453646
C	 2.198265	 1.772310	 1.544613
H	 0.178658	 1.237613	 2.064093
H	 0.328107	 2.065252	 0.540725
C	 2.908098	 0.888095	 2.571601
H	 2.128867	 2.781582	 1.943164
H	 2.808097	 1.843061	 0.646113
H	 2.315077	 0.788821	 3.476924
H	 3.866564	 1.314935	 2.850865
H	 3.096307	 -0.109326	 2.188336

	symmetry c1
}
set optking {
	frozen_dihedral = ("
		13 10 7 11
	")
}

ee = optimize('scf')
oeprop('DIPOLE', 'QUADRUPOLE', 'MULLIKEN_CHARGES')
f=open( 'psi4out.xyz', 'w' )
f.write( "24  " )
f.write( str(ee) + "\n" )
f.write( MOL.save_string_xyz() )
f.close()
--------------------------------------------------------------------------

    Molecular point group: c1
  Charge       = 0
  Multiplicity = 1
  Basis Set: 6-31G*
  Basis Set:
  @DF-RHF Final Energy:  -349.23608608468470
    Total Energy =                       -349.2360860846845867
    Molecular point group: c1
  Basis Set: 6-31G*
  Basis Set:
  Basis Set: 6-31G*
  Basis Set:
  @DF-RHF Final Energy:  -349.23657534832955
    Total Energy =                       -349.2365753483297226
  Basis Set: 6-31G*
  Basis Set:
  Basis Set: 6-31G*
  Basis Set:
  @DF-RHF Final Energy:  -349.23958719391112
    Total Energy =                       -349.2395871939112340
  Basis Set: 6-31G*
  Basis Set:
  Basis Set: 6-31G*
  Basis Set:
  @DF-RHF Final Energy:  -349.23999462206672
    Total Energy =                       -349.2399946220666607
  Basis Set: 6-31G*
  Basis Set:
  @DF-RHF Final Energy:  -349.23985182936570
    Total Energy =                       -349.2398518293657617
  @DF-RHF Final Energy:  -349.24000007696577
    Total Energy =                       -349.2400000769658845
  Basis Set: 6-31G*
  Basis Set:
  @DF-RHF Final Energy:  -349.24005878365887
    Total Energy =                       -349.2400587836589239
  Basis Set: 6-31G*
  Basis Set:
  Basis Set: 6-31G*
  Basis Set:
  @DF-RHF Final Energy:  -349.24005538852680
    Total Energy =                       -349.2400553885267982
  Basis Set: 6-31G*
  Basis Set:
  Basis Set: 6-31G*
  Basis Set:
  @DF-RHF Final Energy:  -349.24006050249181
    Total Energy =                       -349.2400605024920424
  Basis Set: 6-31G*
  Basis Set:
  Charge       = 0
  Multiplicity = 1
  Basis Set: 6-31G*
  Basis Set:

    Orbital Energies (a.u.)
    -----------------------

    Doubly Occupied:

       1A    -20.553416     2A    -11.267598     3A    -11.217445
       4A    -11.215196     5A    -11.213469     6A    -11.212641
       7A    -11.211481     8A    -11.208036     9A     -1.360039
      10A     -1.087325    11A     -1.046621    12A     -0.983300
      13A     -0.917058    14A     -0.855451    15A     -0.811085
      16A     -0.762117    17A     -0.676093    18A     -0.652035
      19A     -0.626883    20A     -0.620289    21A     -0.599384
      22A     -0.578262    23A     -0.564077    24A     -0.539415
      25A     -0.523429    26A     -0.510437    27A     -0.495586
      28A     -0.481274    29A     -0.474202    30A     -0.455347
      31A     -0.445492    32A     -0.437589    33A     -0.424472

  @DF-RHF Final Energy:  -349.24006027682304

   => Energetics <=

    Nuclear Repulsion Energy =            389.2201317388831399
    One-Electron Energy =               -1244.8672977419535073
    Two-Electron Energy =                 506.4071057262470958
    DFT Exchange-Correlation Energy =       0.0000000000000000
    Empirical Dispersion Energy =           0.0000000000000000
    PCM Polarization Energy =               0.0000000000000000
    EFP Energy =                            0.0000000000000000
    Total Energy =                       -349.2400602768233284
    Molecular point group: c1
  Basis Set: 6-31G*
  Basis Set:

  -Total Gradient:
     Atom            X                  Y                   Z
    ------   -----------------  -----------------  -----------------
       1       -0.000000063030     0.000004012400    -0.000004025807
       2       -0.000012119325     0.000009007280     0.000009159589
       3        0.000013145744    -0.000028293904    -0.000008519927
       4        0.000018685853     0.000025835923    -0.000014096471
       5       -0.000001284017    -0.000004061359     0.000001558067
       6        0.000004609272     0.000001260473    -0.000001124880
       7       -0.002689127867     0.006099898452     0.003412643179
       8        0.000010477171     0.000019782600    -0.000001733139
       9        0.000004565173     0.000001291045     0.000000168331
      10        0.001564500966     0.001606508250    -0.006006372002
      11        0.001897191422    -0.005653512428    -0.001342689961
      12        0.000005617738    -0.000006341033    -0.000003363777
      13       -0.000796627722    -0.002070749378     0.003977056781
      14        0.000007328582    -0.000009368983     0.000004207844
      15       -0.000009958065     0.000004932711     0.000005024856
      16        0.000000597201     0.000007572741    -0.000011150700
      17        0.000010158212     0.000008906520    -0.000000783316
      18       -0.000028753379    -0.000007103940    -0.000018756559
      19       -0.000001375159    -0.000010755187    -0.000006011194
      20       -0.000004871046    -0.000008390572     0.000009233003
      21        0.000006268294     0.000019313013     0.000001345488
      22        0.000005626885     0.000006255428     0.000000714690
      23        0.000002725984    -0.000007962227    -0.000005291164
      24       -0.000007318890    -0.000008037822     0.000002807071

  **** Optimization is complete! (in 10 steps) ****
    Final optimized geometry and variables:
    Molecular point group: c1

    Geometry (in Angstrom), charge = 0, multiplicity = 1:

    H           -3.172199531979     0.596590502090    -1.837319473542
    O           -3.130972886914    -0.346204249565    -1.754851838498
    C           -2.884668428633    -0.684183563673    -0.413694582413
    C           -1.526607492284    -0.202441087919     0.086648647967
    H           -2.939054292649    -1.764827925181    -0.368683295050
    H           -3.673777052595    -0.293069588918     0.226375734159
    C           -0.360900900153    -0.809646613396    -0.695561088706
    H           -1.500889023193     0.884147987933     0.034676187281
    H           -1.445323489690    -0.459433097814     1.141184369931
    C            1.067301996685    -0.442576305761    -0.225188604096
    H           -0.469550527188    -0.593848075682    -1.753026481561
    H           -0.456383362012    -1.892460233081    -0.637667829009
    C            1.221738370397     0.898857211976     0.501357947181
    H            1.419034566566    -1.226822837807     0.439180745944
    H            1.732699619908    -0.460627738069    -1.084487140467
    C            2.674499193172     1.263548450492     0.832219426100
    H            0.642562540369     0.890311514042     1.421106513686
    H            0.805849039635     1.694199885465    -0.114313653204
    C            3.353360014648     0.334036812828     1.840297038042
    H            2.691679246374     2.276193866906     1.228030764214
    H            3.257573382436     1.287606113806    -0.086128121103
    H            2.782277357664     0.275378920134     2.763202241587
    H            4.345572191517     0.697237090065     2.090048164745
    H            3.464334580128    -0.673884975671     1.455103300668

  Mulliken Charges: (a.u.)
   Center  Symbol    Alpha    Beta     Spin     Total
       1     H     0.28337  0.28337  0.00000  0.43325
       2     O     4.36819  4.36819  0.00000 -0.73638
       3     C     2.99641  2.99641  0.00000  0.00717
       4     C     3.17168  3.17168  0.00000 -0.34335
       5     H     0.41640  0.41640  0.00000  0.16721
       6     H     0.42799  0.42799  0.00000  0.14402
       7     C     3.15601  3.15601  0.00000 -0.31203
       8     H     0.42540  0.42540  0.00000  0.14921
       9     H     0.42207  0.42207  0.00000  0.15585
      10     C     3.15542  3.15542  0.00000 -0.31083
      11     H     0.41060  0.41060  0.00000  0.17879
      12     H     0.42223  0.42223  0.00000  0.15553
      13     C     3.15562  3.15562  0.00000 -0.31124
      14     H     0.42131  0.42131  0.00000  0.15738
      15     H     0.42070  0.42070  0.00000  0.15859
      16     C     3.15189  3.15189  0.00000 -0.30377
      17     H     0.42314  0.42314  0.00000  0.15372
      18     H     0.42383  0.42383  0.00000  0.15234
      19     C     3.24142  3.24142  0.00000 -0.48285
      20     H     0.42159  0.42159  0.00000  0.15683
      21     H     0.42314  0.42314  0.00000  0.15372
      22     H     0.42290  0.42290  0.00000  0.15420
      23     H     0.41931  0.41931  0.00000  0.16138
      24     H     0.41937  0.41937  0.00000  0.16127

   Total alpha = 33.00000, Total beta = 33.00000, Total charge = -0.00000
