  ==> Input File <==

--------------------------------------------------------------------------
set {
	reference rhf
	basis 6-31G*
}

set_num_threads( 4 )
memory 2 gb

molecule MOL {
0 1

H	 -0.978442	 4.412823	 0.172656
O	 -0.294235	 3.809732	 -0.080420
C	 -0.644771	 2.506955	 0.310076
C	 0.472345	 1.568687	 -0.111176
H	 -0.787995	 2.455759	 1.388581
H	 -1.581037	 2.205581	 -0.157812
C	 0.198102	 0.111031	 0.262842
H	 1.395491	 1.906713	 0.351714
H	 0.609634	 1.660966	 -1.185007
C	 1.331804	 -0.827780	 -0.158768
H	 0.039544	 0.041268	 1.336232
H	 -0.728809	 -0.216497	 -0.206283
C	 2.723619	 -0.410569	 0.329459
H	 1.342964	 -0.912588	 -1.244120
H	 1.116806	 -1.824343	 0.220779
C	 3.243875	 0.895854	 -0.272975
H	 3.424222	 -1.207124	 0.091250
H	 2.714788	 -0.329854	 1.414619
H	 3.251977	 0.848779	 -1.358681
H	 2.637085	 1.747371	 0.016682
H	 4.259473	 1.094070	 0.055697

	symmetry c1
}
set optking {
	frozen_dihedral = ("
		4 7 10 14
	")
}

ee = optimize('scf')
oeprop('DIPOLE', 'QUADRUPOLE', 'MULLIKEN_CHARGES')
f=open( 'psi4out.xyz', 'w' )
f.write( "21  " )
f.write( str(ee) + "\n" )
f.write( MOL.save_string_xyz() )
f.close()
--------------------------------------------------------------------------

    Molecular point group: c1
  Charge       = 0
  Multiplicity = 1
  Basis Set: 6-31G*
  Basis Set:
  @DF-RHF Final Energy:  -310.18141712037379
    Total Energy =                       -310.1814171203736805
    Molecular point group: c1
  Basis Set: 6-31G*
  Basis Set:
  Basis Set: 6-31G*
  Basis Set:
  @DF-RHF Final Energy:  -310.20042007442584
    Total Energy =                       -310.2004200744259492
  Basis Set: 6-31G*
  Basis Set:
  Basis Set: 6-31G*
  Basis Set:
  @DF-RHF Final Energy:  -310.20547202363502
    Total Energy =                       -310.2054720236353660
  Basis Set: 6-31G*
  Basis Set:
  Basis Set: 6-31G*
  Basis Set:
  @DF-RHF Final Energy:  -310.20694307039571
    Total Energy =                       -310.2069430703955391
  Basis Set: 6-31G*
  Basis Set:
  @DF-RHF Final Energy:  -310.20776683053128
    Total Energy =                       -310.2077668305313409
  @DF-RHF Final Energy:  -310.20786729462111
    Total Energy =                       -310.2078672946208258
  @DF-RHF Final Energy:  -310.20792529663447
    Total Energy =                       -310.2079252966346985
  Basis Set: 6-31G*
  Basis Set:
  @DF-RHF Final Energy:  -310.20794720483462
    Total Energy =                       -310.2079472048349658
  Basis Set: 6-31G*
  Basis Set:
  Basis Set: 6-31G*
  Basis Set:
  @DF-RHF Final Energy:  -310.20795439602574
    Total Energy =                       -310.2079543960255705
  Basis Set: 6-31G*
  Basis Set:
  Basis Set: 6-31G*
  Basis Set:
  @DF-RHF Final Energy:  -310.20795592248686
    Total Energy =                       -310.2079559224872014
  Basis Set: 6-31G*
  Basis Set:
  Charge       = 0
  Multiplicity = 1
  Basis Set: 6-31G*
  Basis Set:

    Orbital Energies (a.u.)
    -----------------------

    Doubly Occupied:

       1A    -20.552060     2A    -11.267204     3A    -11.216749
       4A    -11.214267     5A    -11.213693     6A    -11.210394
       7A    -11.204634     8A     -1.358881     9A     -1.084332
      10A     -1.028998    11A     -0.958036    12A     -0.871863
      13A     -0.813705    14A     -0.773621    15A     -0.691044
      16A     -0.658436    17A     -0.623956    18A     -0.603621
      19A     -0.584756    20A     -0.568303    21A     -0.540127
      22A     -0.523252    23A     -0.502833    24A     -0.489390
      25A     -0.483303    26A     -0.457090    27A     -0.448382
      28A     -0.441693    29A     -0.434343

  @DF-RHF Final Energy:  -310.20795604634492

   => Energetics <=

    Nuclear Repulsion Energy =            319.0276807219484567
    One-Electron Energy =               -1052.8333420182495956
    Two-Electron Energy =                 423.5977052499562205
    DFT Exchange-Correlation Energy =       0.0000000000000000
    Empirical Dispersion Energy =           0.0000000000000000
    PCM Polarization Energy =               0.0000000000000000
    EFP Energy =                            0.0000000000000000
    Total Energy =                       -310.2079560463449752
    Molecular point group: c1
  Basis Set: 6-31G*
  Basis Set:

  -Total Gradient:
     Atom            X                  Y                   Z
    ------   -----------------  -----------------  -----------------
       1        0.000000399997     0.000003353186     0.000000954116
       2       -0.000000467772     0.000005869413     0.000000905225
       3        0.000003926078    -0.000008339228    -0.000007918011
       4        0.000708958660     0.000145959180     0.001551809965
       5        0.000002580627     0.000001516942    -0.000003990444
       6       -0.000002747192    -0.000003034829     0.000001597114
       7       -0.001350108104    -0.000640418947    -0.002221919344
       8       -0.000001573880     0.000001342984    -0.000002517311
       9       -0.000000690388    -0.000004577511     0.000001959753
      10        0.002021889622     0.002273581290     0.000716995078
      11        0.000006791082     0.000008477448    -0.000005805243
      12       -0.000008089539    -0.000003890433     0.000000824375
      13        0.000020586367    -0.000012839518    -0.000012802263
      14       -0.001380917234    -0.001775691577    -0.000028179317
      15       -0.000008257743    -0.000006569602     0.000000221215
      16       -0.000008754986     0.000016154442     0.000008612589
      17        0.000000465752     0.000000573763     0.000005535310
      18       -0.000001151865     0.000006156732    -0.000008995177
      19       -0.000005059094    -0.000003509084     0.000004706182
      20        0.000003541741    -0.000003314891     0.000001008962
      21       -0.000001322129    -0.000000799764    -0.000003002776

  **** Optimization is complete! (in 11 steps) ****
    Final optimized geometry and variables:
    Molecular point group: c1

    Geometry (in Angstrom), charge = 0, multiplicity = 1:

    H           -2.311480048490     3.189306055205     0.305540586500
    O           -1.547803504381     2.676498403493     0.082471256217
    C           -1.811655090166     1.314980314153     0.304442777437
    C           -0.568146987287     0.524810611102    -0.065236345636
    H           -2.067881932711     1.139663157069     1.348543252286
    H           -2.656524810998     0.985147338383    -0.298475582062
    C           -0.745104848250    -0.976440380673     0.170121519991
    H            0.258661254787     0.910694260117     0.521157993672
    H           -0.336340305010     0.722792790374    -1.108266514465
    C            0.419787122676    -1.873411198354    -0.274031302940
    H           -0.922186418806    -1.143666880084     1.231750812021
    H           -1.643682588810    -1.315804820550    -0.341799221081
    C            1.804171167099    -1.541245991215     0.312330283310
    H            0.470655730226    -1.892553770845    -1.361170114557
    H            0.158155733986    -2.887963776393     0.016810630938
    C            2.657915223626    -0.598194129746    -0.539474575008
    H            2.357318647567    -2.468220767779     0.437496146705
    H            1.687007999477    -1.128906274297     1.312384263056
    H            2.837853748343    -1.027003925107    -1.521390741691
    H            2.189219142094     0.367804989551    -0.684423948636
    H            3.624088513518    -0.428694162183    -0.073422098402

  Mulliken Charges: (a.u.)
   Center  Symbol    Alpha    Beta     Spin     Total
       1     H     0.28114  0.28114  0.00000  0.43772
       2     O     4.37202  4.37202  0.00000 -0.74404
       3     C     2.98885  2.98885  0.00000  0.02229
       4     C     3.16259  3.16259  0.00000 -0.32518
       5     H     0.43295  0.43295  0.00000  0.13410
       6     H     0.43272  0.43272  0.00000  0.13455
       7     C     3.16017  3.16017  0.00000 -0.32034
       8     H     0.41237  0.41237  0.00000  0.17527
       9     H     0.41521  0.41521  0.00000  0.16958
      10     C     3.15331  3.15331  0.00000 -0.30662
      11     H     0.42406  0.42406  0.00000  0.15187
      12     H     0.42291  0.42291  0.00000  0.15417
      13     C     3.15683  3.15683  0.00000 -0.31366
      14     H     0.42211  0.42211  0.00000  0.15579
      15     H     0.42057  0.42057  0.00000  0.15886
      16     C     3.24148  3.24148  0.00000 -0.48297
      17     H     0.42042  0.42042  0.00000  0.15917
      18     H     0.42190  0.42190  0.00000  0.15619
      19     H     0.42245  0.42245  0.00000  0.15509
      20     H     0.41520  0.41520  0.00000  0.16960
      21     H     0.42073  0.42073  0.00000  0.15854

   Total alpha = 29.00000, Total beta = 29.00000, Total charge =  0.00000
