  ==> Input File <==

--------------------------------------------------------------------------
set {
	reference rhf
	basis 6-31G*
}

set_num_threads( 4 )
memory 2 gb

molecule MOL {
0 1

O	 1.424360	 0.795360	 -0.932396
C	 1.705091	 0.115954	 0.001797
C	 0.976265	 0.094952	 1.323251
O	 2.721346	 -0.737485	 -0.000216
C	 -0.205300	 1.058489	 1.379301
H	 0.658535	 -0.928580	 1.502542
H	 1.703751	 0.318468	 2.098831
C	 -0.925443	 1.015956	 2.727873
H	 -0.901085	 0.817829	 0.581708
H	 0.145267	 2.066255	 1.179751
C	 -2.114125	 1.975906	 2.801284
H	 -1.271409	 0.002097	 2.923817
H	 -0.221914	 1.255814	 3.523734
C	 -2.832524	 1.933847	 4.149388
H	 -2.819113	 1.735978	 2.008461
H	 -1.769989	 2.989226	 2.606627
H	 -3.219003	 0.940039	 4.357220
H	 -3.669520	 2.624824	 4.170344
H	 -2.161352	 2.202826	 4.960245
C	 4.024888	 -0.184556	 -0.001949
H	 4.179030	 0.422472	 -0.882452
H	 4.701782	 -1.024608	 -0.003642
H	 4.181981	 0.421185	 0.878906

	symmetry c1
}
set optking {
	frozen_dihedral = ("
		1 2 4 20
	")
}

ee = optimize('scf')
oeprop('DIPOLE', 'QUADRUPOLE', 'MULLIKEN_CHARGES')
f=open( 'psi4out.xyz', 'w' )
f.write( "23  " )
f.write( str(ee) + "\n" )
f.write( MOL.save_string_xyz() )
f.close()
--------------------------------------------------------------------------

    Molecular point group: c1
  Charge       = 0
  Multiplicity = 1
  Basis Set: 6-31G*
  Basis Set:
  @DF-RHF Final Energy:  -422.95851876659833
    Total Energy =                       -422.9585187665979902
    Molecular point group: c1
  Basis Set: 6-31G*
  Basis Set:
  Basis Set: 6-31G*
  Basis Set:
  @DF-RHF Final Energy:  -422.95629385596044
    Total Energy =                       -422.9562938559607801
  Basis Set: 6-31G*
  Basis Set:
  Basis Set: 6-31G*
  Basis Set:
  @DF-RHF Final Energy:  -422.95944717820436
    Total Energy =                       -422.9594471782038454
  Basis Set: 6-31G*
  Basis Set:
  Basis Set: 6-31G*
  Basis Set:
  @DF-RHF Final Energy:  -422.95960555533605
    Total Energy =                       -422.9596055553359975
  Basis Set: 6-31G*
  Basis Set:
  Basis Set: 6-31G*
  Basis Set:
  @DF-RHF Final Energy:  -422.95961076725575
    Total Energy =                       -422.9596107672560947
  Basis Set: 6-31G*
  Basis Set:
  Charge       = 0
  Multiplicity = 1
  Basis Set: 6-31G*
  Basis Set:

    Orbital Energies (a.u.)
    -----------------------

    Doubly Occupied:

       1A    -20.587019     2A    -20.555741     3A    -11.374731
       4A    -11.288967     5A    -11.238204     6A    -11.221101
       7A    -11.219508     8A    -11.217716     9A    -11.210680
      10A     -1.459785    11A     -1.366045    12A     -1.094269
      13A     -1.042267    14A     -0.982257    15A     -0.938763
      16A     -0.848438    17A     -0.796590    18A     -0.764923
      19A     -0.695822    20A     -0.678215    21A     -0.673228
      22A     -0.649165    23A     -0.614397    24A     -0.607146
      25A     -0.578006    26A     -0.567945    27A     -0.554300
      28A     -0.533132    29A     -0.509570    30A     -0.502496
      31A     -0.486695    32A     -0.474811    33A     -0.469787
      34A     -0.466930    35A     -0.450065    36A     -0.431568

  @DF-RHF Final Energy:  -422.95961140008251

   => Energetics <=

    Nuclear Repulsion Energy =            451.9095957485595818
    One-Electron Energy =               -1471.4378530946166848
    Two-Electron Energy =                 596.5686459459753905
    DFT Exchange-Correlation Energy =       0.0000000000000000
    Empirical Dispersion Energy =           0.0000000000000000
    PCM Polarization Energy =               0.0000000000000000
    EFP Energy =                            0.0000000000000000
    Total Energy =                       -422.9596114000817124
    Molecular point group: c1
  Basis Set: 6-31G*
  Basis Set:

  -Total Gradient:
     Atom            X                  Y                   Z
    ------   -----------------  -----------------  -----------------
       1       -0.004562612099    -0.004996283626    -0.002080341433
       2        0.006874846874     0.007310488160     0.005701351612
       3        0.000040671558     0.000033499728    -0.000024127485
       4       -0.002632836662    -0.002474654100    -0.009202308716
       5       -0.000018886334    -0.000006725398     0.000003826761
       6       -0.000000832824    -0.000002072392    -0.000008860032
       7       -0.000002880427    -0.000011915265    -0.000003782826
       8       -0.000016575739     0.000006744321     0.000003216048
       9        0.000006290094    -0.000004373979     0.000005291705
      10       -0.000007333517     0.000001560915     0.000000013554
      11        0.000000138364     0.000008962301     0.000009312722
      12       -0.000006952926    -0.000001457107    -0.000004447562
      13        0.000001386217    -0.000005459890    -0.000001491785
      14        0.000005541921     0.000000637058    -0.000000824823
      15        0.000001425187    -0.000003463859     0.000001821462
      16        0.000000297343     0.000003553075    -0.000002862890
      17       -0.000000070742    -0.000001546514     0.000000180157
      18        0.000002057813    -0.000000573426    -0.000002979928
      19       -0.000000086672     0.000001212846     0.000002091984
      20        0.000305891082     0.000162976816     0.005611307024
      21        0.000006384054    -0.000016213779    -0.000001613482
      22       -0.000000799245     0.000003999995    -0.000005630928
      23        0.000004936670    -0.000008895873     0.000000858862

  **** Optimization is complete! (in 6 steps) ****
    Final optimized geometry and variables:
    Molecular point group: c1

    Geometry (in Angstrom), charge = 0, multiplicity = 1:

    O            0.879033880976     0.133693889501    -2.164980308569
    C            1.168065280812    -0.520456240217    -1.222742865857
    C            0.422390585275    -0.536967117769     0.087667418077
    O            2.173670662828    -1.421603513791    -1.252505865243
    C           -0.775517622935     0.406052452213     0.130953322999
    H            0.124118002551    -1.566453954122     0.268424721472
    H            1.138825561962    -0.301290828382     0.872141958189
    C           -1.506842833463     0.357973256147     1.473333014984
    H           -1.459546136868     0.148693340262    -0.671661764237
    H           -0.441347705712     1.419206831550    -0.070936699459
    C           -2.710982706153     1.299433101395     1.532232929043
    H           -1.838502172419    -0.660365943131     1.670256249951
    H           -0.814302274658     0.612144078749     2.274552215830
    C           -3.440879023486     1.251059806997     2.873928957562
    H           -3.404736844303     1.045331919144     0.734044442438
    H           -2.381129846315     2.317338272560     1.336739837372
    H           -3.813216795255     0.251965071985     3.082265349616
    H           -4.289006168068     1.928478741953     2.884394995748
    H           -2.781678076174     1.534070253908     3.689830414480
    C            3.487144514490    -0.906143455131    -1.330284958850
    H            3.598256152029    -0.265212078648    -2.194634788183
    H            4.146476152792    -1.755483803507    -1.418665345343
    H            3.733874540752    -0.353913237656    -0.429519317955

  Mulliken Charges: (a.u.)
   Center  Symbol    Alpha    Beta     Spin     Total
       1     O     4.25917  4.25917  0.00000 -0.51834
       2     C     2.60971  2.60971  0.00000  0.78058
       3     C     3.21172  3.21172  0.00000 -0.42345
       4     O     4.31624  4.31624  0.00000 -0.63247
       5     C     3.15315  3.15315  0.00000 -0.30629
       6     H     0.39774  0.39774  0.00000  0.20452
       7     H     0.40681  0.40681  0.00000  0.18638
       8     C     3.15319  3.15319  0.00000 -0.30637
       9     H     0.41037  0.41037  0.00000  0.17925
      10     H     0.41283  0.41283  0.00000  0.17434
      11     C     3.15163  3.15163  0.00000 -0.30327
      12     H     0.42335  0.42335  0.00000  0.15329
      13     H     0.42463  0.42463  0.00000  0.15074
      14     C     3.23963  3.23963  0.00000 -0.47926
      15     H     0.42085  0.42085  0.00000  0.15830
      16     H     0.42150  0.42150  0.00000  0.15700
      17     H     0.42155  0.42155  0.00000  0.15689
      18     H     0.41824  0.41824  0.00000  0.16352
      19     H     0.42200  0.42200  0.00000  0.15601
      20     C     3.09394  3.09394  0.00000 -0.18787
      21     H     0.40578  0.40578  0.00000  0.18844
      22     H     0.40417  0.40417  0.00000  0.19165
      23     H     0.42179  0.42179  0.00000  0.15642

   Total alpha = 36.00000, Total beta = 36.00000, Total charge =  0.00000
