  ==> Input File <==

--------------------------------------------------------------------------
set {
	reference rhf
	basis 6-31G*
}

set_num_threads( 1 )
memory 2 gb

molecule MOL {
0 1

O	 -0.682937	 1.318834	 -0.186099
C	 -0.860635	 0.152188	 -0.042321
C	 -2.173363	 -0.477127	 0.338347
O	 0.083258	 -0.765189	 -0.202595
H	 -2.477673	 -1.180929	 -0.427595
H	 -2.923125	 0.290956	 0.455536
H	 -2.058825	 -1.029004	 1.264191
C	 -0.300604	 -2.138252	 -0.214667
C	 -0.772689	 -2.571982	 -1.590043
H	 -1.063952	 -2.299882	 0.531199
H	 0.593340	 -2.672073	 0.074119
H	 -0.984996	 -3.636709	 -1.586507
H	 -1.676353	 -2.046074	 -1.871432
H	 -0.007427	 -2.379631	 -2.334215

	symmetry c1
}
set optking {
	frozen_dihedral = ("
		10 8 4 2
	")
}

ee = energy('scf')
oeprop('DIPOLE', 'QUADRUPOLE', 'MULLIKEN_CHARGES')
f=open( 'psi4out.xyz', 'w' )
f.write( "14  " )
f.write( str(ee) + "\n" )
f.write( MOL.save_string_xyz() )
f.close()
--------------------------------------------------------------------------

    Molecular point group: c1

    Geometry (in Angstrom), charge = 0, multiplicity = 1:

       Center              X                  Y                   Z               Mass
    ------------   -----------------  -----------------  -----------------  -----------------
           O          0.107061134106     2.075620931254     0.134693006406    15.994914619560
           C         -0.070636865894     0.908974931254     0.278471006406    12.000000000000
           C         -1.383364865894     0.279659931254     0.659139006406    12.000000000000
           O          0.873256134106    -0.008402068746     0.118197006406    15.994914619560
           H         -1.687674865894    -0.424142068746    -0.106802993594     1.007825032070
           H         -2.133126865894     1.047742931254     0.776328006406     1.007825032070
           H         -1.268826865894    -0.272217068746     1.584983006406     1.007825032070
           C          0.489394134106    -1.381465068746     0.106125006406    12.000000000000
           C          0.017309134106    -1.815195068746    -1.269250993594    12.000000000000
           H         -0.273953865894    -1.543095068746     0.851991006406     1.007825032070
           H          1.383338134106    -1.915286068746     0.394911006406     1.007825032070
           H         -0.194997865894    -2.879922068746    -1.265714993594     1.007825032070
           H         -0.886354865894    -1.289287068746    -1.550639993594     1.007825032070
           H          0.782571134106    -1.622844068746    -2.013422993594     1.007825032070

  Charge       = 0
  Multiplicity = 1
  Basis Set: 6-31G*
  Basis Set:

    Orbital Energies (a.u.)
    -----------------------

    Doubly Occupied:

       1A    -20.605487     2A    -20.542882     3A    -11.377678
       4A    -11.300961     5A    -11.239044     6A    -11.236701
       7A     -1.466626     8A     -1.368419     9A     -1.054780
      10A     -1.026251    11A     -0.901707    12A     -0.774277
      13A     -0.706600    14A     -0.696810    15A     -0.667011
      16A     -0.625928    17A     -0.598300    18A     -0.578057
      19A     -0.559909    20A     -0.543002    21A     -0.529085
      22A     -0.509388    23A     -0.446938    24A     -0.432873

  @DF-RHF Final Energy:  -305.84471960266023

   => Energetics <=

    Nuclear Repulsion Energy =            252.0101205793578174
    One-Electron Energy =                -916.1321554884926854
    Two-Electron Energy =                 358.2773153064741791
    DFT Exchange-Correlation Energy =       0.0000000000000000
    Empirical Dispersion Energy =           0.0000000000000000
    PCM Polarization Energy =               0.0000000000000000
    EFP Energy =                            0.0000000000000000
    Total Energy =                       -305.8447196026606889

  Mulliken Charges: (a.u.)
   Center  Symbol    Alpha    Beta     Spin     Total
       1     O     4.27195  4.27195  0.00000 -0.54390
       2     C     2.60268  2.60268  0.00000  0.79463
       3     C     3.32639  3.32639  0.00000 -0.65277
       4     O     4.30039  4.30039  0.00000 -0.60079
       5     H     0.40260  0.40260  0.00000  0.19481
       6     H     0.38815  0.38815  0.00000  0.22369
       7     H     0.39801  0.39801  0.00000  0.20397
       8     C     3.01674  3.01674  0.00000 -0.03348
       9     C     3.25228  3.25228  0.00000 -0.50456
      10     H     0.41202  0.41202  0.00000  0.17596
      11     H     0.39882  0.39882  0.00000  0.20237
      12     H     0.41397  0.41397  0.00000  0.17206
      13     H     0.41416  0.41416  0.00000  0.17169
      14     H     0.40184  0.40184  0.00000  0.19631

   Total alpha = 24.00000, Total beta = 24.00000, Total charge =  0.00000
