  ==> Input File <==

--------------------------------------------------------------------------
set {
	reference rhf
	basis 6-31G*
}

set_num_threads( 4 )
memory 2 gb

molecule MOL {
0 1

O	 -0.682937	 1.318834	 -0.186099
C	 -0.860635	 0.152188	 -0.042321
C	 -2.173363	 -0.477127	 0.338347
O	 0.083258	 -0.765189	 -0.202595
H	 -2.477673	 -1.180929	 -0.427595
H	 -2.923125	 0.290956	 0.455536
H	 -2.058825	 -1.029004	 1.264191
C	 1.391937	 -0.334737	 -0.569838
C	 1.889168	 -1.058967	 -1.807134
H	 2.060572	 -0.479897	 0.265025
H	 1.286293	 0.724158	 -0.757135
H	 2.852623	 -0.657124	 -2.105474
H	 2.007701	 -2.117580	 -1.613082
H	 1.195504	 -0.927688	 -2.630548

	symmetry c1
}
set optking {
	frozen_dihedral = ("
		10 8 4 2
	")
}

ee = optimize('scf')
oeprop('DIPOLE', 'QUADRUPOLE', 'MULLIKEN_CHARGES')
f=open( 'psi4out.xyz', 'w' )
f.write( "14  " )
f.write( str(ee) + "\n" )
f.write( MOL.save_string_xyz() )
f.close()
--------------------------------------------------------------------------

    Molecular point group: c1
  Charge       = 0
  Multiplicity = 1
  Basis Set: 6-31G*
  Basis Set:
  @DF-RHF Final Energy:  -305.87235422058865
    Total Energy =                       -305.8723542205885906
    Molecular point group: c1
  Basis Set: 6-31G*
  Basis Set:
  Basis Set: 6-31G*
  Basis Set:
  @DF-RHF Final Energy:  -305.87354335367218
    Total Energy =                       -305.8735433536722894
  Basis Set: 6-31G*
  Basis Set:
  Basis Set: 6-31G*
  Basis Set:
  @DF-RHF Final Energy:  -305.87417795077312
    Total Energy =                       -305.8741779507731167
  Basis Set: 6-31G*
  Basis Set:
  Basis Set: 6-31G*
  Basis Set:
  @DF-RHF Final Energy:  -305.87424229414341
    Total Energy =                       -305.8742422941431869
  Basis Set: 6-31G*
  Basis Set:
  Basis Set: 6-31G*
  Basis Set:
  @DF-RHF Final Energy:  -305.87425439618653
    Total Energy =                       -305.8742543961865294
  Basis Set: 6-31G*
  Basis Set:
  Basis Set: 6-31G*
  Basis Set:
  @DF-RHF Final Energy:  -305.87425528392737
    Total Energy =                       -305.8742552839272548
  Basis Set: 6-31G*
  Basis Set:
  Charge       = 0
  Multiplicity = 1
  Basis Set: 6-31G*
  Basis Set:

    Orbital Energies (a.u.)
    -----------------------

    Doubly Occupied:

       1A    -20.601367     2A    -20.543924     3A    -11.376302
       4A    -11.284008     5A    -11.232847     6A    -11.222473
       7A     -1.465932     8A     -1.363204     9A     -1.057441
      10A     -0.999666    11A     -0.875960    12A     -0.775597
      13A     -0.696738    14A     -0.682586    15A     -0.660295
      16A     -0.611981    17A     -0.581717    18A     -0.563629
      19A     -0.561866    20A     -0.533091    21A     -0.516035
      22A     -0.497479    23A     -0.448922    24A     -0.439102

  @DF-RHF Final Energy:  -305.87425626880275

   => Energetics <=

    Nuclear Repulsion Energy =            245.9011306054274542
    One-Electron Energy =                -904.3664521383982446
    Two-Electron Energy =                 352.5910652641680372
    DFT Exchange-Correlation Energy =       0.0000000000000000
    Empirical Dispersion Energy =           0.0000000000000000
    PCM Polarization Energy =               0.0000000000000000
    EFP Energy =                            0.0000000000000000
    Total Energy =                       -305.8742562688028102
    Molecular point group: c1
  Basis Set: 6-31G*
  Basis Set:

  -Total Gradient:
     Atom            X                  Y                   Z
    ------   -----------------  -----------------  -----------------
       1       -0.000114774520     0.000080356405    -0.000011960355
       2       -0.000021876558    -0.000016748461    -0.000370978585
       3        0.000029511625     0.000005192000    -0.000054848889
       4        0.000195498952    -0.000153875262     0.000526732109
       5        0.000025933158     0.000030406395     0.000010784344
       6        0.000002064996     0.000008420171    -0.000003350161
       7        0.000001287651    -0.000015277858     0.000024491258
       8       -0.000171998688     0.000530320532     0.000027344161
       9       -0.000013184721    -0.000026649712     0.000023188266
      10        0.000111620710    -0.000429774694    -0.000179230225
      11       -0.000033303245    -0.000019660969     0.000008184148
      12       -0.000006775125     0.000000327609     0.000015278451
      13       -0.000001919359    -0.000010092497    -0.000014546223
      14       -0.000002084876     0.000017056342    -0.000001088301

  **** Optimization is complete! (in 7 steps) ****
    Final optimized geometry and variables:
    Molecular point group: c1

    Geometry (in Angstrom), charge = 0, multiplicity = 1:

    O           -0.672966826889     1.526370865773     0.276526391142
    C           -0.809227951750     0.350624874406     0.380876220528
    C           -2.099363401129    -0.332792145441     0.746042572384
    O            0.158849171775    -0.536733922701     0.190398090929
    H           -2.383834178470    -1.022056175681    -0.040419787702
    H           -2.873071321528     0.406528974603     0.889553377044
    H           -1.962924926039    -0.909033552841     1.653918385693
    C            1.463006148172    -0.094518177486    -0.179441785939
    C            1.924500693998    -0.896742333128    -1.380189287935
    H            2.108459051649    -0.267456742269     0.672233003627
    H            1.437534131186     0.961933489155    -0.388568618488
    H            2.937922170727    -0.614012527615    -1.647314628152
    H            1.910956421672    -1.958793426152    -1.163324406006
    H            1.282014238510    -0.712928655541    -2.234276696473

  Mulliken Charges: (a.u.)
   Center  Symbol    Alpha    Beta     Spin     Total
       1     O     4.28266  4.28266  0.00000 -0.56532
       2     C     2.62020  2.62020  0.00000  0.75961
       3     C     3.28230  3.28230  0.00000 -0.56461
       4     O     4.30786  4.30786  0.00000 -0.61571
       5     H     0.40080  0.40080  0.00000  0.19841
       6     H     0.39715  0.39715  0.00000  0.20571
       7     H     0.40039  0.40039  0.00000  0.19923
       8     C     3.01138  3.01138  0.00000 -0.02277
       9     C     3.24692  3.24692  0.00000 -0.49384
      10     H     0.41429  0.41429  0.00000  0.17142
      11     H     0.39380  0.39380  0.00000  0.21240
      12     H     0.41719  0.41719  0.00000  0.16563
      13     H     0.41188  0.41188  0.00000  0.17623
      14     H     0.41319  0.41319  0.00000  0.17363

   Total alpha = 24.00000, Total beta = 24.00000, Total charge =  0.00000
