                              Psi4 1.0.54 Driver

  ==> Input File <==

--------------------------------------------------------------------------
set {
	reference rhf
	basis cc-pvtz
}

set_num_threads( 4 )
memory 2 gb

molecule MOL {
0 1

H	 2.929836	 0.635676	 1.188233
N	 2.064781	 0.138450	 1.182214
C	 1.263552	 0.494993	 0.021953
H	 1.587430	 0.367549	 2.028964
C	 -0.016533	 -0.325589	 -0.026925
H	 1.854197	 0.289208	 -0.864492
H	 1.011019	 1.555753	 -0.009686
C	 -1.280353	 0.525521	 0.047747
H	 -0.016686	 -0.912532	 -0.939714
H	 -0.014099	 -1.037598	 0.796369
C	 -2.560681	 -0.301323	 -0.007747
H	 -1.279957	 1.241025	 -0.770189
H	 -1.270445	 1.110526	 0.963468
H	 -2.617064	 -0.872870	 -0.928010
H	 -3.439525	 0.331102	 0.043462
H	 -2.609427	 -1.002736	 0.818585

	symmetry c1
}
set optking {
	frozen_dihedral = ("
		6 3 5 9
	")
}

ee,wfn = optimize('scf', return_wfn=True)
oeprop( wfn, 'DIPOLE', 'QUADRUPOLE', 'MULLIKEN_CHARGES')
f=open( 'psi4out.xyz', 'w' )
f.write( "16  " )
f.write( str(ee) + "\n" )
f.write( MOL.save_string_xyz() )
f.close()
--------------------------------------------------------------------------

    Molecular point group: c1
  Charge       = 0
  Multiplicity = 1
  Basis Set: CC-PVTZ
  Basis Set:
  @DF-RHF Final Energy:  -212.39381776486823
    Total Energy =                       -212.3938177648682313
    Molecular point group: c1
  Basis Set: CC-PVTZ
  Basis Set:
  Basis Set: CC-PVTZ
  Basis Set:
  @DF-RHF Final Energy:  -212.39417540208052
    Total Energy =                       -212.3941754020805206
  Basis Set: CC-PVTZ
  Basis Set:
  Basis Set: CC-PVTZ
  Basis Set:
  @DF-RHF Final Energy:  -212.39428082302811
    Total Energy =                       -212.3942808230282253
  Basis Set: CC-PVTZ
  Basis Set:
  Charge       = 0
  Multiplicity = 1
  Basis Set: CC-PVTZ
  Basis Set:

    Orbital Energies (a.u.)
    -----------------------

    Doubly Occupied:

       1A    -15.526940     2A    -11.238239     3A    -11.213815
       4A    -11.207817     5A    -11.206131     6A     -1.177277
       7A     -1.059668     8A     -0.958172     9A     -0.847518
      10A     -0.790923    11A     -0.668226    12A     -0.629080
      13A     -0.611787    14A     -0.579400    15A     -0.555676
      16A     -0.528337    17A     -0.509076    18A     -0.472308
      19A     -0.465437    20A     -0.454466    21A     -0.382738

  @DF-RHF Final Energy:  -212.39428161983005

   => Energetics <=

    Nuclear Repulsion Energy =            186.9818377271867575
    One-Electron Energy =                -656.5861782747711004
    Two-Electron Energy =                 257.2100589277542895
    DFT Exchange-Correlation Energy =       0.0000000000000000
    Empirical Dispersion Energy =           0.0000000000000000
    PCM Polarization Energy =               0.0000000000000000
    EFP Energy =                            0.0000000000000000
    Total Energy =                       -212.3942816198300534
    Molecular point group: c1
  Basis Set: CC-PVTZ
  Basis Set:

  -Total Gradient:
     Atom            X                  Y                   Z
    ------   -----------------  -----------------  -----------------
       1        0.000017651982    -0.000006061563     0.000004091930
       2        0.000013453933     0.000002829729    -0.000034663952
       3        0.000304627298    -0.000602873391     0.000497086040
       4       -0.000006340286     0.000003299469    -0.000049140570
       5       -0.000320568385     0.000582617972    -0.000420229413
       6       -0.000228683382     0.000394386885    -0.000229995805
       7       -0.000007933093    -0.000000366956    -0.000013521225
       8       -0.000005429788     0.000027566321    -0.000057470830
       9        0.000237529663    -0.000385695869     0.000264234105
      10        0.000003358809     0.000003704003    -0.000006407786
      11       -0.000008779618    -0.000014923911     0.000050537901
      12        0.000009937106    -0.000010137202    -0.000003986873
      13       -0.000005329613    -0.000001042138    -0.000010157877
      14        0.000013769370     0.000021894824     0.000011462828
      15       -0.000004156445    -0.000002266116     0.000008375838
      16       -0.000013107554    -0.000012932055    -0.000010214311

  **** Optimization is complete! (in 4 steps) ****
    Final optimized geometry and variables:
    Molecular point group: c1

    Geometry (in Angstrom), charge = 0, multiplicity = 1:

    H            3.009799012760     0.508550708056     0.972908977873
    N            2.147648447440     0.005557326770     0.952752150598
    C            1.371649146266     0.352315665587    -0.230619909225
    H            1.650133500959     0.245546730466     1.785222429778
    C            0.056263816670    -0.443640909156    -0.295089684628
    H            1.982663873652     0.127908262348    -1.096055902071
    H            1.148405776988     1.417764081569    -0.282824058477
    C           -1.197387279897     0.427096189172    -0.252631413710
    H            0.036102843608    -1.051529115754    -1.193776399304
    H            0.039446333843    -1.142698163086     0.534106459093
    C           -2.488490271746    -0.383072140694    -0.282955610245
    H           -1.185805625205     1.117447304756    -1.091661413407
    H           -1.178001179468     1.041475111471     0.644393665375
    H           -2.553134198637    -0.980695610538    -1.186168814677
    H           -3.359042582710     0.262034530519    -0.250450446287
    H           -2.545550006186    -1.059812058006     0.563110413607

  Mulliken Charges: (a.u.)
   Center  Symbol    Alpha    Beta     Spin     Total
       1     H     0.43002  0.43002  0.00000  0.13997
       2     N     3.68687  3.68687  0.00000 -0.37374
       3     C     3.03438  3.03438  0.00000 -0.06876
       4     H     0.43115  0.43115  0.00000  0.13770
       5     C     3.09374  3.09374  0.00000 -0.18748
       6     H     0.45406  0.45406  0.00000  0.09188
       7     H     0.46662  0.46662  0.00000  0.06676
       8     C     3.08348  3.08348  0.00000 -0.16696
       9     H     0.45065  0.45065  0.00000  0.09871
      10     H     0.44851  0.44851  0.00000  0.10299
      11     C     3.15034  3.15034  0.00000 -0.30068
      12     H     0.45498  0.45498  0.00000  0.09003
      13     H     0.45672  0.45672  0.00000  0.08656
      14     H     0.45479  0.45479  0.00000  0.09042
      15     H     0.44894  0.44894  0.00000  0.10212
      16     H     0.45476  0.45476  0.00000  0.09049

   Total alpha = 21.00000, Total beta = 21.00000, Total charge = -0.00000

*** Psi4 exiting successfully. Buy a developer a beer!
