  ==> Input File <==

--------------------------------------------------------------------------
set {
	reference rhf
	basis 6-31G*
}

set_num_threads( 4 )
memory 2 gb

molecule MOL {
0 1

O	 3.225979	 0.970355	 -0.599647
C	 2.701189	 0.057885	 -0.047330
C	 1.245376	 -0.013843	 0.345420
O	 3.347903	 -1.046386	 0.304773
C	 0.455112	 1.231400	 -0.050772
H	 0.838542	 -0.913825	 -0.103701
H	 1.208210	 -0.175333	 1.419774
C	 -0.998893	 1.219485	 0.433193
H	 0.482531	 1.345121	 -1.130325
H	 0.957290	 2.103070	 0.354729
C	 -1.883438	 0.145884	 -0.207175
H	 -1.431207	 2.195402	 0.224832
H	 -1.019646	 1.105716	 1.516076
C	 -3.347647	 0.245583	 0.225435
H	 -1.822183	 0.231698	 -1.291012
H	 -1.510341	 -0.844814	 0.042401
C	 -3.524684	 0.380076	 1.738941
H	 -3.886062	 -0.634681	 -0.121669
H	 -3.811276	 1.099035	 -0.266873
C	 -4.989903	 0.475210	 2.162950
H	 -3.061078	 -0.471450	 2.232515
H	 -2.990812	 1.261846	 2.087140
H	 -5.082673	 0.569666	 3.240484
H	 -5.543961	 -0.408642	 1.859602
H	 -5.473214	 1.337674	 1.712572
C	 4.728119	 -1.109107	 -0.004993
H	 4.882018	 -1.033965	 -1.071845
H	 5.068212	 -2.067527	 0.355250
H	 5.265056	 -0.311663	 0.488280

	symmetry c1
}
set optking {
	frozen_dihedral = ("
		17 14 11 15
	")
}

ee = optimize('scf')
oeprop('DIPOLE', 'QUADRUPOLE', 'MULLIKEN_CHARGES')
f=open( 'psi4out.xyz', 'w' )
f.write( "29  " )
f.write( str(ee) + "\n" )
f.write( MOL.save_string_xyz() )
f.close()
--------------------------------------------------------------------------

    Molecular point group: c1
  Charge       = 0
  Multiplicity = 1
  Basis Set: 6-31G*
  Basis Set:
  @DF-RHF Final Energy:  -501.03984580842905
    Total Energy =                       -501.0398458084287086
    Molecular point group: c1
  Basis Set: 6-31G*
  Basis Set:
  Basis Set: 6-31G*
  Basis Set:
  @DF-RHF Final Energy:  -501.04045939853154
    Total Energy =                       -501.0404593985310839
  Basis Set: 6-31G*
  Basis Set:
  Basis Set: 6-31G*
  Basis Set:
  @DF-RHF Final Energy:  -501.04133882994381
    Total Energy =                       -501.0413388299443795
  Basis Set: 6-31G*
  Basis Set:
  Basis Set: 6-31G*
  Basis Set:
  @DF-RHF Final Energy:  -501.04140173574672
    Total Energy =                       -501.0414017357473995
  Basis Set: 6-31G*
  Basis Set:
  Basis Set: 6-31G*
  Basis Set:
  @DF-RHF Final Energy:  -501.04141099377819
    Total Energy =                       -501.0414109937787543
  Basis Set: 6-31G*
  Basis Set:
  Basis Set: 6-31G*
  Basis Set:
  @DF-RHF Final Energy:  -501.04140353886783
    Total Energy =                       -501.0414035388686216
  Basis Set: 6-31G*
  Basis Set:
  Basis Set: 6-31G*
  Basis Set:
  @DF-RHF Final Energy:  -501.04141325697344
    Total Energy =                       -501.0414132569731009
  Basis Set: 6-31G*
  Basis Set:
  Charge       = 0
  Multiplicity = 1
  Basis Set: 6-31G*
  Basis Set:

    Orbital Energies (a.u.)
    -----------------------

    Doubly Occupied:

       1A    -20.603337     2A    -20.545153     3A    -11.371959
       4A    -11.280636     5A    -11.234690     6A    -11.218961
       7A    -11.217209     8A    -11.216444     9A    -11.215652
      10A    -11.214831    11A    -11.209093    12A     -1.469027
      13A     -1.362468    14A     -1.098257    15A     -1.065777
      16A     -1.017586    17A     -0.976927    18A     -0.928881
      19A     -0.862019    20A     -0.817398    21A     -0.775932
      22A     -0.759151    23A     -0.700778    24A     -0.682309
      25A     -0.671741    26A     -0.646790    27A     -0.626643
      28A     -0.605485    29A     -0.598993    30A     -0.580899
      31A     -0.564894    32A     -0.555445    33A     -0.544110
      34A     -0.524328    35A     -0.513971    36A     -0.508468
      37A     -0.494091    38A     -0.483974    39A     -0.474782
      40A     -0.456820    41A     -0.453932    42A     -0.448301
      43A     -0.444451    44A     -0.436809

  @DF-RHF Final Energy:  -501.04141357744970

   => Energetics <=

    Nuclear Repulsion Energy =            615.7006089382205118
    One-Electron Energy =               -1902.5252404094323992
    Two-Electron Energy =                 785.7832178937617300
    DFT Exchange-Correlation Energy =       0.0000000000000000
    Empirical Dispersion Energy =           0.0000000000000000
    PCM Polarization Energy =               0.0000000000000000
    EFP Energy =                            0.0000000000000000
    Total Energy =                       -501.0414135774501574
    Molecular point group: c1
  Basis Set: 6-31G*
  Basis Set:

  -Total Gradient:
     Atom            X                  Y                   Z
    ------   -----------------  -----------------  -----------------
       1       -0.000008937317    -0.000008784590    -0.000029482081
       2        0.000027641270     0.000028510243     0.000076436501
       3       -0.000019946812    -0.000018215269    -0.000040871638
       4       -0.000006145406    -0.000010595704    -0.000023471077
       5       -0.000024824008    -0.000040985956    -0.000001499854
       6       -0.000019555024    -0.000022759456    -0.000000391288
       7       -0.000000783247     0.000008144170    -0.000007869256
       8       -0.000008188713     0.000075118367     0.000090143507
       9        0.000018082814     0.000006912914    -0.000010591763
      10       -0.000039726343    -0.000002001224     0.000011886503
      11       -0.000393390823    -0.003408760065    -0.000329643211
      12       -0.000005937016     0.000007738951    -0.000024914492
      13        0.000004674283     0.000025958632     0.000014299731
      14       -0.000147294846    -0.003061377881     0.000512876245
      15        0.000297028229     0.003711121743     0.000203270848
      16        0.000007206788    -0.000030148799    -0.000039246710
      17        0.000244222344     0.002825062613    -0.000268515160
      18        0.000059405315    -0.000017968452    -0.000002509081
      19       -0.000002460236    -0.000008406925    -0.000042952028
      20        0.000005437450    -0.000042367432    -0.000073871423
      21       -0.000001730824    -0.000009754411     0.000011108998
      22        0.000011646469     0.000002787328    -0.000008315445
      23        0.000041136430    -0.000015374037    -0.000016472863
      24       -0.000028943611    -0.000004097013    -0.000007587997
      25       -0.000009538650     0.000011107719     0.000007999213
      26        0.000001305973    -0.000000075846     0.000001305843
      27        0.000000214608    -0.000000188771    -0.000000222457
      28       -0.000000297022    -0.000000212989    -0.000000596573
      29       -0.000000302098    -0.000000387862    -0.000000302991

  **** Optimization is complete! (in 8 steps) ****
    Final optimized geometry and variables:
    Molecular point group: c1

    Geometry (in Angstrom), charge = 0, multiplicity = 1:

    O            3.101119144005     0.743080068894    -1.057000449997
    C            2.599852119003    -0.167940832830    -0.480935654635
    C            1.161494360203    -0.238802405221    -0.028326367130
    O            3.260733393630    -1.271339048912    -0.153247356928
    C            0.355092562977     1.005179471836    -0.395028300386
    H            0.736344287981    -1.139879253959    -0.458005496121
    H            1.168573012993    -0.397544044236     1.047075087814
    C           -1.076358890581     0.994007075547     0.152673100724
    H            0.336060623484     1.114101051468    -1.475271199406
    H            0.873869465667     1.878595689003    -0.014937781996
    C           -1.969817348559    -0.103972846906    -0.438900732318
    H           -1.525243122045     1.962107774551    -0.060323181262
    H           -1.041807899257     0.907375574024     1.235834973849
    C           -3.460761457118     0.035534037601    -0.100156884739
    H           -1.865739599152    -0.060478841614    -1.521275495506
    H           -1.618466927216    -1.082582070076    -0.121691772272
    C           -3.783805012836     0.236488232351     1.383058722659
    H           -3.981998659073    -0.847503984633    -0.463270510816
    H           -3.869849304385     0.876973355352    -0.657601371398
    C           -5.287819905820     0.239477279286     1.656577449725
    H           -3.313451891172    -0.550968100694     1.969854495352
    H           -3.358693709166     1.173016973645     1.730641872943
    H           -5.495492794828     0.394343842498     2.710850387841
    H           -5.742545347086    -0.702824555012     1.364399873632
    H           -5.784837623947     1.030821517320     1.102258513651
    C            4.626901531373    -1.334864787813    -0.519887823158
    H            4.736376272678    -1.262355683254    -1.592395662731
    H            4.981703320619    -2.292406841660    -0.171714650019
    H            5.183801300449    -0.536232998763    -0.051284864527

  Mulliken Charges: (a.u.)
   Center  Symbol    Alpha    Beta     Spin     Total
       1     O     4.28598  4.28598  0.00000 -0.57196
       2     C     2.60484  2.60484  0.00000  0.79033
       3     C     3.20979  3.20979  0.00000 -0.41958
       4     O     4.30746  4.30746  0.00000 -0.61493
       5     C     3.15364  3.15364  0.00000 -0.30728
       6     H     0.39858  0.39858  0.00000  0.20284
       7     H     0.40134  0.40134  0.00000  0.19732
       8     C     3.15992  3.15992  0.00000 -0.31984
       9     H     0.41336  0.41336  0.00000  0.17327
      10     H     0.40883  0.40883  0.00000  0.18234
      11     C     3.15541  3.15541  0.00000 -0.31083
      12     H     0.41884  0.41884  0.00000  0.16231
      13     H     0.42120  0.42120  0.00000  0.15760
      14     C     3.15128  3.15128  0.00000 -0.30256
      15     H     0.42131  0.42131  0.00000  0.15737
      16     H     0.42309  0.42309  0.00000  0.15381
      17     C     3.15465  3.15465  0.00000 -0.30930
      18     H     0.42170  0.42170  0.00000  0.15660
      19     H     0.42373  0.42373  0.00000  0.15254
      20     C     3.23918  3.23918  0.00000 -0.47837
      21     H     0.42435  0.42435  0.00000  0.15129
      22     H     0.41963  0.41963  0.00000  0.16074
      23     H     0.41932  0.41932  0.00000  0.16136
      24     H     0.42179  0.42179  0.00000  0.15643
      25     H     0.42161  0.42161  0.00000  0.15679
      26     C     3.09240  3.09240  0.00000 -0.18480
      27     H     0.40908  0.40908  0.00000  0.18184
      28     H     0.40852  0.40852  0.00000  0.18296
      29     H     0.40914  0.40914  0.00000  0.18172

   Total alpha = 44.00000, Total beta = 44.00000, Total charge = -0.00000
