  ==> Input File <==

--------------------------------------------------------------------------
set {
	reference rhf
	basis 6-31G*
}

set_num_threads( 1 )
memory 2 gb

molecule MOL {
0 1

O	 0.008339	 -0.256255	 0.172268
C	 1.122059	 0.121804	 -0.000188
C	 1.535808	 1.552498	 -0.244771
O	 2.172624	 -0.688929	 0.000216
C	 0.363843	 2.529080	 -0.255959
H	 2.260667	 1.816182	 0.520608
H	 2.077978	 1.577313	 -1.186148
C	 0.810466	 3.970407	 -0.505904
H	 -0.164083	 2.466220	 0.690534
H	 -0.347317	 2.226700	 -1.018403
C	 -0.357691	 4.955401	 -0.519990
H	 1.523469	 4.268034	 0.260334
H	 1.341102	 4.027220	 -1.454201
H	 -0.888118	 4.947185	 0.427762
H	 -0.013979	 5.969409	 -0.698668
H	 -1.071455	 4.705019	 -1.299407
C	 3.452279	 -0.082609	 0.000533
H	 3.583069	 0.529321	 -0.880332
H	 4.163299	 -0.894027	 0.001117
H	 3.582335	 0.529955	 0.881077

	symmetry c1
}
set optking {
	frozen_dihedral = ("
		9 5 8 12,
		1 2 3 6,
		9 5 3 6
	")
}

ee = energy('scf')
oeprop('DIPOLE', 'QUADRUPOLE', 'MULLIKEN_CHARGES')
f=open( 'psi4out.xyz', 'w' )
f.write( "20  " )
f.write( str(ee) + "\n" )
f.write( MOL.save_string_xyz() )
f.close()
--------------------------------------------------------------------------

    Molecular point group: c1

    Geometry (in Angstrom), charge = 0, multiplicity = 1:

       Center              X                  Y                   Z               Mass
    ------------   -----------------  -----------------  -----------------  -----------------
           O         -1.147533751845    -1.753976394464     0.338885637921    15.994914619560
           C         -0.033813751845    -1.375917394464     0.166429637921    12.000000000000
           C          0.379935248155     0.054776605536    -0.078153362079    12.000000000000
           O          1.016751248155    -2.186650394464     0.166833637921    15.994914619560
           C         -0.792029751845     1.031358605536    -0.089341362079    12.000000000000
           H          1.104794248155     0.318460605536     0.687225637921     1.007825032070
           H          0.922105248155     0.079591605536    -1.019530362079     1.007825032070
           C         -0.345406751845     2.472685605536    -0.339286362079    12.000000000000
           H         -1.319955751845     0.968498605536     0.857151637921     1.007825032070
           H         -1.503189751845     0.728978605536    -0.851785362079     1.007825032070
           C         -1.513563751845     3.457679605536    -0.353372362079    12.000000000000
           H          0.367596248155     2.770312605536     0.426951637921     1.007825032070
           H          0.185229248155     2.529498605536    -1.287583362079     1.007825032070
           H         -2.043990751845     3.449463605536     0.594379637921     1.007825032070
           H         -1.169851751845     4.471687605536    -0.532050362079     1.007825032070
           H         -2.227327751845     3.207297605536    -1.132789362079     1.007825032070
           C          2.296406248155    -1.580330394464     0.167150637921    12.000000000000
           H          2.427196248155    -0.968400394464    -0.713714362079     1.007825032070
           H          3.007426248155    -2.391748394464     0.167734637921     1.007825032070
           H          2.426462248155    -0.967766394464     1.047694637921     1.007825032070

  Charge       = 0
  Multiplicity = 1
  Basis Set: 6-31G*
  Basis Set:

    Orbital Energies (a.u.)
    -----------------------

    Doubly Occupied:

       1A    -20.608358     2A    -20.543197     3A    -11.374900
       4A    -11.297670     5A    -11.242668     6A    -11.224713
       7A    -11.223312     8A    -11.213870     9A     -1.468870
      10A     -1.369044    11A     -1.093116    12A     -1.019474
      13A     -0.989409    14A     -0.908169    15A     -0.813494
      16A     -0.763130    17A     -0.704185    18A     -0.702107
      19A     -0.677222    20A     -0.647838    21A     -0.605445
      22A     -0.590450    23A     -0.584901    24A     -0.559715
      25A     -0.548476    26A     -0.527286    27A     -0.513186
      28A     -0.482025    29A     -0.476895    30A     -0.474507
      31A     -0.449567    32A     -0.428728

  @DF-RHF Final Energy:  -383.91407438305822

   => Energetics <=

    Nuclear Repulsion Energy =            387.0662619981038119
    One-Electron Energy =               -1289.7088456125211451
    Two-Electron Energy =                 518.7285092313580890
    DFT Exchange-Correlation Energy =       0.0000000000000000
    Empirical Dispersion Energy =           0.0000000000000000
    PCM Polarization Energy =               0.0000000000000000
    EFP Energy =                            0.0000000000000000
    Total Energy =                       -383.9140743830593010

  Mulliken Charges: (a.u.)
   Center  Symbol    Alpha    Beta     Spin     Total
       1     O     4.27342  4.27342  0.00000 -0.54684
       2     C     2.58727  2.58727  0.00000  0.82545
       3     C     3.24829  3.24829  0.00000 -0.49657
       4     O     4.30095  4.30095  0.00000 -0.60190
       5     C     3.14523  3.14523  0.00000 -0.29047
       6     H     0.40356  0.40356  0.00000  0.19288
       7     H     0.40059  0.40059  0.00000  0.19881
       8     C     3.15417  3.15417  0.00000 -0.30835
       9     H     0.41030  0.41030  0.00000  0.17940
      10     H     0.40982  0.40982  0.00000  0.18036
      11     C     3.23957  3.23957  0.00000 -0.47915
      12     H     0.42440  0.42440  0.00000  0.15119
      13     H     0.42408  0.42408  0.00000  0.15184
      14     H     0.41922  0.41922  0.00000  0.16155
      15     H     0.41853  0.41853  0.00000  0.16294
      16     H     0.41905  0.41905  0.00000  0.16189
      17     C     3.10074  3.10074  0.00000 -0.20149
      18     H     0.41423  0.41423  0.00000  0.17154
      19     H     0.39448  0.39448  0.00000  0.21104
      20     H     0.41208  0.41208  0.00000  0.17584

   Total alpha = 32.00000, Total beta = 32.00000, Total charge = -0.00000
