  ==> Input File <==

--------------------------------------------------------------------------
set {
	reference rhf
	basis cc-pvtz
}

set_num_threads( 4 )
memory 2 gb

molecule MOL {
0 1

O	 0.395927	 1.296676	 -0.000076
C	 0.503051	 0.114301	 -0.000074
C	 -0.701422	 -0.805636	 -0.000109
C	 1.858118	 -0.556123	 0.000212
C	 -1.773461	 -0.423332	 -1.008403
H	 -0.342333	 -1.815640	 -0.180063
H	 -1.104818	 -0.817415	 1.009135
H	 -1.379896	 -0.434330	 -2.015982
H	 -2.603083	 -1.118271	 -0.957009
H	 -2.149154	 0.572742	 -0.816253
H	 1.961106	 -1.191101	 -0.872843
H	 2.636688	 0.191085	 -0.000109
H	 1.961070	 -1.190284	 0.873873

	symmetry c1
}
set optking {
	frozen_dihedral = ("
		6 3 2 1
	")
}

ee = optimize('scf')
oeprop('DIPOLE', 'QUADRUPOLE', 'MULLIKEN_CHARGES')
f=open( 'psi4out.xyz', 'w' )
f.write( "13  " )
f.write( str(ee) + "\n" )
f.write( MOL.save_string_xyz() )
f.close()
--------------------------------------------------------------------------

    Molecular point group: c1
  Charge       = 0
  Multiplicity = 1
  Basis Set: CC-PVTZ
  Basis Set:
  @DF-RHF Final Energy:  -231.08126560682524
    Total Energy =                       -231.0812656068251556
    Molecular point group: c1
  Basis Set: CC-PVTZ
  Basis Set:
  Basis Set: CC-PVTZ
  Basis Set:
  @DF-RHF Final Energy:  -231.08112602700956
    Total Energy =                       -231.0811260270094181
  Basis Set: CC-PVTZ
  Basis Set:
  Basis Set: CC-PVTZ
  Basis Set:
  @DF-RHF Final Energy:  -231.08115589395828
    Total Energy =                       -231.0811558939581687
  Basis Set: CC-PVTZ
  Basis Set:
  Basis Set: CC-PVTZ
  Basis Set:
  @DF-RHF Final Energy:  -231.08184968566573
    Total Energy =                       -231.0818496856658442
  Basis Set: CC-PVTZ
  Basis Set:
  Basis Set: CC-PVTZ
  Basis Set:
  @DF-RHF Final Energy:  -231.08185279468876
    Total Energy =                       -231.0818527946888139
  Basis Set: CC-PVTZ
  Basis Set:
  Charge       = 0
  Multiplicity = 1
  Basis Set: CC-PVTZ
  Basis Set:

    Orbital Energies (a.u.)
    -----------------------

    Doubly Occupied:

       1A    -20.538274     2A    -11.321454     3A    -11.232576
       4A    -11.228315     5A    -11.217427     6A     -1.399093
       7A     -1.062638     8A     -1.001649     9A     -0.880187
      10A     -0.732505    11A     -0.659637    12A     -0.644480
      13A     -0.616033    14A     -0.588334    15A     -0.572530
      16A     -0.531321    17A     -0.521998    18A     -0.504987
      19A     -0.483068    20A     -0.402984

  @DF-RHF Final Energy:  -231.08185322214567

   => Energetics <=

    Nuclear Repulsion Energy =            177.1641085202951729
    One-Electron Energy =                -664.2129397730811888
    Two-Electron Energy =                 255.9669780306403766
    DFT Exchange-Correlation Energy =       0.0000000000000000
    Empirical Dispersion Energy =           0.0000000000000000
    PCM Polarization Energy =               0.0000000000000000
    EFP Energy =                            0.0000000000000000
    Total Energy =                       -231.0818532221456678
    Molecular point group: c1
  Basis Set: CC-PVTZ
  Basis Set:

  -Total Gradient:
     Atom            X                  Y                   Z
    ------   -----------------  -----------------  -----------------
       1        0.000015638155     0.000027699205     0.001523153776
       2        0.000049861317    -0.000104107103    -0.001706952996
       3       -0.000220303356     0.000256440767    -0.001279179389
       4       -0.000011614174     0.000018571036    -0.000087287980
       5       -0.000016599957     0.000010832609    -0.000017463257
       6        0.000176692263    -0.000188257536     0.001507647847
       7        0.000008467586     0.000003890926     0.000002144462
       8        0.000003418915    -0.000004832114     0.000005639110
       9       -0.000005629342    -0.000007686917    -0.000006197967
      10        0.000013095017    -0.000013017934     0.000011578103
      11        0.000003043464    -0.000006337651     0.000023654375
      12        0.000000440178    -0.000000713527     0.000006623733
      13       -0.000016510063     0.000007518240     0.000016640182

  **** Optimization is complete! (in 6 steps) ****
    Final optimized geometry and variables:
    Molecular point group: c1

    Geometry (in Angstrom), charge = 0, multiplicity = 1:

    O            0.316766668974     1.356065156187     0.184866269591
    C            0.454685560390     0.176591938659     0.192511837229
    C           -0.745230758746    -0.755354308543     0.203502761521
    C            1.821305273094    -0.461459699808     0.232688672877
    C           -1.832872594949    -0.338848921061    -0.781153756267
    H           -0.427474714991    -1.777140596033     0.032807947358
    H           -1.135951937188    -0.723100690814     1.217407275664
    H           -1.475641796850    -0.393448969042    -1.803235671166
    H           -2.693546752394    -0.990305709499    -0.692915585201
    H           -2.147091843549     0.677270573176    -0.591119858614
    H            1.971898133462    -1.057099543054    -0.661804966876
    H            2.585600144499     0.297358279111     0.299671618092
    H            1.892093879839    -1.134909415212     1.080429191536

  Mulliken Charges: (a.u.)
   Center  Symbol    Alpha    Beta     Spin     Total
       1     O     4.17429  4.17429  0.00000 -0.34858
       2     C     2.85702  2.85702  0.00000  0.28597
       3     C     3.09949  3.09949  0.00000 -0.19897
       4     C     3.15176  3.15176  0.00000 -0.30353
       5     C     3.14418  3.14418  0.00000 -0.28836
       6     H     0.44725  0.44725  0.00000  0.10549
       7     H     0.44507  0.44507  0.00000  0.10987
       8     H     0.45483  0.45483  0.00000  0.09033
       9     H     0.44929  0.44929  0.00000  0.10142
      10     H     0.44018  0.44018  0.00000  0.11964
      11     H     0.44993  0.44993  0.00000  0.10013
      12     H     0.43650  0.43650  0.00000  0.12700
      13     H     0.45020  0.45020  0.00000  0.09959

   Total alpha = 20.00000, Total beta = 20.00000, Total charge =  0.00000
