  ==> Input File <==

--------------------------------------------------------------------------
set {
	reference rhf
	basis 6-31G*
}

set_num_threads( 1 )
memory 2 gb

molecule MOL {
0 1

H	 -2.653334	 1.905510	 -0.940715
C	 -1.910779	 1.293682	 -0.466437
C	 -2.076860	 -0.007332	 -0.404944
H	 -1.042577	 1.769489	 -0.050812
O	 -1.180634	 -0.819263	 0.215062
H	 -2.935525	 -0.503902	 -0.821247
C	 0.051604	 -1.018856	 -0.387932
C	 1.043764	 0.054862	 -0.001873
H	 -0.017620	 -1.041351	 -1.469781
H	 0.437898	 -1.966374	 -0.042284
F	 2.212596	 -0.199467	 -0.571921
F	 0.652529	 1.252447	 -0.405055
F	 1.230877	 0.110694	 1.300533

	symmetry c1
}
set optking {
	frozen_dihedral = ("
		11 8 7 9,
		3 5 7 9,
		6 3 2 1
	")
}

ee = energy('scf')
oeprop('DIPOLE', 'QUADRUPOLE', 'MULLIKEN_CHARGES')
f=open( 'psi4out.xyz', 'w' )
f.write( "13  " )
f.write( str(ee) + "\n" )
f.write( MOL.save_string_xyz() )
f.close()
--------------------------------------------------------------------------

    Molecular point group: c1

    Geometry (in Angstrom), charge = 0, multiplicity = 1:

       Center              X                  Y                   Z               Mass
    ------------   -----------------  -----------------  -----------------  -----------------
           H         -2.795890947240     1.802067119993    -0.870111363696     1.007825032070
           C         -2.053335947240     1.190239119993    -0.395833363696    12.000000000000
           C         -2.219416947240    -0.110774880007    -0.334340363696    12.000000000000
           H         -1.185133947240     1.666046119993     0.019791636304     1.007825032070
           O         -1.323190947240    -0.922705880007     0.285665636304    15.994914619560
           H         -3.078081947240    -0.607344880007    -0.750643363696     1.007825032070
           C         -0.090952947240    -1.122298880007    -0.317328363696    12.000000000000
           C          0.901207052760    -0.048580880007     0.068730636304    12.000000000000
           H         -0.160176947240    -1.144793880007    -1.399177363696     1.007825032070
           H          0.295341052760    -2.069816880007     0.028319636304     1.007825032070
           F          2.070039052760    -0.302909880007    -0.501317363696    18.998403224000
           F          0.509972052760     1.149004119993    -0.334451363696    18.998403224000
           F          1.088320052760     0.007251119993     1.371136636304    18.998403224000

  Charge       = 0
  Multiplicity = 1
  Basis Set: 6-31G*
  Basis Set:

    Orbital Energies (a.u.)
    -----------------------

    Doubly Occupied:

       1A    -26.345707     2A    -26.343949     3A    -26.341296
       4A    -20.595080     5A    -11.502605     6A    -11.313799
       7A    -11.287883     8A    -11.215615     9A     -1.743834
      10A     -1.643803    11A     -1.638976    12A     -1.429189
      13A     -1.077549    14A     -1.016570    15A     -0.933654
      16A     -0.839951    17A     -0.833621    18A     -0.812283
      19A     -0.782949    20A     -0.727259    21A     -0.714724
      22A     -0.692153    23A     -0.670030    24A     -0.664075
      25A     -0.657680    26A     -0.644234    27A     -0.642377
      28A     -0.593725    29A     -0.549603    30A     -0.521352
      31A     -0.464894    32A     -0.366963

  @DF-RHF Final Energy:  -527.51732730366507

   => Energetics <=

    Nuclear Repulsion Energy =            425.4081114846329115
    One-Electron Energy =               -1574.6360539794923170
    Two-Electron Energy =                 621.7106151911941652
    DFT Exchange-Correlation Energy =       0.0000000000000000
    Empirical Dispersion Energy =           0.0000000000000000
    PCM Polarization Energy =               0.0000000000000000
    EFP Energy =                            0.0000000000000000
    Total Energy =                       -527.5173273036652972

  Mulliken Charges: (a.u.)
   Center  Symbol    Alpha    Beta     Spin     Total
       1     H     0.40923  0.40923  0.00000  0.18153
       2     C     3.22194  3.22194  0.00000 -0.44389
       3     C     2.92677  2.92677  0.00000  0.14647
       4     H     0.38328  0.38328  0.00000  0.23345
       5     O     4.30757  4.30757  0.00000 -0.61515
       6     H     0.40529  0.40529  0.00000  0.18942
       7     C     3.05196  3.05196  0.00000 -0.10392
       8     C     2.45744  2.45744  0.00000  1.08512
       9     H     0.40548  0.40548  0.00000  0.18904
      10     H     0.39434  0.39434  0.00000  0.21132
      11     F     4.68252  4.68252  0.00000 -0.36504
      12     F     4.67870  4.67870  0.00000 -0.35739
      13     F     4.67548  4.67548  0.00000 -0.35097

   Total alpha = 32.00000, Total beta = 32.00000, Total charge = -0.00000
