                              Psi4 1.0.54 Driver

  ==> Input File <==

--------------------------------------------------------------------------
set {
	reference rhf
	basis cc-pvtz
}

set_num_threads( 4 )
memory 2 gb

molecule MOL {
0 1

H	 -2.698799	 -0.000846	 0.036018
C	 -1.694291	 -0.000483	 0.434279
O	 -0.828718	 -0.000608	 -0.655022
H	 -1.576855	 0.881100	 1.056504
H	 -1.576401	 -0.881658	 1.057001
C	 0.557892	 0.000078	 -0.420099
C	 1.200260	 -1.353553	 -0.701735
C	 1.272688	 1.140327	 -1.136443
H	 0.628361	 0.183648	 0.644774
H	 0.646303	 -2.143408	 -0.209476
H	 2.216088	 -1.363946	 -0.323937
H	 1.244246	 -1.573770	 -1.761995
H	 0.769019	 2.079975	 -0.945595
H	 2.291199	 1.220541	 -0.774538
H	 1.318495	 0.986330	 -2.208230

	symmetry c1
}
set optking {
	frozen_dihedral = ("
		9 6 3 2
	")
}

ee,wfn = optimize('scf', return_wfn=True)
oeprop( wfn, 'DIPOLE', 'QUADRUPOLE', 'MULLIKEN_CHARGES')
f=open( 'psi4out.xyz', 'w' )
f.write( "15  " )
f.write( str(ee) + "\n" )
f.write( MOL.save_string_xyz() )
f.close()
--------------------------------------------------------------------------

    Molecular point group: c1
  Charge       = 0
  Multiplicity = 1
  Basis Set: CC-PVTZ
  Basis Set:
  @DF-RHF Final Energy:  -232.22513134762482
    Total Energy =                       -232.2251313476248242
    Molecular point group: c1
  Basis Set: CC-PVTZ
  Basis Set:
  Basis Set: CC-PVTZ
  Basis Set:
  @DF-RHF Final Energy:  -232.22828640935137
    Total Energy =                       -232.2282864093513695
  Basis Set: CC-PVTZ
  Basis Set:
  Basis Set: CC-PVTZ
  Basis Set:
  @DF-RHF Final Energy:  -232.22890967646524
    Total Energy =                       -232.2289096764653777
  Basis Set: CC-PVTZ
  Basis Set:
  Basis Set: CC-PVTZ
  Basis Set:
  @DF-RHF Final Energy:  -232.22893236510885
    Total Energy =                       -232.2289323651089603
  Basis Set: CC-PVTZ
  Basis Set:
  Charge       = 0
  Multiplicity = 1
  Basis Set: CC-PVTZ
  Basis Set:

    Orbital Energies (a.u.)
    -----------------------

    Doubly Occupied:

       1A    -20.542218     2A    -11.272442     3A    -11.262193
       4A    -11.205676     5A    -11.205271     6A     -1.376702
       7A     -1.053641     8A     -0.936986     9A     -0.918684
      10A     -0.795961    11A     -0.670429    12A     -0.643881
      13A     -0.636849    14A     -0.580409    15A     -0.553904
      16A     -0.540685    17A     -0.537308    18A     -0.497729
      19A     -0.488202    20A     -0.458778    21A     -0.407245

  @DF-RHF Final Energy:  -232.22893469498572

   => Energetics <=

    Nuclear Repulsion Energy =            197.0721737122552497
    One-Electron Energy =                -705.4318288116016902
    Two-Electron Energy =                 276.1307204043605452
    DFT Exchange-Correlation Energy =       0.0000000000000000
    Empirical Dispersion Energy =           0.0000000000000000
    PCM Polarization Energy =               0.0000000000000000
    EFP Energy =                            0.0000000000000000
    Total Energy =                       -232.2289346949859237
    Molecular point group: c1
  Basis Set: CC-PVTZ
  Basis Set:

  -Total Gradient:
     Atom            X                  Y                   Z
    ------   -----------------  -----------------  -----------------
       1        0.000004421772    -0.000001001570    -0.000003568459
       2       -0.000095400439     0.000844547752    -0.000019968293
       3       -0.000002523730    -0.001448536556     0.000177329212
       4        0.000015468114     0.000002374755    -0.000024361851
       5        0.000012485768    -0.000004500611    -0.000013682378
       6       -0.000099972327     0.001622917610    -0.000310906341
       7        0.000123581105     0.000013502664    -0.000014231407
       8        0.000099461331    -0.000032272583    -0.000002363790
       9       -0.000004532490    -0.001006984355     0.000198041628
      10       -0.000014417928     0.000017151869     0.000012866582
      11       -0.000003037277    -0.000029864947    -0.000005300512
      12       -0.000008157638     0.000006130038    -0.000003825429
      13       -0.000013467232     0.000004859472     0.000010553511
      14       -0.000008816219     0.000022514090    -0.000010426139
      15       -0.000005092812    -0.000010837627     0.000009843665

  **** Optimization is complete! (in 5 steps) ****
    Final optimized geometry and variables:
    Molecular point group: c1

    Geometry (in Angstrom), charge = 0, multiplicity = 1:

    H           -2.777495955561     0.056400451059     0.393241720112
    C           -1.785722271531     0.083113277828     0.821801179814
    O           -0.872531440074     0.043050545137    -0.224052415531
    H           -1.685629419965     0.994202129756     1.407280154938
    H           -1.676482102546    -0.768367415259     1.489945477705
    C            0.487607427971     0.050830033249     0.135868891959
    C            1.087371939215    -1.323048367788    -0.125743758704
    C            1.187452125376     1.147739913353    -0.648081023575
    H            0.574782672781     0.266357935553     1.198224340723
    H            0.561764381779    -2.083834645348     0.439144531868
    H            2.133445353715    -1.350866345108     0.158707480276
    H            1.009487161237    -1.570694009306    -1.177871330332
    H            0.747920638539     2.112543381617    -0.426621246200
    H            2.242988036568     1.185935626469    -0.403183474219
    H            1.087416999285     0.967607173677    -1.712007595857

  Mulliken Charges: (a.u.)
   Center  Symbol    Alpha    Beta     Spin     Total
       1     H     0.44943  0.44943  0.00000  0.10115
       2     C     3.03355  3.03355  0.00000 -0.06709
       3     O     4.18821  4.18821  0.00000 -0.37641
       4     H     0.46999  0.46999  0.00000  0.06003
       5     H     0.47127  0.47127  0.00000  0.05746
       6     C     2.92076  2.92076  0.00000  0.15848
       7     C     3.13909  3.13909  0.00000 -0.27818
       8     C     3.13837  3.13837  0.00000 -0.27673
       9     H     0.46847  0.46847  0.00000  0.06307
      10     H     0.45131  0.45131  0.00000  0.09739
      11     H     0.45628  0.45628  0.00000  0.08744
      12     H     0.45273  0.45273  0.00000  0.09455
      13     H     0.45025  0.45025  0.00000  0.09949
      14     H     0.45798  0.45798  0.00000  0.08403
      15     H     0.45234  0.45234  0.00000  0.09533

   Total alpha = 21.00000, Total beta = 21.00000, Total charge = -0.00000

*** Psi4 exiting successfully. Buy a developer a beer!
