  ==> Input File <==

--------------------------------------------------------------------------
set {
	reference rhf
	basis 6-31G*
}

set_num_threads( 1 )
memory 2 gb

molecule MOL {
0 1

O	 -1.426348	 2.196658	 -1.956250
C	 -1.593982	 1.271659	 -1.220920
C	 -0.653105	 0.079770	 -1.242257
C	 -2.723141	 1.251636	 -0.214951
C	 0.645510	 0.392942	 -0.481558
H	 -0.421512	 -0.137865	 -2.279226
H	 -1.133731	 -0.794384	 -0.812280
C	 1.631333	 -0.777471	 -0.511575
H	 1.090277	 1.278147	 -0.921987
H	 0.413531	 0.639402	 0.553425
C	 2.915987	 -0.544314	 0.291766
H	 1.889634	 -1.001481	 -1.544931
H	 1.135138	 -1.664038	 -0.122167
C	 3.373361	 0.914346	 0.347591
H	 3.708709	 -1.142521	 -0.150311
H	 2.780642	 -0.921148	 1.303579
H	 3.506512	 1.320010	 -0.651625
H	 4.322697	 0.999599	 0.867103
H	 2.660624	 1.545032	 0.868198
H	 -3.428905	 0.466613	 -0.473605
H	 -3.232499	 2.205220	 -0.211043
H	 -2.347856	 1.029542	 0.779856

	symmetry c1
}
set optking {
	frozen_dihedral = ("
		6 3 2 1,
		6 3 5 8,
		3 5 8 12
	")
}

ee = energy('scf')
oeprop('DIPOLE', 'QUADRUPOLE', 'MULLIKEN_CHARGES')
f=open( 'psi4out.xyz', 'w' )
f.write( "22  " )
f.write( str(ee) + "\n" )
f.write( MOL.save_string_xyz() )
f.close()
--------------------------------------------------------------------------

    Molecular point group: c1

    Geometry (in Angstrom), charge = 0, multiplicity = 1:

       Center              X                  Y                   Z               Mass
    ------------   -----------------  -----------------  -----------------  -----------------
           O         -1.701237627427     1.582745044092    -1.338484650008    15.994914619560
           C         -1.868871627427     0.657746044092    -0.603154650008    12.000000000000
           C         -0.927994627427    -0.534142955908    -0.624491650008    12.000000000000
           C         -2.998030627427     0.637723044092     0.402814349992    12.000000000000
           C          0.370620372573    -0.220970955908     0.136207349992    12.000000000000
           H         -0.696401627427    -0.751777955908    -1.661460650008     1.007825032070
           H         -1.408620627427    -1.408296955908    -0.194514650008     1.007825032070
           C          1.356443372573    -1.391383955908     0.106190349992    12.000000000000
           H          0.815387372573     0.664234044092    -0.304221650008     1.007825032070
           H          0.138641372573     0.025489044092     1.171190349992     1.007825032070
           C          2.641097372573    -1.158226955908     0.909531349992    12.000000000000
           H          1.614744372573    -1.615393955908    -0.927165650008     1.007825032070
           H          0.860248372573    -2.277950955908     0.495598349992     1.007825032070
           C          3.098471372573     0.300433044092     0.965356349992    12.000000000000
           H          3.433819372573    -1.756433955908     0.467454349992     1.007825032070
           H          2.505752372573    -1.535060955908     1.921344349992     1.007825032070
           H          3.231622372573     0.706097044092    -0.033859650008     1.007825032070
           H          4.047807372573     0.385686044092     1.484868349992     1.007825032070
           H          2.385734372573     0.931119044092     1.485963349992     1.007825032070
           H         -3.703794627427    -0.147299955908     0.144160349992     1.007825032070
           H         -3.507388627427     1.591307044092     0.406722349992     1.007825032070
           H         -2.622745627427     0.415629044092     1.397621349992     1.007825032070

  Charge       = 0
  Multiplicity = 1
  Basis Set: 6-31G*
  Basis Set:

    Orbital Energies (a.u.)
    -----------------------

    Doubly Occupied:

       1A    -20.547151     2A    -11.324265     3A    -11.229125
       4A    -11.228530     5A    -11.228084     6A    -11.221657
       7A    -11.219879     8A    -11.211064     9A     -1.392899
      10A     -1.096422    11A     -1.043691    12A     -0.998329
      13A     -0.936653    14A     -0.863935    15A     -0.778793
      16A     -0.733106    17A     -0.664873    18A     -0.644703
      19A     -0.629376    20A     -0.618738    21A     -0.592805
      22A     -0.585855    23A     -0.561695    24A     -0.538011
      25A     -0.535296    26A     -0.524899    27A     -0.497536
      28A     -0.487945    29A     -0.467309    30A     -0.463450
      31A     -0.457289    32A     -0.396033

  @DF-RHF Final Energy:  -348.09352987850519

   => Energetics <=

    Nuclear Repulsion Energy =            375.4115748712878826
    One-Electron Energy =               -1215.5714193029402850
    Two-Electron Energy =                 492.0663145531462987
    DFT Exchange-Correlation Energy =       0.0000000000000000
    Empirical Dispersion Energy =           0.0000000000000000
    PCM Polarization Energy =               0.0000000000000000
    EFP Energy =                            0.0000000000000000
    Total Energy =                       -348.0935298785060468

  Mulliken Charges: (a.u.)
   Center  Symbol    Alpha    Beta     Spin     Total
       1     O     4.26255  4.26255  0.00000 -0.52509
       2     C     2.73719  2.73719  0.00000  0.52561
       3     C     3.19883  3.19883  0.00000 -0.39766
       4     C     3.28952  3.28952  0.00000 -0.57904
       5     C     3.16702  3.16702  0.00000 -0.33404
       6     H     0.40141  0.40141  0.00000  0.19719
       7     H     0.41723  0.41723  0.00000  0.16554
       8     C     3.15322  3.15322  0.00000 -0.30645
       9     H     0.40214  0.40214  0.00000  0.19573
      10     H     0.42112  0.42112  0.00000  0.15777
      11     C     3.15333  3.15333  0.00000 -0.30666
      12     H     0.41952  0.41952  0.00000  0.16096
      13     H     0.42127  0.42127  0.00000  0.15745
      14     C     3.24572  3.24572  0.00000 -0.49145
      15     H     0.41888  0.41888  0.00000  0.16223
      16     H     0.42173  0.42173  0.00000  0.15654
      17     H     0.41931  0.41931  0.00000  0.16137
      18     H     0.41766  0.41766  0.00000  0.16467
      19     H     0.41851  0.41851  0.00000  0.16298
      20     H     0.40692  0.40692  0.00000  0.18615
      21     H     0.39713  0.39713  0.00000  0.20573
      22     H     0.40977  0.40977  0.00000  0.18045

   Total alpha = 32.00000, Total beta = 32.00000, Total charge =  0.00000
