                              Psi4 1.0.54 Driver

  ==> Input File <==

--------------------------------------------------------------------------
set {
	reference rhf
	basis cc-pvtz
}

set_num_threads( 4 )
memory 2 gb

molecule MOL {
0 1

H	 -3.778736	 0.075282	 2.274903
O	 -3.065329	 -0.475067	 2.009644
C	 -2.073984	 0.290547	 1.377593
C	 -0.943197	 -0.630140	 0.965552
H	 -2.480920	 0.792371	 0.502179
H	 -1.699384	 1.058861	 2.050793
C	 0.196029	 0.106276	 0.266738
H	 -1.345906	 -1.398237	 0.312810
H	 -0.572477	 -1.136790	 1.850871
C	 1.330220	 -0.826136	 -0.155230
H	 -0.196258	 0.627349	 -0.601195
H	 0.593551	 0.871681	 0.929846
C	 2.719700	 -0.407669	 0.328325
H	 1.339388	 -0.911200	 -1.239363
H	 1.119001	 -1.821953	 0.224128
C	 3.241564	 0.893452	 -0.276737
H	 3.418299	 -1.204729	 0.093035
H	 2.711776	 -0.323368	 1.411960
H	 3.254204	 0.841071	 -1.360784
H	 2.634460	 1.745075	 0.005842
H	 4.254264	 1.092401	 0.054971

	symmetry c1
}
set optking {
	frozen_dihedral = ("
		4 7 10 14
	")
}

ee,wfn = optimize('scf', return_wfn=True)
oeprop( wfn, 'DIPOLE', 'QUADRUPOLE', 'MULLIKEN_CHARGES')
f=open( 'psi4out.xyz', 'w' )
f.write( "21  " )
f.write( str(ee) + "\n" )
f.write( MOL.save_string_xyz() )
f.close()
--------------------------------------------------------------------------

    Molecular point group: c1
  Charge       = 0
  Multiplicity = 1
  Basis Set: CC-PVTZ
  Basis Set:
  @DF-RHF Final Energy:  -310.32798305861360
    Total Energy =                       -310.3279830586138814
    Molecular point group: c1
  Basis Set: CC-PVTZ
  Basis Set:
  Basis Set: CC-PVTZ
  Basis Set:
  @DF-RHF Final Energy:  -310.32829932897124
    Total Energy =                       -310.3282993289713545
  Basis Set: CC-PVTZ
  Basis Set:
  Basis Set: CC-PVTZ
  Basis Set:
  @DF-RHF Final Energy:  -310.32836857529622
    Total Energy =                       -310.3283685752955989
  Basis Set: CC-PVTZ
  Basis Set:
  Basis Set: CC-PVTZ
  Basis Set:
  @DF-RHF Final Energy:  -310.32835427232180
    Total Energy =                       -310.3283542723220307
  Basis Set: CC-PVTZ
  Basis Set:
  Basis Set: CC-PVTZ
  Basis Set:
  @DF-RHF Final Energy:  -310.32838108581143
    Total Energy =                       -310.3283810858112588
  Basis Set: CC-PVTZ
  Basis Set:
  Charge       = 0
  Multiplicity = 1
  Basis Set: CC-PVTZ
  Basis Set:

    Orbital Energies (a.u.)
    -----------------------

    Doubly Occupied:

       1A    -20.545478     2A    -11.264862     3A    -11.213355
       4A    -11.213039     5A    -11.211012     6A    -11.209477
       7A    -11.206013     8A     -1.363304     9A     -1.086003
      10A     -1.034445    11A     -0.953692    12A     -0.876382
      13A     -0.810268    14A     -0.778227    15A     -0.695886
      16A     -0.660497    17A     -0.626892    18A     -0.606566
      19A     -0.582523    20A     -0.575346    21A     -0.539427
      22A     -0.523000    23A     -0.505794    24A     -0.490061
      25A     -0.482103    26A     -0.456961    27A     -0.453927
      28A     -0.444206    29A     -0.437695

  @DF-RHF Final Energy:  -310.32838120726518

   => Energetics <=

    Nuclear Repulsion Energy =            313.3136238801424156
    One-Electron Energy =               -1041.5911252501875879
    Two-Electron Energy =                 417.9491201627799342
    DFT Exchange-Correlation Energy =       0.0000000000000000
    Empirical Dispersion Energy =           0.0000000000000000
    PCM Polarization Energy =               0.0000000000000000
    EFP Energy =                            0.0000000000000000
    Total Energy =                       -310.3283812072652950
    Molecular point group: c1
  Basis Set: CC-PVTZ
  Basis Set:

  -Total Gradient:
     Atom            X                  Y                   Z
    ------   -----------------  -----------------  -----------------
       1        0.000001009205     0.000000607514     0.000000753711
       2       -0.000004028692    -0.000003860940    -0.000000248902
       3        0.000004987664     0.000004678467     0.000000302377
       4        0.000753368815     0.000218906472     0.001463791309
       5       -0.000000430875    -0.000002279049    -0.000000100359
       6        0.000001540477     0.000000475475    -0.000001006023
       7       -0.000700219546     0.000109189647    -0.002063807637
       8       -0.000001612521     0.000003013233     0.000000100027
       9        0.000001312164    -0.000001062130    -0.000001282883
      10       -0.001471465234    -0.002111125546     0.000724284606
      11       -0.000002407830    -0.000004876155    -0.000003676884
      12        0.000003678964    -0.000003168929    -0.000000571552
      13       -0.000002898542    -0.000010577827    -0.000015840671
      14        0.001423864582     0.001794888182    -0.000103423198
      15       -0.000004957690    -0.000003548633     0.000003620145
      16       -0.000001492257     0.000018150184     0.000002053434
      17       -0.000002362444    -0.000007447459     0.000000448618
      18       -0.000002334427     0.000002519745    -0.000005768237
      19        0.000003963992    -0.000003782737     0.000000296931
      20        0.000004722467     0.000000931088    -0.000005094834
      21       -0.000004238269    -0.000001630600     0.000005170022

  **** Optimization is complete! (in 6 steps) ****
    Final optimized geometry and variables:
    Molecular point group: c1

    Geometry (in Angstrom), charge = 0, multiplicity = 1:

    H           -3.910442059474     0.211409502873     1.632561280950
    O           -3.200107485900    -0.339610353537     1.360707207629
    C           -2.208806470802     0.426510195815     0.729176032620
    C           -1.083541415643    -0.495102006887     0.305482066346
    H           -2.617691024663     0.935813702292    -0.141012587254
    H           -1.828145557695     1.189013524371     1.405711111123
    C            0.060075647051     0.241991279252    -0.386768059293
    H           -1.491052151196    -1.256448191289    -0.352457160039
    H           -0.709806793506    -1.011032928540     1.184271912948
    C            1.203674877550    -0.695045137267    -0.827735289648
    H           -0.325782405402     0.789572586952    -1.240623993428
    H            0.448510262650     0.991366105065     0.296904296934
    C            2.594227299147    -0.254642929647    -0.365203780061
    H            1.218386356857    -0.771394585881    -1.910804796308
    H            1.015354916510    -1.694327819461    -0.450947100827
    C            3.083973094870     1.036040286787    -1.016394192466
    H            3.302923803073    -1.047524183126    -0.584493074591
    H            2.592498164130    -0.138533557258     0.715571712367
    H            3.139766881001     0.927833286032    -2.094824237023
    H            2.425496300860     1.870478597581    -0.803686545207
    H            4.072813301295     1.300817870244    -0.659744695959

  Mulliken Charges: (a.u.)
   Center  Symbol    Alpha    Beta     Spin     Total
       1     H     0.39745  0.39745  0.00000  0.20510
       2     O     4.19449  4.19449  0.00000 -0.38898
       3     C     2.96376  2.96376  0.00000  0.07248
       4     C     3.08442  3.08442  0.00000 -0.16885
       5     H     0.47495  0.47495  0.00000  0.05010
       6     H     0.47517  0.47517  0.00000  0.04965
       7     C     3.10879  3.10879  0.00000 -0.21757
       8     H     0.45002  0.45002  0.00000  0.09995
       9     H     0.45094  0.45094  0.00000  0.09812
      10     C     3.09772  3.09772  0.00000 -0.19544
      11     H     0.44918  0.44918  0.00000  0.10164
      12     H     0.45463  0.45463  0.00000  0.09074
      13     C     3.08924  3.08924  0.00000 -0.17848
      14     H     0.45065  0.45065  0.00000  0.09870
      15     H     0.44741  0.44741  0.00000  0.10518
      16     C     3.14982  3.14982  0.00000 -0.29964
      17     H     0.44917  0.44917  0.00000  0.10167
      18     H     0.45511  0.45511  0.00000  0.08979
      19     H     0.45492  0.45492  0.00000  0.09016
      20     H     0.45453  0.45453  0.00000  0.09094
      21     H     0.44763  0.44763  0.00000  0.10474

   Total alpha = 29.00000, Total beta = 29.00000, Total charge = -0.00000

*** Psi4 exiting successfully. Buy a developer a beer!
