  ==> Input File <==

--------------------------------------------------------------------------
set {
	reference rhf
	basis cc-pvtz
}

set_num_threads( 4 )
memory 2 gb

molecule MOL {
0 1

H	 2.333000	 -1.061000	 -0.879000
C	 2.359000	 -0.426000	 0.000000
C	 1.176000	 0.523000	 0.000000
H	 3.293000	 0.128000	 0.000000
H	 2.333000	 -1.061000	 0.879000
O	 0.000000	 -0.230000	 -0.000000
H	 1.207000	 1.169000	 -0.877000
H	 1.207000	 1.169000	 0.877000
C	 -1.176000	 0.523000	 -0.000000
C	 -2.359000	 -0.426000	 0.000000
H	 -1.207000	 1.169000	 -0.877000
H	 -1.207000	 1.169000	 0.877000
H	 -2.333000	 -1.061000	 -0.879000
H	 -3.293000	 0.128000	 -0.000000
H	 -2.333000	 -1.061000	 0.879000

	symmetry c1
}
ee = optimize('scf')
oeprop('DIPOLE', 'QUADRUPOLE', 'MULLIKEN_CHARGES')
f=open( 'psi4out.xyz', 'w' )
f.write( "15  " )
f.write( str(ee) + "\n" )
f.write( MOL.save_string_xyz() )
f.close()
--------------------------------------------------------------------------

    Molecular point group: c1
  Charge       = 0
  Multiplicity = 1
  Basis Set: CC-PVTZ
  Basis Set:
  @DF-RHF Final Energy:  -232.23360162913909
    Total Energy =                       -232.2336016291387750
    Molecular point group: c1
  Basis Set: CC-PVTZ
  Basis Set:
  Basis Set: CC-PVTZ
  Basis Set:
  @DF-RHF Final Energy:  -232.23366143085897
    Total Energy =                       -232.2336614308591152
  Basis Set: CC-PVTZ
  Basis Set:
  Charge       = 0
  Multiplicity = 1
  Basis Set: CC-PVTZ
  Basis Set:

    Orbital Energies (a.u.)
    -----------------------

    Doubly Occupied:

       1A    -20.545577     2A    -11.266174     3A    -11.266150
       4A    -11.207267     5A    -11.207266     6A     -1.381562
       7A     -1.045164     8A     -0.983438     9A     -0.846759
      10A     -0.826810    11A     -0.680202    12A     -0.669350
      13A     -0.606051    14A     -0.601210    15A     -0.549819
      16A     -0.531483    17A     -0.523071    18A     -0.493569
      19A     -0.487562    20A     -0.466829    21A     -0.414279

  @DF-RHF Final Energy:  -232.23366391512147

   => Energetics <=

    Nuclear Repulsion Energy =            191.3095306326295315
    One-Electron Energy =                -693.8872024465010782
    Two-Electron Energy =                 270.3440078987500783
    DFT Exchange-Correlation Energy =       0.0000000000000000
    Empirical Dispersion Energy =           0.0000000000000000
    PCM Polarization Energy =               0.0000000000000000
    EFP Energy =                            0.0000000000000000
    Total Energy =                       -232.2336639151214968
    Molecular point group: c1
  Basis Set: CC-PVTZ
  Basis Set:

  -Total Gradient:
     Atom            X                  Y                   Z
    ------   -----------------  -----------------  -----------------
       1       -0.000002017862    -0.000033615872     0.000030231789
       2        0.000035131785     0.000000000044    -0.000019285140
       3        0.000148169987     0.000000000031     0.000144704444
       4       -0.000063710919    -0.000000000006    -0.000040443475
       5       -0.000002017856     0.000033615813     0.000030231747
       6        0.000000000730    -0.000000000006    -0.000162027261
       7       -0.000017256185    -0.000027979253    -0.000032212928
       8       -0.000017256157     0.000027979229    -0.000032212925
       9       -0.000148169655     0.000000000140     0.000144703860
      10       -0.000035131118    -0.000000000196    -0.000019285106
      11        0.000017255956    -0.000027978922    -0.000032212499
      12        0.000017255913     0.000027978896    -0.000032212571
      13        0.000002017908    -0.000033615345     0.000030231443
      14        0.000063709603    -0.000000000007    -0.000040442876
      15        0.000002017871     0.000033615453     0.000030231498

  **** Optimization is complete! (in 3 steps) ****
    Final optimized geometry and variables:
    Molecular point group: c1

    Geometry (in Angstrom), charge = 0, multiplicity = 1:

    H            2.342729802684     0.877684062594    -1.045694155609
    C            2.360423740208    -0.000000000172    -0.411793111593
    C            1.173748822695    -0.000000000140     0.526869290524
    H            3.286567465207    -0.000000000767     0.151573122931
    H            2.342729802074    -0.877684062549    -1.045694156320
    O            0.000000000349     0.000000000361    -0.223739321460
    H            1.203779108240     0.876756715068     1.172537769081
    H            1.203779108020    -0.876756715748     1.172537768471
    C           -1.173748822649     0.000000000400     0.526869290237
    C           -2.360423740360    -0.000000000390    -0.411793111211
    H           -1.203779108849     0.876756715762     1.172537769279
    H           -1.203779108777    -0.876756714937     1.172537769044
    H           -2.342729802929     0.877684062399    -1.045694156125
    H           -3.286567467744    -0.000000000750     0.151573122957
    H           -2.342729802208    -0.877684063211    -1.045694155848

  Mulliken Charges: (a.u.)
   Center  Symbol    Alpha    Beta     Spin     Total
       1     H     0.45157  0.45157  0.00000  0.09686
       2     C     3.13481  3.13481  0.00000 -0.26961
       3     C     2.96712  2.96712  0.00000  0.06577
       4     H     0.45886  0.45886  0.00000  0.08229
       5     H     0.45157  0.45157  0.00000  0.09686
       6     O     4.17877  4.17877  0.00000 -0.35754
       7     H     0.47335  0.47335  0.00000  0.05330
       8     H     0.47335  0.47335  0.00000  0.05330
       9     C     2.96712  2.96712  0.00000  0.06577
      10     C     3.13481  3.13481  0.00000 -0.26961
      11     H     0.47335  0.47335  0.00000  0.05330
      12     H     0.47335  0.47335  0.00000  0.05330
      13     H     0.45157  0.45157  0.00000  0.09686
      14     H     0.45886  0.45886  0.00000  0.08229
      15     H     0.45157  0.45157  0.00000  0.09686

   Total alpha = 21.00000, Total beta = 21.00000, Total charge =  0.00000
