  ==> Input File <==

--------------------------------------------------------------------------
set {
	reference rhf
	basis 6-31G*
}

set_num_threads( 4 )
memory 2 gb

molecule MOL {
0 1

H	 3.776762	 -0.712319	 0.374726
O	 2.875791	 -0.932746	 0.590178
C	 2.077727	 -0.067559	 -0.035091
C	 0.624473	 -0.343591	 0.253101
O	 2.504473	 0.799723	 -0.725544
C	 -0.265902	 0.883932	 0.072916
H	 0.324016	 -1.163849	 -0.390541
H	 0.565024	 -0.726111	 1.268924
C	 -1.728698	 0.646073	 0.462102
H	 -0.209144	 1.219470	 -0.958188
H	 0.135059	 1.692851	 0.673903
C	 -2.482460	 -0.343073	 -0.431425
H	 -2.245265	 1.602650	 0.432430
H	 -1.779332	 0.308348	 1.496285
C	 -3.960546	 -0.461025	 -0.060175
H	 -2.395034	 -0.026811	 -1.468912
H	 -2.024850	 -1.327147	 -0.371646
H	 -4.472726	 -1.168004	 -0.705284
H	 -4.465146	 0.496508	 -0.151489
H	 -4.081218	 -0.800940	 0.964585

	symmetry c1
}
set optking {
	frozen_dihedral = ("
		5 3 4 7
	")
}

ee = optimize('scf')
oeprop('DIPOLE', 'QUADRUPOLE', 'MULLIKEN_CHARGES')
f=open( 'psi4out.xyz', 'w' )
f.write( "20  " )
f.write( str(ee) + "\n" )
f.write( MOL.save_string_xyz() )
f.close()
--------------------------------------------------------------------------

    Molecular point group: c1
  Charge       = 0
  Multiplicity = 1
  Basis Set: 6-31G*
  Basis Set:
  @DF-RHF Final Energy:  -383.94810699333999
    Total Energy =                       -383.9481069933400477
    Molecular point group: c1
  Basis Set: 6-31G*
  Basis Set:
  Basis Set: 6-31G*
  Basis Set:
  @DF-RHF Final Energy:  -383.94734452460665
    Total Energy =                       -383.9473445246067058
  Basis Set: 6-31G*
  Basis Set:
  Basis Set: 6-31G*
  Basis Set:
  @DF-RHF Final Energy:  -383.94825371344302
    Total Energy =                       -383.9482537134430231
  Basis Set: 6-31G*
  Basis Set:
  Basis Set: 6-31G*
  Basis Set:
  @DF-RHF Final Energy:  -383.94834414571210
    Total Energy =                       -383.9483441457125537
  Basis Set: 6-31G*
  Basis Set:
  Basis Set: 6-31G*
  Basis Set:
  @DF-RHF Final Energy:  -383.94832118971311
    Total Energy =                       -383.9483211897133970
  Basis Set: 6-31G*
  Basis Set:
  Basis Set: 6-31G*
  Basis Set:
  @DF-RHF Final Energy:  -383.94834576838713
    Total Energy =                       -383.9483457683872416
  Basis Set: 6-31G*
  Basis Set:
  Charge       = 0
  Multiplicity = 1
  Basis Set: 6-31G*
  Basis Set:

    Orbital Energies (a.u.)
    -----------------------

    Doubly Occupied:

       1A    -20.613174     2A    -20.550682     3A    -11.381108
       4A    -11.240016     5A    -11.223973     6A    -11.220942
       7A    -11.220313     8A    -11.212488     9A     -1.474721
      10A     -1.365306    11A     -1.096379    12A     -1.040911
      13A     -0.961111    14A     -0.868606    15A     -0.817236
      16A     -0.777524    17A     -0.699924    18A     -0.689825
      19A     -0.662917    20A     -0.634088    21A     -0.605350
      22A     -0.594011    23A     -0.575462    24A     -0.556525
      25A     -0.539182    26A     -0.513625    27A     -0.495668
      28A     -0.480184    29A     -0.470022    30A     -0.467059
      31A     -0.458766    32A     -0.441891

  @DF-RHF Final Energy:  -383.94834578128172

   => Energetics <=

    Nuclear Repulsion Energy =            375.9469939736756601
    One-Electron Energy =               -1267.8926994996236317
    Two-Electron Energy =                 507.9973597446663689
    DFT Exchange-Correlation Energy =       0.0000000000000000
    Empirical Dispersion Energy =           0.0000000000000000
    PCM Polarization Energy =               0.0000000000000000
    EFP Energy =                            0.0000000000000000
    Total Energy =                       -383.9483457812815459
    Molecular point group: c1
  Basis Set: 6-31G*
  Basis Set:

  -Total Gradient:
     Atom            X                  Y                   Z
    ------   -----------------  -----------------  -----------------
       1        0.000004677282     0.000000997255     0.000004481770
       2        0.000011380679    -0.000010965018    -0.000001699715
       3        0.000024173403     0.001033709067     0.001013368925
       4        0.000282433287    -0.001008630375     0.000414296017
       5       -0.000062316064    -0.000622152375    -0.000784747512
       6        0.000001324277    -0.000004974823     0.000013648086
       7       -0.000258808643     0.000605943983    -0.000648380758
       8       -0.000002304633    -0.000000987938     0.000001981365
       9        0.000001301212     0.000000053436    -0.000002717941
      10       -0.000004490534    -0.000003827057     0.000000396666
      11       -0.000003546608     0.000003862408    -0.000000902283
      12       -0.000002912480     0.000008386198    -0.000008519109
      13        0.000004349973     0.000003100475    -0.000001088063
      14        0.000002968426     0.000000105879    -0.000001143520
      15        0.000001529912    -0.000005207277     0.000004470003
      16       -0.000003425203     0.000001952838    -0.000004301610
      17        0.000002558864     0.000000684322     0.000000071311
      18        0.000000732565    -0.000003015709     0.000002036447
      19        0.000001353336    -0.000001411527    -0.000002932216
      20       -0.000000979055     0.000002376238     0.000001682139

  **** Optimization is complete! (in 7 steps) ****
    Final optimized geometry and variables:
    Molecular point group: c1

    Geometry (in Angstrom), charge = 0, multiplicity = 1:

    H            3.777236234446    -0.759889006376     0.253512563611
    O            2.886517862026    -0.961136287823     0.523932907584
    C            2.072371711928    -0.071867617581    -0.042568595675
    C            0.625758086903    -0.343132139740     0.282297885760
    O            2.477339465741     0.798338621435    -0.742969766740
    C           -0.267242203958     0.880254988106     0.073966267075
    H            0.321980073426    -1.162326386640    -0.363856630525
    H            0.564350628719    -0.714067978747     1.299570168588
    C           -1.734366082185     0.642443375579     0.446530302446
    H           -0.194087190200     1.202567601043    -0.959104474168
    H            0.119820216517     1.698710691961     0.673508294713
    C           -2.473523918653    -0.356652934930    -0.448132974949
    H           -2.252470325883     1.597548469563     0.400384522926
    H           -1.798606533166     0.314510141563     1.483012901449
    C           -3.956547252619    -0.473437023893    -0.096638632099
    H           -2.371634589987    -0.050508526075    -1.487247765423
    H           -2.015636155911    -1.339470515690    -0.371896706912
    H           -4.458098514437    -1.188425118003    -0.741244976689
    H           -4.461541443581     0.482025601264    -0.205690478353
    H           -4.091227112769    -0.802396476326     0.929949612350

  Mulliken Charges: (a.u.)
   Center  Symbol    Alpha    Beta     Spin     Total
       1     H     0.26807  0.26807  0.00000  0.46386
       2     O     4.35119  4.35119  0.00000 -0.70238
       3     C     2.62166  2.62166  0.00000  0.75668
       4     C     3.21262  3.21262  0.00000 -0.42524
       5     O     4.27971  4.27971  0.00000 -0.55942
       6     C     3.15620  3.15620  0.00000 -0.31240
       7     H     0.39629  0.39629  0.00000  0.20743
       8     H     0.39957  0.39957  0.00000  0.20086
       9     C     3.15501  3.15501  0.00000 -0.31002
      10     H     0.40714  0.40714  0.00000  0.18572
      11     H     0.41282  0.41282  0.00000  0.17436
      12     C     3.15504  3.15504  0.00000 -0.31008
      13     H     0.41790  0.41790  0.00000  0.16420
      14     H     0.42352  0.42352  0.00000  0.15296
      15     C     3.23925  3.23925  0.00000 -0.47850
      16     H     0.42083  0.42083  0.00000  0.15834
      17     H     0.42300  0.42300  0.00000  0.15401
      18     H     0.41826  0.41826  0.00000  0.16349
      19     H     0.42061  0.42061  0.00000  0.15877
      20     H     0.42132  0.42132  0.00000  0.15736

   Total alpha = 32.00000, Total beta = 32.00000, Total charge =  0.00000
