                              Psi4 1.0.54 Driver

  ==> Input File <==

--------------------------------------------------------------------------
set {
	reference rhf
	basis cc-pvtz
}

set_num_threads( 4 )
memory 2 gb

molecule MOL {
0 1

H	 -1.752232	 -2.214755	 -0.011938
C	 -1.343852	 -1.221619	 -0.018179
N	 -0.058800	 -1.097635	 -0.261688
C	 -2.148159	 -0.124236	 0.219734
C	 0.449026	 0.119242	 -0.273393
H	 -3.196988	 -0.237571	 0.417076
N	 -1.655094	 1.094230	 0.209506
C	 -0.370318	 1.215445	 -0.035100
C	 1.924033	 0.265863	 -0.538106
H	 0.033214	 2.210441	 -0.046812
C	 2.424679	 1.693025	 -0.310040
H	 2.454308	 -0.411014	 0.120992
H	 2.138947	 -0.041193	 -1.554837
H	 3.493665	 1.751082	 -0.476871
H	 2.220687	 2.010771	 0.704062
H	 1.940836	 2.389050	 -0.986051

	symmetry c1
}
set optking {
	frozen_dihedral = ("
		12 9 5 3
	")
}

ee,wfn = optimize('scf', return_wfn=True)
oeprop( wfn, 'DIPOLE', 'QUADRUPOLE', 'MULLIKEN_CHARGES')
f=open( 'psi4out.xyz', 'w' )
f.write( "16  " )
f.write( str(ee) + "\n" )
f.write( MOL.save_string_xyz() )
f.close()
--------------------------------------------------------------------------

    Molecular point group: c1
  Charge       = 0
  Multiplicity = 1
  Basis Set: CC-PVTZ
  Basis Set:
  @DF-RHF Final Energy:  -340.86865205447697
    Total Energy =                       -340.8686520544773657
    Molecular point group: c1
  Basis Set: CC-PVTZ
  Basis Set:
  Basis Set: CC-PVTZ
  Basis Set:
  @DF-RHF Final Energy:  -340.86970379903005
    Total Energy =                       -340.8697037990296508
  Basis Set: CC-PVTZ
  Basis Set:
  Basis Set: CC-PVTZ
  Basis Set:
  @DF-RHF Final Energy:  -340.87026514863362
    Total Energy =                       -340.8702651486330524
  Basis Set: CC-PVTZ
  Basis Set:
  Basis Set: CC-PVTZ
  Basis Set:
  @DF-RHF Final Energy:  -340.87028908025070
    Total Energy =                       -340.8702890802504726
  Basis Set: CC-PVTZ
  Basis Set:
  Basis Set: CC-PVTZ
  Basis Set:
  @DF-RHF Final Energy:  -340.87029057109743
    Total Energy =                       -340.8702905710975415
  Basis Set: CC-PVTZ
  Basis Set:
  Basis Set: CC-PVTZ
  Basis Set:
  @DF-RHF Final Energy:  -340.87030112633283
    Total Energy =                       -340.8703011263324925
  Basis Set: CC-PVTZ
  Basis Set:
  Charge       = 0
  Multiplicity = 1
  Basis Set: CC-PVTZ
  Basis Set:

    Orbital Energies (a.u.)
    -----------------------

    Doubly Occupied:

       1A    -15.579665     2A    -15.574599     3A    -11.278981
       4A    -11.272215     5A    -11.267229     6A    -11.266497
       7A    -11.232212     8A    -11.221513     9A     -1.315182
      10A     -1.222887    11A     -1.087160    12A     -1.016330
      13A     -0.910667    14A     -0.893214    15A     -0.831444
      16A     -0.716881    17A     -0.711106    18A     -0.652522
      19A     -0.632365    20A     -0.611587    21A     -0.571702
      22A     -0.565100    23A     -0.520240    24A     -0.512990
      25A     -0.508486    26A     -0.486275    27A     -0.430894
      28A     -0.396855    29A     -0.346464

  @DF-RHF Final Energy:  -340.87030193307737

   => Energetics <=

    Nuclear Repulsion Energy =            350.0265016228129298
    One-Electron Energy =               -1154.5270808648301681
    Two-Electron Energy =                 463.6302773089400944
    DFT Exchange-Correlation Energy =       0.0000000000000000
    Empirical Dispersion Energy =           0.0000000000000000
    PCM Polarization Energy =               0.0000000000000000
    EFP Energy =                            0.0000000000000000
    Total Energy =                       -340.8703019330771440
    Molecular point group: c1
  Basis Set: CC-PVTZ
  Basis Set:

  -Total Gradient:
     Atom            X                  Y                   Z
    ------   -----------------  -----------------  -----------------
       1        0.000025963482     0.000002341142     0.000032372519
       2       -0.000232740634     0.000053332383    -0.000025370405
       3        0.000231080261     0.000154106732     0.000201792199
       4        0.000045312619    -0.000237309304    -0.000075294634
       5       -0.000032901018    -0.000232740947    -0.000334096580
       6        0.000012353732     0.000001203142     0.000032103077
       7        0.000176303165     0.000181648273    -0.000047514479
       8       -0.000176205180     0.000059045465     0.000134778711
       9        0.000044545509     0.000206535041     0.000263801267
      10        0.000016901685     0.000014919104    -0.000021570592
      11       -0.000027777125     0.000047843259     0.000004998566
      12       -0.000018760704    -0.000175362582    -0.000170825727
      13       -0.000019084861    -0.000019673532    -0.000008858035
      14       -0.000113765562    -0.000028403093     0.000034188897
      15        0.000004785645     0.000007401432    -0.000065678475
      16        0.000063988990    -0.000034886514     0.000045173693

  **** Optimization is complete! (in 7 steps) ****
    Final optimized geometry and variables:
    Molecular point group: c1

    Geometry (in Angstrom), charge = 0, multiplicity = 1:

    H           -1.298415718957    -2.712463038913     0.009084974632
    C           -1.055276854517    -1.668044776890     0.066850154768
    N            0.174171698101    -1.317200229293    -0.224543496095
    C           -2.007988674759    -0.737653921078     0.437651082709
    C            0.486214261682    -0.035349616286    -0.156379699846
    H           -3.011603310037    -1.034522304293     0.675405454386
    N           -1.712736374209     0.538644800000     0.512151965768
    C           -0.478389125582     0.889192710668     0.219056956249
    C            1.909774952561     0.323093733630    -0.510239443614
    H           -0.249401160927     1.933503203733     0.284878272909
    C            2.321830967705     1.773257163951    -0.289244687371
    H            2.555367356531    -0.335187843314     0.059130124733
    H            2.062127655337     0.055387178996    -1.550687830199
    H            3.365256007806     1.899900244504    -0.548254861212
    H            2.201241857203     2.071955470599     0.745704129637
    H            1.748382398640     2.455736741916    -0.905369659421

  Mulliken Charges: (a.u.)
   Center  Symbol    Alpha    Beta     Spin     Total
       1     H     0.41366  0.41366  0.00000  0.17268
       2     C     3.04260  3.04260  0.00000 -0.08520
       3     N     3.59472  3.59472  0.00000 -0.18943
       4     C     3.04895  3.04895  0.00000 -0.09790
       5     C     2.95388  2.95388  0.00000  0.09223
       6     H     0.41429  0.41429  0.00000  0.17142
       7     N     3.58843  3.58843  0.00000 -0.17687
       8     C     3.07621  3.07621  0.00000 -0.15241
       9     C     3.05901  3.05901  0.00000 -0.11803
      10     H     0.41207  0.41207  0.00000  0.17586
      11     C     3.16484  3.16484  0.00000 -0.32968
      12     H     0.44382  0.44382  0.00000  0.11237
      13     H     0.44487  0.44487  0.00000  0.11026
      14     H     0.44213  0.44213  0.00000  0.11574
      15     H     0.44910  0.44910  0.00000  0.10181
      16     H     0.45143  0.45143  0.00000  0.09715

   Total alpha = 29.00000, Total beta = 29.00000, Total charge =  0.00000

*** Psi4 exiting successfully. Buy a developer a beer!
