  ==> Input File <==

--------------------------------------------------------------------------
set {
	reference rhf
	basis cc-pvtz
}

set_num_threads( 4 )
memory 2 gb

molecule MOL {
0 1

O	 -2.071633	 -1.227563	 -0.223463
C	 -1.652164	 -0.152425	 0.058082
C	 -0.327811	 0.006324	 0.778296
C	 -2.402515	 1.108629	 -0.298924
C	 0.843231	 -0.001575	 -0.211665
H	 -0.319484	 0.928173	 1.350354
H	 -0.227804	 -0.823091	 1.466705
C	 2.197693	 0.138030	 0.476937
H	 0.722944	 0.805202	 -0.930230
H	 0.813976	 -0.926978	 -0.776588
C	 2.263804	 1.335422	 1.418766
H	 2.415353	 -0.770486	 1.031685
H	 2.973382	 0.228744	 -0.277793
H	 1.521885	 1.256130	 2.206359
H	 2.081426	 2.262307	 0.885857
H	 3.237562	 1.409796	 1.888516
H	 -3.240910	 0.874416	 -0.936711
H	 -1.747554	 1.818823	 -0.790984
H	 -2.760419	 1.579708	 0.610998

	symmetry c1
}
set optking {
	frozen_dihedral = ("
		11 8 5 9
	")
}

ee = optimize('scf')
oeprop('DIPOLE', 'QUADRUPOLE', 'MULLIKEN_CHARGES')
f=open( 'psi4out.xyz', 'w' )
f.write( "19  " )
f.write( str(ee) + "\n" )
f.write( MOL.save_string_xyz() )
f.close()
--------------------------------------------------------------------------

    Molecular point group: c1
  Charge       = 0
  Multiplicity = 1
  Basis Set: CC-PVTZ
  Basis Set:
  @DF-RHF Final Energy:  -309.17372781356426
    Total Energy =                       -309.1737278135641418
    Molecular point group: c1
  Basis Set: CC-PVTZ
  Basis Set:
  Basis Set: CC-PVTZ
  Basis Set:
  @DF-RHF Final Energy:  -309.17441173241042
    Total Energy =                       -309.1744117324103058
  Basis Set: CC-PVTZ
  Basis Set:
  Basis Set: CC-PVTZ
  Basis Set:
  @DF-RHF Final Energy:  -309.17509672077563
    Total Energy =                       -309.1750967207756275
  Basis Set: CC-PVTZ
  Basis Set:
  Basis Set: CC-PVTZ
  Basis Set:
  @DF-RHF Final Energy:  -309.17510921648346
    Total Energy =                       -309.1751092164839747
  Basis Set: CC-PVTZ
  Basis Set:
  Basis Set: CC-PVTZ
  Basis Set:
  @DF-RHF Final Energy:  -309.17514989879226
    Total Energy =                       -309.1751498987925402
  Basis Set: CC-PVTZ
  Basis Set:
  Basis Set: CC-PVTZ
  Basis Set:
  @DF-RHF Final Energy:  -309.17515888591282
    Total Energy =                       -309.1751588859130493
  Basis Set: CC-PVTZ
  Basis Set:
  Charge       = 0
  Multiplicity = 1
  Basis Set: CC-PVTZ
  Basis Set:

    Orbital Energies (a.u.)
    -----------------------

    Doubly Occupied:

       1A    -20.536852     2A    -11.319464     3A    -11.229051
       4A    -11.227632     5A    -11.226909     6A    -11.223393
       7A    -11.214753     8A     -1.397048     9A     -1.092679
      10A     -1.028888    11A     -0.982595    12A     -0.902532
      13A     -0.798124    14A     -0.736276    15A     -0.660458
      16A     -0.654048    17A     -0.622188    18A     -0.605515
      19A     -0.597956    20A     -0.571124    21A     -0.553064
      22A     -0.543247    23A     -0.522962    24A     -0.499688
      25A     -0.481382    26A     -0.472577    27A     -0.466600
      28A     -0.399841

  @DF-RHF Final Energy:  -309.17515881784982

   => Energetics <=

    Nuclear Repulsion Energy =            305.3360764400415519
    One-Electron Energy =               -1023.8887855816622050
    Two-Electron Energy =                 409.3775503237706062
    DFT Exchange-Correlation Energy =       0.0000000000000000
    Empirical Dispersion Energy =           0.0000000000000000
    PCM Polarization Energy =               0.0000000000000000
    EFP Energy =                            0.0000000000000000
    Total Energy =                       -309.1751588178500469
    Molecular point group: c1
  Basis Set: CC-PVTZ
  Basis Set:

  -Total Gradient:
     Atom            X                  Y                   Z
    ------   -----------------  -----------------  -----------------
       1        0.000007827924    -0.000015323344    -0.000018224203
       2        0.000008026069    -0.000034455051    -0.000024672224
       3        0.000046270772     0.000025937250    -0.000051631380
       4       -0.000001540701    -0.000009845663     0.000013211480
       5       -0.001522810873     0.001363028947     0.002990626389
       6        0.000025012831     0.000012515365    -0.000023913813
       7        0.000022118146     0.000016935067     0.000028098522
       8        0.001150593369     0.001161030902    -0.002500169425
       9        0.000984280498    -0.001457879070    -0.001888610545
      10       -0.000070290866     0.000028027719     0.000011086886
      11       -0.000653374151    -0.001096639002     0.001443177029
      12        0.000051089455    -0.000020306869     0.000008314319
      13       -0.000026034950     0.000019543027     0.000003753499
      14       -0.000034814008     0.000000231098    -0.000015724417
      15        0.000020461078     0.000011996982     0.000001264578
      16       -0.000013358128    -0.000009897189     0.000008308499
      17        0.000006714088    -0.000003195107     0.000003603219
      18        0.000006697509    -0.000013416502     0.000007228583
      19       -0.000006868060     0.000021711442     0.000004273002

  **** Optimization is complete! (in 7 steps) ****
    Final optimized geometry and variables:
    Molecular point group: c1

    Geometry (in Angstrom), charge = 0, multiplicity = 1:

    O           -1.882487312134    -1.449079625099    -0.491053463217
    C           -1.506321519383    -0.350494498576    -0.240750318001
    C           -0.203534199743    -0.117861470561     0.498891888531
    C           -2.293452064237     0.869539907805    -0.656517566447
    C            0.978939339109    -0.101352661017    -0.477849597537
    H           -0.254146112604     0.812697153954     1.050822013228
    H           -0.079492781610    -0.929532926045     1.205165036981
    C            2.355033062691    -0.034053224504     0.188417822202
    H            0.878311392100     0.722823887485    -1.179703888551
    H            0.933398962679    -1.005673421591    -1.074512035323
    C            2.549664616270     1.123975193226     1.163484294129
    H            2.536631819328    -0.968252645391     0.712345825156
    H            3.105053460989     0.025712495024    -0.593254849407
    H            1.904919457099     1.035343777248     2.029257454932
    H            2.342034514988     2.078983889585     0.690384909760
    H            3.571807481383     1.151357990335     1.522217564139
    H           -3.108457107558     0.583164643926    -1.303249623432
    H           -1.653798112255     1.586405165084    -1.158775130678
    H           -2.688581310172     1.357361394719     0.228878666406

  Mulliken Charges: (a.u.)
   Center  Symbol    Alpha    Beta     Spin     Total
       1     O     4.17693  4.17693  0.00000 -0.35386
       2     C     2.85710  2.85710  0.00000  0.28579
       3     C     3.10152  3.10152  0.00000 -0.20304
       4     C     3.15624  3.15624  0.00000 -0.31247
       5     C     3.10610  3.10610  0.00000 -0.21220
       6     H     0.44702  0.44702  0.00000  0.10595
       7     H     0.43916  0.43916  0.00000  0.12167
       8     C     3.09010  3.09010  0.00000 -0.18021
       9     H     0.45061  0.45061  0.00000  0.09877
      10     H     0.43710  0.43710  0.00000  0.12580
      11     C     3.15637  3.15637  0.00000 -0.31274
      12     H     0.45018  0.45018  0.00000  0.09965
      13     H     0.44648  0.44648  0.00000  0.10704
      14     H     0.45241  0.45241  0.00000  0.09519
      15     H     0.45442  0.45442  0.00000  0.09116
      16     H     0.44336  0.44336  0.00000  0.11327
      17     H     0.43571  0.43571  0.00000  0.12858
      18     H     0.45070  0.45070  0.00000  0.09860
      19     H     0.44848  0.44848  0.00000  0.10304

   Total alpha = 28.00000, Total beta = 28.00000, Total charge = -0.00000
