  ==> Input File <==

--------------------------------------------------------------------------
set {
	reference rhf
	basis 6-31G*
}

set_num_threads( 1 )
memory 2 gb

molecule MOL {
0 1

H	 -1.044807	 -0.571929	 0.345257
C	 -0.790252	 0.431209	 0.000000
N	 0.538815	 0.649616	 0.000000
O	 -1.627647	 1.217290	 -0.331746
C	 1.521968	 -0.411503	 0.000000
H	 0.852804	 1.592852	 0.000000
H	 2.150599	 -0.357004	 -0.881901
H	 0.999455	 -1.354525	 0.000000
H	 2.150599	 -0.357004	 0.881901

	symmetry c1
}
set optking {
	frozen_dihedral = ("
		6 3 5 7
	")
}

ee = energy('scf')
oeprop('DIPOLE', 'QUADRUPOLE', 'MULLIKEN_CHARGES')
f=open( 'psi4out.xyz', 'w' )
f.write( "9  " )
f.write( str(ee) + "\n" )
f.write( MOL.save_string_xyz() )
f.close()
--------------------------------------------------------------------------

    Molecular point group: c1

    Geometry (in Angstrom), charge = 0, multiplicity = 1:

       Center              X                  Y                   Z               Mass
    ------------   -----------------  -----------------  -----------------  -----------------
           H         -0.967570989743    -1.041933937221     0.429242987465     1.007825032070
           C         -0.713015989743    -0.038795937221     0.083985987465    12.000000000000
           N          0.616051010257     0.179611062779     0.083985987465    14.003074004780
           O         -1.550410989743     0.747285062779    -0.247760012535    15.994914619560
           C          1.599204010257    -0.881507937221     0.083985987465    12.000000000000
           H          0.930040010257     1.122847062779     0.083985987465     1.007825032070
           H          2.227835010257    -0.827008937221    -0.797915012535     1.007825032070
           H          1.076691010257    -1.824529937221     0.083985987465     1.007825032070
           H          2.227835010257    -0.827008937221     0.965886987465     1.007825032070

  Charge       = 0
  Multiplicity = 1
  Basis Set: 6-31G*
  Basis Set:

    Orbital Energies (a.u.)
    -----------------------

    Doubly Occupied:

       1A    -20.527438     2A    -15.587301     3A    -11.344793
       4A    -11.275912     5A     -1.388653     6A     -1.239956
       7A     -0.965165     8A     -0.847811     9A     -0.690984
      10A     -0.675441    11A     -0.634476    12A     -0.594181
      13A     -0.574733    14A     -0.537220    15A     -0.424325
      16A     -0.388699

  @DF-RHF Final Energy:  -207.95470162342542

   => Energetics <=

    Nuclear Repulsion Energy =            120.4332787332541415
    One-Electron Energy =                -521.3817624766710424
    Two-Electron Energy =                 192.9937821199914367
    DFT Exchange-Correlation Energy =       0.0000000000000000
    Empirical Dispersion Energy =           0.0000000000000000
    PCM Polarization Energy =               0.0000000000000000
    EFP Energy =                            0.0000000000000000
    Total Energy =                       -207.9547016234254500

  Mulliken Charges: (a.u.)
   Center  Symbol    Alpha    Beta     Spin     Total
       1     H     0.43154  0.43154  0.00000  0.13692
       2     C     2.74231  2.74231  0.00000  0.51537
       3     N     3.87276  3.87276  0.00000 -0.74551
       4     O     4.27947  4.27947  0.00000 -0.55893
       5     C     3.14064  3.14064  0.00000 -0.28128
       6     H     0.30418  0.30418  0.00000  0.39165
       7     H     0.40796  0.40796  0.00000  0.18407
       8     H     0.40913  0.40913  0.00000  0.18173
       9     H     0.41201  0.41201  0.00000  0.17599

   Total alpha = 16.00000, Total beta = 16.00000, Total charge =  0.00000
