  ==> Input File <==

--------------------------------------------------------------------------
set {
	reference rhf
	basis 6-31G*
}

set_num_threads( 4 )
memory 2 gb

molecule MOL {
0 1

H	 -3.650283	 0.221984	 0.000000
C	 -2.577024	 0.154109	 0.000000
C	 -1.960329	 -1.089307	 0.000000
C	 -1.811733	 1.307557	 0.000000
H	 -2.554473	 -1.985285	 0.000000
C	 -0.581547	 -1.175855	 0.000000
H	 -2.287118	 2.271701	 0.000000
C	 -0.428719	 1.219221	 0.000000
H	 -0.090826	 -2.129898	 0.000000
C	 0.198341	 -0.021559	 0.000000
H	 0.149947	 2.124040	 0.000000
C	 1.691355	 -0.173192	 0.000000
C	 2.555747	 1.048923	 0.229789
O	 2.193361	 -1.243423	 -0.178801
H	 2.374662	 1.800440	 -0.531926
H	 3.592713	 0.747251	 0.195344
H	 2.343894	 1.497489	 1.195028

	symmetry c1
}
set optking {
	frozen_dihedral = ("
		13 12 10 8
	")
}

ee = optimize('scf')
oeprop('DIPOLE', 'QUADRUPOLE', 'MULLIKEN_CHARGES')
f=open( 'psi4out.xyz', 'w' )
f.write( "17  " )
f.write( str(ee) + "\n" )
f.write( MOL.save_string_xyz() )
f.close()
--------------------------------------------------------------------------

    Molecular point group: c1
  Charge       = 0
  Multiplicity = 1
  Basis Set: 6-31G*
  Basis Set:
  @DF-RHF Final Energy:  -382.47550161310517
    Total Energy =                       -382.4755016131048251
    Molecular point group: c1
  Basis Set: 6-31G*
  Basis Set:
  Basis Set: 6-31G*
  Basis Set:
  @DF-RHF Final Energy:  -382.47409964589502
    Total Energy =                       -382.4740996458949667
  Basis Set: 6-31G*
  Basis Set:
  Basis Set: 6-31G*
  Basis Set:
  @DF-RHF Final Energy:  -382.47557725419841
    Total Energy =                       -382.4755772541991519
  Basis Set: 6-31G*
  Basis Set:
  Basis Set: 6-31G*
  Basis Set:
  @DF-RHF Final Energy:  -382.47559913739735
    Total Energy =                       -382.4755991373978077
  Basis Set: 6-31G*
  Basis Set:
  Basis Set: 6-31G*
  Basis Set:
  @DF-RHF Final Energy:  -382.47560074800947
    Total Energy =                       -382.4756007480096969
  Basis Set: 6-31G*
  Basis Set:
  Charge       = 0
  Multiplicity = 1
  Basis Set: 6-31G*
  Basis Set:

    Orbital Energies (a.u.)
    -----------------------

    Doubly Occupied:

       1A    -20.550171     2A    -11.331686     3A    -11.248850
       4A    -11.246085     5A    -11.243026     6A    -11.240515
       7A    -11.240297     8A    -11.237923     9A    -11.229634
      10A     -1.396674    11A     -1.165603    12A     -1.049746
      13A     -1.026394    14A     -0.996194    15A     -0.861082
      16A     -0.834781    17A     -0.759630    18A     -0.709134
      19A     -0.654938    20A     -0.646593    21A     -0.625239
      22A     -0.607138    23A     -0.598341    24A     -0.596439
      25A     -0.553176    26A     -0.524657    27A     -0.517969
      28A     -0.500294    29A     -0.491193    30A     -0.410619
      31A     -0.345594    32A     -0.341367

  @DF-RHF Final Energy:  -382.47560110531782

   => Energetics <=

    Nuclear Repulsion Energy =            403.5530534284573037
    One-Electron Energy =               -1318.4953470308746546
    Two-Electron Energy =                 532.4666924970999844
    DFT Exchange-Correlation Energy =       0.0000000000000000
    Empirical Dispersion Energy =           0.0000000000000000
    PCM Polarization Energy =               0.0000000000000000
    EFP Energy =                            0.0000000000000000
    Total Energy =                       -382.4756011053173097
    Molecular point group: c1
  Basis Set: 6-31G*
  Basis Set:

  -Total Gradient:
     Atom            X                  Y                   Z
    ------   -----------------  -----------------  -----------------
       1        0.000000157645    -0.000001157166     0.000002520138
       2        0.000003765553     0.000008542991    -0.000014776168
       3        0.000006675223    -0.000002952138     0.000001148598
       4       -0.000011843050    -0.000001132829     0.000008743788
       5       -0.000001504302     0.000000761117    -0.000000732282
       6       -0.000007855358     0.000003519967     0.000015166227
       7       -0.000001173004    -0.000001065184     0.000001325308
       8       -0.000007184893     0.000008540402    -0.001042471930
       9        0.000001619495    -0.000000855588    -0.000009577551
      10        0.000014403757    -0.000080915026     0.001998989006
      11       -0.000007849482    -0.000006812075    -0.000007307927
      12        0.000012636995     0.000217827396    -0.001841261613
      13        0.000001769845    -0.000161232254     0.000889952508
      14       -0.000006821649     0.000016277043    -0.000007696152
      15       -0.000002538552     0.000001669728     0.000000155659
      16        0.000003012767     0.000005197477     0.000004543732
      17        0.000002729003    -0.000006213859     0.000001278658

  **** Optimization is complete! (in 6 steps) ****
    Final optimized geometry and variables:
    Molecular point group: c1

    Geometry (in Angstrom), charge = 0, multiplicity = 1:

    H           -3.650070557125     0.222045767184    -0.007528752387
    C           -2.576777914229     0.154273151627    -0.005788409203
    C           -1.960064658873    -1.089050949772    -0.014472426651
    C           -1.811383277759     1.307665593520     0.003828521046
    H           -2.554275712683    -1.984933845212    -0.023011512314
    C           -0.581182374336    -1.175524387734    -0.015543728709
    H           -2.286713869309     2.271902614230     0.006719538002
    C           -0.428405349288     1.219437304886     0.009831259737
    H           -0.090699344850    -2.129699598580    -0.030076680624
    C            0.198426793305    -0.021417178996     0.002601138739
    H            0.150713125848     2.124010660586     0.018524671017
    C            1.691435217376    -0.171712371856    -0.012688055581
    C            2.555902082071     1.051883768273     0.209295254282
    O            2.192220287827    -1.244274775335    -0.180052701266
    H            2.425528656065     1.768877082573    -0.595262700904
    H            3.590201104456     0.740841502589     0.240565140805
    H            2.296464072158     1.546685421611     1.139371926969

  Mulliken Charges: (a.u.)
   Center  Symbol    Alpha    Beta     Spin     Total
       1     H     0.39531  0.39531  0.00000  0.20939
       2     C     3.09223  3.09223  0.00000 -0.18447
       3     C     3.10399  3.10399  0.00000 -0.20799
       4     C     3.10430  3.10430  0.00000 -0.20861
       5     H     0.39519  0.39519  0.00000  0.20961
       6     C     3.08848  3.08848  0.00000 -0.17696
       7     H     0.39642  0.39642  0.00000  0.20716
       8     C     3.10298  3.10298  0.00000 -0.20596
       9     H     0.37641  0.37641  0.00000  0.24718
      10     C     3.05811  3.05811  0.00000 -0.11621
      11     H     0.39353  0.39353  0.00000  0.21295
      12     C     2.72617  2.72617  0.00000  0.54765
      13     C     3.29285  3.29285  0.00000 -0.58569
      14     O     4.26841  4.26841  0.00000 -0.53682
      15     H     0.40644  0.40644  0.00000  0.18712
      16     H     0.39330  0.39330  0.00000  0.21340
      17     H     0.40587  0.40587  0.00000  0.18826

   Total alpha = 32.00000, Total beta = 32.00000, Total charge = -0.00000
