                              Psi4 1.0.54 Driver

  ==> Input File <==

--------------------------------------------------------------------------
set {
	reference rhf
	basis cc-pvtz
}

set_num_threads( 4 )
memory 2 gb

molecule MOL {
0 1

H	 2.004430	 1.244127	 -0.259267
C	 1.161519	 0.734288	 0.186920
H	 1.228561	 0.837061	 1.268596
O	 -0.000078	 1.357902	 -0.281073
C	 1.161603	 -0.734148	 -0.186934
C	 -1.161603	 0.734148	 0.186934
H	 2.004558	 -1.243894	 0.259265
H	 1.228615	 -0.836935	 -1.268604
O	 0.000078	 -1.357902	 0.281073
H	 -1.228615	 0.836935	 1.268604
H	 -2.004558	 1.243894	 -0.259265
C	 -1.161519	 -0.734288	 -0.186920
H	 -2.004430	 -1.244127	 0.259267
H	 -1.228561	 -0.837061	 -1.268596

	symmetry c1
}
ee,wfn = energy('scf', return_wfn=True)
oeprop( wfn, 'DIPOLE', 'QUADRUPOLE', 'MULLIKEN_CHARGES')
oeprop( wfn, 'GRID_ESP')
f=open( 'psi4out.xyz', 'w' )
f.write( "14  " )
f.write( str(ee) + "\n" )
f.write( MOL.save_string_xyz() )
f.close()
--------------------------------------------------------------------------

    Molecular point group: c1

    Geometry (in Angstrom), charge = 0, multiplicity = 1:

       Center              X                  Y                   Z               Mass
    ------------   -----------------  -----------------  -----------------  -----------------
           H          2.004430000000     1.244127000000    -0.259267000000     1.007825032070
           C          1.161519000000     0.734288000000     0.186920000000    12.000000000000
           H          1.228561000000     0.837061000000     1.268596000000     1.007825032070
           O         -0.000078000000     1.357902000000    -0.281073000000    15.994914619560
           C          1.161603000000    -0.734148000000    -0.186934000000    12.000000000000
           C         -1.161603000000     0.734148000000     0.186934000000    12.000000000000
           H          2.004558000000    -1.243894000000     0.259265000000     1.007825032070
           H          1.228615000000    -0.836935000000    -1.268604000000     1.007825032070
           O          0.000078000000    -1.357902000000     0.281073000000    15.994914619560
           H         -1.228615000000     0.836935000000     1.268604000000     1.007825032070
           H         -2.004558000000     1.243894000000    -0.259265000000     1.007825032070
           C         -1.161519000000    -0.734288000000    -0.186920000000    12.000000000000
           H         -2.004430000000    -1.244127000000     0.259267000000     1.007825032070
           H         -1.228561000000    -0.837061000000    -1.268596000000     1.007825032070

  Charge       = 0
  Multiplicity = 1
  Basis Set: CC-PVTZ
  Basis Set:

    Orbital Energies (a.u.)
    -----------------------

    Doubly Occupied:

       1A    -20.554999     2A    -20.554996     3A    -11.270660
       4A    -11.270637     5A    -11.269996     6A    -11.269981
       7A     -1.411246     8A     -1.367330     9A     -1.052626
      10A     -0.948887    11A     -0.900761    12A     -0.796787
      13A     -0.704602    14A     -0.658957    15A     -0.652467
      16A     -0.651447    17A     -0.639672    18A     -0.556336
      19A     -0.553383    20A     -0.522116    21A     -0.512654
      22A     -0.456856    23A     -0.451796    24A     -0.390461

  @DF-RHF Final Energy:  -305.93948824823758

   => Energetics <=

    Nuclear Repulsion Energy =            267.1130924543874698
    One-Electron Energy =                -947.2661780007987318
    Two-Electron Energy =                 374.2135972981735677
    DFT Exchange-Correlation Energy =       0.0000000000000000
    Empirical Dispersion Energy =           0.0000000000000000
    PCM Polarization Energy =               0.0000000000000000
    EFP Energy =                            0.0000000000000000
    Total Energy =                       -305.9394882482376943

  Mulliken Charges: (a.u.)
   Center  Symbol    Alpha    Beta     Spin     Total
       1     H     0.45089  0.45089  0.00000  0.09821
       2     C     2.98727  2.98727  0.00000  0.02545
       3     H     0.46857  0.46857  0.00000  0.06286
       4     O     4.18653  4.18653  0.00000 -0.37305
       5     C     2.98728  2.98728  0.00000  0.02544
       6     C     2.98728  2.98728  0.00000  0.02544
       7     H     0.45089  0.45089  0.00000  0.09822
       8     H     0.46856  0.46856  0.00000  0.06287
       9     O     4.18653  4.18653  0.00000 -0.37305
      10     H     0.46856  0.46856  0.00000  0.06287
      11     H     0.45089  0.45089  0.00000  0.09822
      12     C     2.98727  2.98727  0.00000  0.02545
      13     H     0.45089  0.45089  0.00000  0.09821
      14     H     0.46857  0.46857  0.00000  0.06286

   Total alpha = 24.00000, Total beta = 24.00000, Total charge = -0.00000

*** Psi4 exiting successfully. Buy a developer a beer!
