  ==> Input File <==

--------------------------------------------------------------------------
set {
	reference rhf
	basis cc-pvtz
}

set_num_threads( 4 )
memory 2 gb

molecule MOL {
0 1

H	 1.501015	 1.156143	 -1.125074
O	 0.707861	 0.644930	 -1.180158
C	 0.489979	 0.078084	 0.002623
C	 -0.763662	 -0.754014	 0.000816
O	 1.214404	 0.239903	 0.922914
C	 -2.038001	 0.074705	 -0.000833
H	 -0.712945	 -1.405886	 -0.864342
H	 -0.715137	 -1.405770	 0.866182
H	 -2.087267	 0.710831	 -0.874232
H	 -2.903419	 -0.576199	 -0.001922
H	 -2.089467	 0.710909	 0.872389

	symmetry c1
}
set optking {
	frozen_dihedral = ("
		2 3 4 7
	")
}

ee = optimize('scf')
oeprop('DIPOLE', 'QUADRUPOLE', 'MULLIKEN_CHARGES')
f=open( 'psi4out.xyz', 'w' )
f.write( "11  " )
f.write( str(ee) + "\n" )
f.write( MOL.save_string_xyz() )
f.close()
--------------------------------------------------------------------------

    Molecular point group: c1
  Charge       = 0
  Multiplicity = 1
  Basis Set: CC-PVTZ
  Basis Set:
  @DF-RHF Final Energy:  -266.95123171889520
    Total Energy =                       -266.9512317188953148
    Molecular point group: c1
  Basis Set: CC-PVTZ
  Basis Set:
  Basis Set: CC-PVTZ
  Basis Set:
  @DF-RHF Final Energy:  -266.95167829438606
    Total Energy =                       -266.9516782943860562
  Basis Set: CC-PVTZ
  Basis Set:
  Basis Set: CC-PVTZ
  Basis Set:
  @DF-RHF Final Energy:  -266.95170027330073
    Total Energy =                       -266.9517002733006166
  Basis Set: CC-PVTZ
  Basis Set:
  Charge       = 0
  Multiplicity = 1
  Basis Set: CC-PVTZ
  Basis Set:

    Orbital Energies (a.u.)
    -----------------------

    Doubly Occupied:

       1A    -20.605551     2A    -20.540300     3A    -11.373442
       4A    -11.241681     5A    -11.228901     6A     -1.478191
       7A     -1.369128     8A     -1.069087     9A     -0.913657
      10A     -0.819765    11A     -0.706181    12A     -0.687822
      13A     -0.644455    14A     -0.618331    15A     -0.594459
      16A     -0.546770    17A     -0.527952    18A     -0.513334
      19A     -0.481823    20A     -0.443843

  @DF-RHF Final Energy:  -266.95170121722890

   => Energetics <=

    Nuclear Repulsion Energy =            180.3979492743298749
    One-Electron Energy =                -721.8899538956624156
    Two-Electron Energy =                 274.5403034041036108
    DFT Exchange-Correlation Energy =       0.0000000000000000
    Empirical Dispersion Energy =           0.0000000000000000
    PCM Polarization Energy =               0.0000000000000000
    EFP Energy =                            0.0000000000000000
    Total Energy =                       -266.9517012172289014
    Molecular point group: c1
  Basis Set: CC-PVTZ
  Basis Set:

  -Total Gradient:
     Atom            X                  Y                   Z
    ------   -----------------  -----------------  -----------------
       1        0.000024584921     0.000027434367    -0.000032716104
       2        0.000199878478    -0.000137880298    -0.000045764986
       3       -0.000381613457     0.000507401658     0.000323982114
       4        0.000127500779    -0.000308030024    -0.000073142193
       5        0.000090611597    -0.000154019523    -0.000199442681
       6        0.000080988189     0.000046060561     0.000019005245
       7       -0.000047279951     0.000035892604     0.000029875114
       8       -0.000025533823     0.000003303145    -0.000035968553
       9       -0.000000547622    -0.000009843705     0.000023494209
      10       -0.000048316473    -0.000024555490     0.000003866607
      11       -0.000020272638     0.000014236706    -0.000013188769

  **** Optimization is complete! (in 4 steps) ****
    Final optimized geometry and variables:
    Molecular point group: c1

    Geometry (in Angstrom), charge = 0, multiplicity = 1:

    H            1.526596923107     1.117553467658    -1.034075421383
    O            0.744449586585     0.590384519220    -1.098840734883
    C            0.542622342311    -0.009779988420     0.070959105038
    C           -0.702175798530    -0.854663600158     0.075462208969
    O            1.276620732260     0.134836808939     0.986799600261
    C           -1.971784673033     0.000532057521     0.060986172849
    H           -0.680947740292    -1.495879246388    -0.797119363525
    H           -0.666878281004    -1.471814423859     0.960411484491
    H           -2.020437750296     0.613027916027    -0.829349783427
    H           -2.846179759144    -0.637023177476     0.082239698621
    H           -2.010528035002     0.650793304163     0.926502084221

  Mulliken Charges: (a.u.)
   Center  Symbol    Alpha    Beta     Spin     Total
       1     H     0.38035  0.38035  0.00000  0.23930
       2     O     4.16451  4.16451  0.00000 -0.32901
       3     C     2.79950  2.79950  0.00000  0.40100
       4     C     3.08990  3.08990  0.00000 -0.17980
       5     O     4.19447  4.19447  0.00000 -0.38894
       6     C     3.15005  3.15005  0.00000 -0.30011
       7     H     0.44463  0.44463  0.00000  0.11074
       8     H     0.43609  0.43609  0.00000  0.12781
       9     H     0.44580  0.44580  0.00000  0.10839
      10     H     0.44666  0.44666  0.00000  0.10669
      11     H     0.44803  0.44803  0.00000  0.10394

   Total alpha = 20.00000, Total beta = 20.00000, Total charge =  0.00000
