  ==> Input File <==

--------------------------------------------------------------------------
set {
	reference rhf
	basis 6-31G*
}

set_num_threads( 4 )
memory 2 gb

molecule MOL {
0 1

O	 0.074228	 1.262779	 -0.000085
C	 0.028650	 0.075053	 -0.000277
C	 -1.233602	 -0.752807	 0.000328
O	 1.109162	 -0.694619	 -0.000298
C	 -2.501530	 0.091881	 0.000126
H	 -1.193807	 -1.406641	 -0.865785
H	 -1.193516	 -1.405779	 0.867015
H	 -2.545121	 0.729328	 -0.874513
H	 -3.377167	 -0.548497	 0.000561
H	 -2.544818	 0.730135	 0.874258
C	 2.364743	 -0.039558	 -0.000843
H	 2.470745	 0.577473	 -0.881439
H	 3.106281	 -0.823128	 -0.001660
H	 2.472025	 0.576889	 0.880040

	symmetry c1
}
set optking {
	frozen_dihedral = ("
		11 4 2 3
	")
}

ee = optimize('scf')
oeprop('DIPOLE', 'QUADRUPOLE', 'MULLIKEN_CHARGES')
f=open( 'psi4out.xyz', 'w' )
f.write( "14  " )
f.write( str(ee) + "\n" )
f.write( MOL.save_string_xyz() )
f.close()
--------------------------------------------------------------------------

    Molecular point group: c1
  Charge       = 0
  Multiplicity = 1
  Basis Set: 6-31G*
  Basis Set:
  @DF-RHF Final Energy:  -305.87220303681164
    Total Energy =                       -305.8722030368120386
    Molecular point group: c1
  Basis Set: 6-31G*
  Basis Set:
  Charge       = 0
  Multiplicity = 1
  Basis Set: 6-31G*
  Basis Set:

    Orbital Energies (a.u.)
    -----------------------

    Doubly Occupied:

       1A    -20.604550     2A    -20.546358     3A    -11.372932
       4A    -11.281502     5A    -11.238761     6A    -11.216671
       7A     -1.470245     8A     -1.363772     9A     -1.064456
      10A     -0.980344    11A     -0.878359    12A     -0.768916
      13A     -0.700780    14A     -0.682923    15A     -0.671750
      16A     -0.621282    17A     -0.602600    18A     -0.543997
      19A     -0.537444    20A     -0.522142    21A     -0.514216
      22A     -0.496384    23A     -0.457345    24A     -0.439404

  @DF-RHF Final Energy:  -305.87220238020086

   => Energetics <=

    Nuclear Repulsion Energy =            247.1380110517434332
    One-Electron Energy =                -906.8661539140223340
    Two-Electron Energy =                 353.8559404820780969
    DFT Exchange-Correlation Energy =       0.0000000000000000
    Empirical Dispersion Energy =           0.0000000000000000
    PCM Polarization Energy =               0.0000000000000000
    EFP Energy =                            0.0000000000000000
    Total Energy =                       -305.8722023802008039
    Molecular point group: c1
  Basis Set: 6-31G*
  Basis Set:

  -Total Gradient:
     Atom            X                  Y                   Z
    ------   -----------------  -----------------  -----------------
       1       -0.000009114828     0.000018846788    -0.000225973263
       2        0.000018200110    -0.000026363729     0.000593191891
       3        0.000000367519     0.000004926592    -0.000169439922
       4       -0.000021534018     0.000002498798    -0.000201301284
       5        0.000003698877     0.000001153118    -0.000002803599
       6       -0.000030181561    -0.000025598806    -0.000002317758
       7        0.000030228571     0.000023982168    -0.000001987622
       8       -0.000003493758     0.000002098351    -0.000002852033
       9        0.000002523394     0.000000064470    -0.000000981009
      10        0.000002231224    -0.000002504563    -0.000000679907
      11        0.000014146203     0.000003279366     0.000020398562
      12        0.000004134197     0.000004383199    -0.000001082524
      13       -0.000000603637    -0.000000454341    -0.000002186377
      14       -0.000010602297    -0.000006311410    -0.000001985156

  **** Optimization is complete! (in 2 steps) ****
    Final optimized geometry and variables:
    Molecular point group: c1

    Geometry (in Angstrom), charge = 0, multiplicity = 1:

    O            0.074188696265     1.262841070460    -0.000514781314
    C            0.028644836053     0.075126100211     0.001121805731
    C           -1.233563770030    -0.752806308499     0.001030702482
    O            1.109147091683    -0.694621382565    -0.000707280386
    C           -2.501512414707     0.091835810502     0.000273552239
    H           -1.193324911835    -1.406614965173    -0.865036536410
    H           -1.193809325404    -1.405734183770     0.867783099485
    H           -2.544731408142     0.729262792370    -0.874454452757
    H           -3.377058222900    -0.548571773881     0.000353105534
    H           -2.545196986566     0.730114933989     0.874350862228
    C            2.364734030045    -0.039639389773    -0.000833938015
    H            2.470853856085     0.578105766589    -0.880945333662
    H            3.106295032463    -0.823197302338    -0.002161914684
    H            2.471934404359     0.576104241346     0.880549047183

  Mulliken Charges: (a.u.)
   Center  Symbol    Alpha    Beta     Spin     Total
       1     O     4.28522  4.28522  0.00000 -0.57044
       2     C     2.60831  2.60831  0.00000  0.78338
       3     C     3.20510  3.20510  0.00000 -0.41019
       4     O     4.30592  4.30592  0.00000 -0.61185
       5     C     3.23894  3.23894  0.00000 -0.47789
       6     H     0.40015  0.40015  0.00000  0.19971
       7     H     0.40023  0.40023  0.00000  0.19953
       8     H     0.40983  0.40983  0.00000  0.18034
       9     H     0.41790  0.41790  0.00000  0.16421
      10     H     0.40985  0.40985  0.00000  0.18029
      11     C     3.09232  3.09232  0.00000 -0.18464
      12     H     0.40889  0.40889  0.00000  0.18222
      13     H     0.40838  0.40838  0.00000  0.18325
      14     H     0.40896  0.40896  0.00000  0.18208

   Total alpha = 24.00000, Total beta = 24.00000, Total charge = -0.00000
