  ==> Input File <==

--------------------------------------------------------------------------
set {
	reference rhf
	basis 6-31G*
}

set_num_threads( 4 )
memory 2 gb

molecule MOL {
0 1

H	 3.387345	 0.955267	 1.307983
N	 2.550580	 0.404583	 1.297130
C	 1.865559	 0.531981	 0.018834
H	 1.971100	 0.744009	 2.041323
C	 0.645745	 -0.382037	 -0.029944
H	 2.563712	 0.239994	 -0.759745
H	 1.559401	 1.557237	 -0.203689
C	 -0.679275	 0.379305	 0.025956
H	 0.698998	 -0.976915	 -0.937203
H	 0.693479	 -1.083846	 0.802235
C	 -1.903357	 -0.536963	 -0.023547
H	 -0.726309	 1.082987	 -0.803784
H	 -0.717680	 0.977832	 0.934877
C	 -3.225172	 0.228290	 0.028445
H	 -1.867824	 -1.134999	 -0.931459
H	 -1.860449	 -1.239604	 0.805977
H	 -3.313397	 0.915643	 -0.808262
H	 -4.073500	 -0.448134	 -0.008893
H	 -3.306061	 0.809945	 0.942516

	symmetry c1
}
set optking {
	frozen_dihedral = ("
		6 3 5 9
	")
}

ee = optimize('scf')
oeprop('DIPOLE', 'QUADRUPOLE', 'MULLIKEN_CHARGES')
f=open( 'psi4out.xyz', 'w' )
f.write( "19  " )
f.write( str(ee) + "\n" )
f.write( MOL.save_string_xyz() )
f.close()
--------------------------------------------------------------------------

    Molecular point group: c1
  Charge       = 0
  Multiplicity = 1
  Basis Set: 6-31G*
  Basis Set:
  @DF-RHF Final Energy:  -251.34568740117183
    Total Energy =                       -251.3456874011719151
    Molecular point group: c1
  Basis Set: 6-31G*
  Basis Set:
  Basis Set: 6-31G*
  Basis Set:
  @DF-RHF Final Energy:  -251.34612226009429
    Total Energy =                       -251.3461222600940914
  Basis Set: 6-31G*
  Basis Set:
  Basis Set: 6-31G*
  Basis Set:
  @DF-RHF Final Energy:  -251.34624717139519
    Total Energy =                       -251.3462471713951913
  Basis Set: 6-31G*
  Basis Set:
  Charge       = 0
  Multiplicity = 1
  Basis Set: 6-31G*
  Basis Set:

    Orbital Energies (a.u.)
    -----------------------

    Doubly Occupied:

       1A    -15.532836     2A    -11.239772     3A    -11.214652
       4A    -11.214021     5A    -11.209229     6A    -11.208383
       7A     -1.175857     8A     -1.072671     9A     -0.996790
      10A     -0.902304    11A     -0.814835    12A     -0.788040
      13A     -0.666358    14A     -0.638910    15A     -0.617622
      16A     -0.585134    17A     -0.563955    18A     -0.548816
      19A     -0.531650    20A     -0.501618    21A     -0.485105
      22A     -0.465842    23A     -0.461185    24A     -0.443984
      25A     -0.379877

  @DF-RHF Final Energy:  -251.34624617919371

   => Energetics <=

    Nuclear Repulsion Energy =            246.9159136780344852
    One-Electron Energy =                -828.0054202230493274
    Two-Electron Energy =                 329.7432603658211292
    DFT Exchange-Correlation Energy =       0.0000000000000000
    Empirical Dispersion Energy =           0.0000000000000000
    PCM Polarization Energy =               0.0000000000000000
    EFP Energy =                            0.0000000000000000
    Total Energy =                       -251.3462461791937130
    Molecular point group: c1
  Basis Set: 6-31G*
  Basis Set:

  -Total Gradient:
     Atom            X                  Y                   Z
    ------   -----------------  -----------------  -----------------
       1        0.000015579523     0.000005907368    -0.000030317754
       2        0.000016584692    -0.000076428161     0.000052131742
       3        0.001830157452    -0.002738862760     0.002734564051
       4       -0.000009524931     0.000007008596    -0.000053573608
       5       -0.002076935785     0.002979351888    -0.002155702706
       6       -0.001241997136     0.001858245899    -0.001809354248
       7       -0.000008823312    -0.000002067046    -0.000034249764
       8       -0.000015080809     0.000072061415    -0.000085093852
       9        0.001408756443    -0.002033893997     0.001426760232
      10        0.000030404097    -0.000033101354    -0.000015948561
      11        0.000055464581    -0.000021845335    -0.000007646463
      12        0.000032498792    -0.000046167331    -0.000046661273
      13       -0.000016184668     0.000043855212    -0.000036710543
      14       -0.000002535351    -0.000000518634     0.000100447537
      15       -0.000015198417     0.000036305069    -0.000024582670
      16        0.000003058528    -0.000045872031    -0.000037445607
      17        0.000015743939    -0.000031360907     0.000000889491
      18       -0.000009610069     0.000001247172     0.000025713847
      19       -0.000012357567     0.000026134938    -0.000003219850

  **** Optimization is complete! (in 4 steps) ****
    Final optimized geometry and variables:
    Molecular point group: c1

    Geometry (in Angstrom), charge = 0, multiplicity = 1:

    H            3.452271829494     0.864853120352     1.127744995735
    N            2.637962601265     0.282035865149     1.086860614150
    C            1.991645996242     0.399066842619    -0.214325385316
    H            2.021945128951     0.599720893660     1.811607095797
    C            0.746489602260    -0.501943003274    -0.305614111330
    H            2.712846737932     0.115840461780    -0.972789544847
    H            1.706282494393     1.427312843188    -0.449704398565
    C           -0.579439398310     0.259171948184    -0.245946968178
    H            0.787291736227    -1.099835778948    -1.212382592085
    H            0.794528282741    -1.216342305089     0.511585045919
    C           -1.802782339719    -0.658295273351    -0.258010691068
    H           -0.639285335774     0.948886811901    -1.086204035728
    H           -0.603257678340     0.875431697119     0.652689104954
    C           -3.124693336338     0.105307737478    -0.185547552455
    H           -1.786170705531    -1.266389335483    -1.160064719026
    H           -1.740061350846    -1.352057252384     0.577507489736
    H           -3.234143703667     0.780863646798    -1.029304534665
    H           -3.972283803357    -0.573028992036    -0.193354809819
    H           -3.185357126909     0.699379778290     0.722099781431

  Mulliken Charges: (a.u.)
   Center  Symbol    Alpha    Beta     Spin     Total
       1     H     0.33342  0.33342  0.00000  0.33317
       2     N     3.91991  3.91991  0.00000 -0.83983
       3     C     3.06437  3.06437  0.00000 -0.12874
       4     H     0.33565  0.33565  0.00000  0.32869
       5     C     3.16237  3.16237  0.00000 -0.32474
       6     H     0.41816  0.41816  0.00000  0.16367
       7     H     0.43272  0.43272  0.00000  0.13456
       8     C     3.15312  3.15312  0.00000 -0.30624
       9     H     0.41971  0.41971  0.00000  0.16059
      10     H     0.41033  0.41033  0.00000  0.17934
      11     C     3.15178  3.15178  0.00000 -0.30357
      12     H     0.42368  0.42368  0.00000  0.15265
      13     H     0.42751  0.42751  0.00000  0.14499
      14     C     3.23920  3.23920  0.00000 -0.47839
      15     H     0.42254  0.42254  0.00000  0.15492
      16     H     0.42207  0.42207  0.00000  0.15586
      17     H     0.42200  0.42200  0.00000  0.15601
      18     H     0.41915  0.41915  0.00000  0.16169
      19     H     0.42231  0.42231  0.00000  0.15538

   Total alpha = 25.00000, Total beta = 25.00000, Total charge = -0.00000
