  ==> Input File <==

--------------------------------------------------------------------------
set {
	reference rhf
	basis cc-pvtz
}

set_num_threads( 4 )
memory 2 gb

molecule MOL {
0 1

O	 0.395927	 1.296676	 -0.000076
C	 0.503051	 0.114301	 -0.000074
C	 -0.701422	 -0.805636	 -0.000109
C	 1.858118	 -0.556123	 0.000212
C	 -0.998370	 -1.438248	 1.350337
H	 -1.552943	 -0.230581	 -0.354592
H	 -0.531760	 -1.567651	 -0.756408
H	 -1.191099	 -0.681678	 2.099126
H	 -1.867564	 -2.081372	 1.281424
H	 -0.160874	 -2.030609	 1.693761
H	 1.961106	 -1.191101	 -0.872843
H	 2.636688	 0.191085	 -0.000109
H	 1.961070	 -1.190284	 0.873873

	symmetry c1
}
set optking {
	frozen_dihedral = ("
		6 3 2 1
	")
}

ee = optimize('scf')
oeprop('DIPOLE', 'QUADRUPOLE', 'MULLIKEN_CHARGES')
f=open( 'psi4out.xyz', 'w' )
f.write( "13  " )
f.write( str(ee) + "\n" )
f.write( MOL.save_string_xyz() )
f.close()
--------------------------------------------------------------------------

    Molecular point group: c1
  Charge       = 0
  Multiplicity = 1
  Basis Set: CC-PVTZ
  Basis Set:
  @DF-RHF Final Energy:  -231.08053236774577
    Total Energy =                       -231.0805323677457181
    Molecular point group: c1
  Basis Set: CC-PVTZ
  Basis Set:
  Basis Set: CC-PVTZ
  Basis Set:
  @DF-RHF Final Energy:  -231.08113586722442
    Total Energy =                       -231.0811358672240772
  Basis Set: CC-PVTZ
  Basis Set:
  Basis Set: CC-PVTZ
  Basis Set:
  @DF-RHF Final Energy:  -231.08118399113044
    Total Energy =                       -231.0811839911303593
  Basis Set: CC-PVTZ
  Basis Set:
  Basis Set: CC-PVTZ
  Basis Set:
  @DF-RHF Final Energy:  -231.08079635201923
    Total Energy =                       -231.0807963520193198
  Basis Set: CC-PVTZ
  Basis Set:
  Basis Set: CC-PVTZ
  Basis Set:
  @DF-RHF Final Energy:  -231.08123382522055
    Total Energy =                       -231.0812338252204654
  Basis Set: CC-PVTZ
  Basis Set:
  Basis Set: CC-PVTZ
  Basis Set:
  @DF-RHF Final Energy:  -231.08124554618527
    Total Energy =                       -231.0812455461853006
  Basis Set: CC-PVTZ
  Basis Set:
  Basis Set: CC-PVTZ
  Basis Set:
  @DF-RHF Final Energy:  -231.08125861422641
    Total Energy =                       -231.0812586142265559
  Basis Set: CC-PVTZ
  Basis Set:
  Charge       = 0
  Multiplicity = 1
  Basis Set: CC-PVTZ
  Basis Set:

    Orbital Energies (a.u.)
    -----------------------

    Doubly Occupied:

       1A    -20.538503     2A    -11.320405     3A    -11.232007
       4A    -11.227951     5A    -11.227507     6A     -1.398331
       7A     -1.067856     8A     -0.997289     9A     -0.886216
      10A     -0.735112    11A     -0.656519    12A     -0.650105
      13A     -0.611585    14A     -0.596230    15A     -0.563451
      16A     -0.541602    17A     -0.530219    18A     -0.504126
      19A     -0.486332    20A     -0.402289

  @DF-RHF Final Energy:  -231.08125896223154

   => Energetics <=

    Nuclear Repulsion Energy =            177.2558865698333364
    One-Electron Energy =                -664.3270194520574705
    Two-Electron Energy =                 255.9898739199925330
    DFT Exchange-Correlation Energy =       0.0000000000000000
    Empirical Dispersion Energy =           0.0000000000000000
    PCM Polarization Energy =               0.0000000000000000
    EFP Energy =                            0.0000000000000000
    Total Energy =                       -231.0812589622315727
    Molecular point group: c1
  Basis Set: CC-PVTZ
  Basis Set:

  -Total Gradient:
     Atom            X                  Y                   Z
    ------   -----------------  -----------------  -----------------
       1        0.000019242928    -0.000013685793    -0.000788781777
       2       -0.000051112661     0.000019524451     0.001279552284
       3        0.000219799718    -0.000203946941    -0.001238097201
       4       -0.000008490510     0.000034285406     0.000016311946
       5        0.000001407975    -0.000040857614     0.000052339659
       6       -0.000195773626     0.000192717769     0.000715104083
       7       -0.000001719018     0.000010706887     0.000013185496
       8        0.000006803840     0.000006552549    -0.000023178649
       9        0.000004761534     0.000007500319    -0.000012665777
      10        0.000004627666     0.000003359838     0.000001944498
      11       -0.000004198686    -0.000008747609    -0.000010050788
      12        0.000013887544    -0.000007817134    -0.000003304583
      13       -0.000009236703     0.000000407873    -0.000002359192

  **** Optimization is complete! (in 8 steps) ****
    Final optimized geometry and variables:
    Molecular point group: c1

    Geometry (in Angstrom), charge = 0, multiplicity = 1:

    O            0.157493755235     1.558180569352    -0.271373773831
    C            0.290152676404     0.377861106421    -0.282810382927
    C           -0.910366514171    -0.547419756167    -0.299913784810
    C            1.660407374069    -0.259944671253    -0.293645245407
    C           -1.215914338344    -1.112252311909     1.091516561869
    H           -1.755653355090     0.027117406687    -0.652121042031
    H           -0.731688072986    -1.362017471665    -0.994115345561
    H           -1.405169405213    -0.311730917625     1.795962909724
    H           -2.096436145279    -1.740836603828     1.053866827484
    H           -0.399263283463    -1.712936385729     1.473601674740
    H            1.830982149750    -0.711350635005    -1.265903667932
    H            2.415768238601     0.488690916346    -0.110779381864
    H            1.734197173775    -1.048972495416     0.444666505568

  Mulliken Charges: (a.u.)
   Center  Symbol    Alpha    Beta     Spin     Total
       1     O     4.17406  4.17406  0.00000 -0.34811
       2     C     2.85375  2.85375  0.00000  0.29250
       3     C     3.09666  3.09666  0.00000 -0.19333
       4     C     3.15476  3.15476  0.00000 -0.30951
       5     C     3.15200  3.15200  0.00000 -0.30399
       6     H     0.43815  0.43815  0.00000  0.12370
       7     H     0.45142  0.45142  0.00000  0.09716
       8     H     0.44487  0.44487  0.00000  0.11025
       9     H     0.44467  0.44467  0.00000  0.11067
      10     H     0.45387  0.45387  0.00000  0.09227
      11     H     0.44890  0.44890  0.00000  0.10220
      12     H     0.43564  0.43564  0.00000  0.12872
      13     H     0.45126  0.45126  0.00000  0.09748

   Total alpha = 20.00000, Total beta = 20.00000, Total charge =  0.00000
