                              Psi4 1.0.54 Driver

  ==> Input File <==

--------------------------------------------------------------------------
set {
	reference rhf
	basis cc-pvtz
}

set_num_threads( 4 )
memory 2 gb

molecule MOL {
0 1

H	 -3.436473	 1.252944	 -1.023892
O	 -3.458596	 0.315260	 -0.960865
C	 -3.176635	 -0.080824	 0.355601
C	 -1.763371	 0.265266	 0.799691
H	 -3.321825	 -1.153438	 0.379502
H	 -3.895468	 0.357385	 1.043382
C	 -0.673390	 -0.426948	 -0.013392
H	 -1.631049	 1.344913	 0.747560
H	 -1.664587	 -0.001624	 1.849167
C	 -0.683201	 -0.034611	 -1.488501
H	 -0.787115	 -1.501469	 0.078180
H	 0.295641	 -0.185652	 0.417027
C	 0.413262	 -0.727015	 -2.295592
H	 -1.656694	 -0.268509	 -1.908610
H	 -0.564050	 1.043327	 -1.576306
C	 0.495812	 -0.305259	 -3.763637
H	 0.272909	 -1.804099	 -2.240452
H	 1.371193	 -0.523213	 -1.825005
C	 -0.710031	 -0.703874	 -4.611100
H	 1.386836	 -0.748194	 -4.197988
H	 0.635447	 0.771191	 -3.820010
H	 -0.877936	 -1.775378	 -4.569114
H	 -0.555355	 -0.435422	 -5.649970
H	 -1.618050	 -0.213872	 -4.280940

	symmetry c1
}
set optking {
	frozen_dihedral = ("
		11 7 4 3
	")
}

ee,wfn = optimize('scf', return_wfn=True)
oeprop( wfn, 'DIPOLE', 'QUADRUPOLE', 'MULLIKEN_CHARGES')
f=open( 'psi4out.xyz', 'w' )
f.write( "24  " )
f.write( str(ee) + "\n" )
f.write( MOL.save_string_xyz() )
f.close()
--------------------------------------------------------------------------

    Molecular point group: c1
  Charge       = 0
  Multiplicity = 1
  Basis Set: CC-PVTZ
  Basis Set:
  @DF-RHF Final Energy:  -349.37330965692507
    Total Energy =                       -349.3733096569250165
    Molecular point group: c1
  Basis Set: CC-PVTZ
  Basis Set:
  Basis Set: CC-PVTZ
  Basis Set:
  @DF-RHF Final Energy:  -349.34826408645267
    Total Energy =                       -349.3482640864526729
  Basis Set: CC-PVTZ
  Basis Set:
  Basis Set: CC-PVTZ
  Basis Set:
  @DF-RHF Final Energy:  -349.37613524491462
    Total Energy =                       -349.3761352449146216
  Basis Set: CC-PVTZ
  Basis Set:
  Basis Set: CC-PVTZ
  Basis Set:
  @DF-RHF Final Energy:  -349.37746621209249
    Total Energy =                       -349.3774662120924859
  Basis Set: CC-PVTZ
  Basis Set:
  @DF-RHF Final Energy:  -349.37752956373782
    Total Energy =                       -349.3775295637382214
  Basis Set: CC-PVTZ
  Basis Set:
  @DF-RHF Final Energy:  -349.37752978267287
    Total Energy =                       -349.3775297826725819
  Basis Set: CC-PVTZ
  Basis Set:
  Basis Set: CC-PVTZ
  Basis Set:
  @DF-RHF Final Energy:  -349.37753656009585
    Total Energy =                       -349.3775365600954501
  Basis Set: CC-PVTZ
  Basis Set:
  Basis Set: CC-PVTZ
  Basis Set:
  @DF-RHF Final Energy:  -349.37753761809927
    Total Energy =                       -349.3775376180992680
  Basis Set: CC-PVTZ
  Basis Set:
  Charge       = 0
  Multiplicity = 1
  Basis Set: CC-PVTZ
  Basis Set:

    Orbital Energies (a.u.)
    -----------------------

    Doubly Occupied:

       1A    -20.546957     2A    -11.266591     3A    -11.217109
       4A    -11.211916     5A    -11.208615     6A    -11.206031
       7A    -11.202560     8A    -11.200586     9A     -1.365132
      10A     -1.086319    11A     -1.046976    12A     -0.983870
      13A     -0.914344    14A     -0.855817    15A     -0.796020
      16A     -0.772669    17A     -0.683102    18A     -0.649826
      19A     -0.630590    20A     -0.609689    21A     -0.603415
      22A     -0.578662    23A     -0.549779    24A     -0.543592
      25A     -0.522930    26A     -0.507979    27A     -0.494617
      28A     -0.484414    29A     -0.467906    30A     -0.455853
      31A     -0.453857    32A     -0.436919    33A     -0.419652

  @DF-RHF Final Energy:  -349.37753764920819

   => Energetics <=

    Nuclear Repulsion Energy =            395.1566891835032038
    One-Electron Energy =               -1257.1198690881549282
    Two-Electron Energy =                 512.5856422554435312
    DFT Exchange-Correlation Energy =       0.0000000000000000
    Empirical Dispersion Energy =           0.0000000000000000
    PCM Polarization Energy =               0.0000000000000000
    EFP Energy =                            0.0000000000000000
    Total Energy =                       -349.3775376492081932
    Molecular point group: c1
  Basis Set: CC-PVTZ
  Basis Set:

  -Total Gradient:
     Atom            X                  Y                   Z
    ------   -----------------  -----------------  -----------------
       1       -0.000003380129    -0.000000704571     0.000001658564
       2        0.000024777904    -0.000002918370    -0.000001246189
       3        0.000012045424     0.000751704460    -0.000540311149
       4        0.000178935814    -0.001168142180     0.000979264771
       5       -0.000005052902    -0.000001373316    -0.000000632507
       6       -0.000000540428     0.000009785096    -0.000007280317
       7       -0.001147905578     0.000637887773    -0.001222981655
       8        0.000009548926     0.000000020380     0.000001104326
       9       -0.000007918380    -0.000002172527    -0.000000978926
      10       -0.000014324001     0.000004582287    -0.000008400947
      11        0.000953913806    -0.000234837442     0.000801050735
      12       -0.000001450348     0.000002736105     0.000005235809
      13        0.000004496970     0.000003060327     0.000002625158
      14       -0.000003989179     0.000007651226    -0.000004407470
      15        0.000005738327    -0.000004589297    -0.000002550833
      16        0.000001511598    -0.000001800582    -0.000009107508
      17       -0.000002294840    -0.000002772236     0.000002937727
      18        0.000001077654    -0.000000683810    -0.000004781318
      19       -0.000005273853     0.000004032726     0.000007800342
      20       -0.000005635407     0.000002486707     0.000006230179
      21       -0.000003608494    -0.000001520211     0.000000018927
      22        0.000002249046    -0.000000511362    -0.000000404481
      23        0.000000984321    -0.000000440071    -0.000000649133
      24        0.000006093754    -0.000001481111    -0.000004194104

  **** Optimization is complete! (in 9 steps) ****
    Final optimized geometry and variables:
    Molecular point group: c1

    Geometry (in Angstrom), charge = 0, multiplicity = 1:

    H           -1.802719317007     1.995897867315     1.334396816166
    O           -2.049581329730     1.093642156418     1.242281345169
    C           -1.507621192305     0.341646994150     2.295669962562
    C            0.015672623029     0.330122815683     2.345171598448
    H           -1.884226275043    -0.665430103775     2.165737376952
    H           -1.891114364381     0.706450873600     3.245342064011
    C            0.730890873560    -0.473661401260     1.256343824067
    H            0.373387976815     1.358900933572     2.336993026116
    H            0.302172844972    -0.077764738972     3.310787942071
    C            0.554136277228     0.021071296530    -0.178266186000
    H            0.416971079618    -1.512936313700     1.325147130797
    H            1.791963547089    -0.473506050331     1.493032174593
    C            1.391312949582    -0.780331074670    -1.173694782614
    H           -0.490931057649    -0.017080562441    -0.449904041052
    H            0.845316214735     1.068555371161    -0.232365626621
    C            1.308120407457    -0.289610488776    -2.620271832075
    H            1.091918152473    -1.825648422836    -1.135203921506
    H            2.431698495498    -0.752763161257    -0.860271190470
    C           -0.062144999579    -0.457514047888    -3.272477076202
    H            2.042226698159    -0.830798253774    -3.209627721519
    H            1.600424230136     0.756601610096    -2.660673135702
    H           -0.381292118967    -1.494568355303    -3.244496806990
    H           -0.033173089553    -0.150209190654    -4.311825792856
    H           -0.822242750404     0.134820924880    -2.778231472049

  Mulliken Charges: (a.u.)
   Center  Symbol    Alpha    Beta     Spin     Total
       1     H     0.39536  0.39536  0.00000  0.20927
       2     O     4.20246  4.20246  0.00000 -0.40491
       3     C     2.98414  2.98414  0.00000  0.03171
       4     C     3.10538  3.10538  0.00000 -0.21077
       5     H     0.45551  0.45551  0.00000  0.08899
       6     H     0.45595  0.45595  0.00000  0.08811
       7     C     3.09830  3.09830  0.00000 -0.19661
       8     H     0.45806  0.45806  0.00000  0.08388
       9     H     0.44671  0.44671  0.00000  0.10657
      10     C     3.09435  3.09435  0.00000 -0.18869
      11     H     0.45348  0.45348  0.00000  0.09305
      12     H     0.44937  0.44937  0.00000  0.10127
      13     C     3.09463  3.09463  0.00000 -0.18926
      14     H     0.43676  0.43676  0.00000  0.12648
      15     H     0.46055  0.46055  0.00000  0.07889
      16     C     3.08938  3.08938  0.00000 -0.17875
      17     H     0.45530  0.45530  0.00000  0.08940
      18     H     0.45120  0.45120  0.00000  0.09759
      19     C     3.15286  3.15286  0.00000 -0.30573
      20     H     0.44963  0.44963  0.00000  0.10075
      21     H     0.45605  0.45605  0.00000  0.08789
      22     H     0.45568  0.45568  0.00000  0.08865
      23     H     0.44769  0.44769  0.00000  0.10461
      24     H     0.45119  0.45119  0.00000  0.09762

   Total alpha = 33.00000, Total beta = 33.00000, Total charge =  0.00000

*** Psi4 exiting successfully. Buy a developer a beer!
