  ==> Input File <==

--------------------------------------------------------------------------
set {
	reference rhf
	basis cc-pvtz
}

set_num_threads( 4 )
memory 2 gb

molecule MOL {
0 1

H	 -3.642953	 0.223825	 0.000000
C	 -2.571844	 0.155001	 0.000000
C	 -1.957580	 -1.086132	 0.000000
C	 -1.807160	 1.303787	 0.000000
H	 -2.551493	 -1.979629	 0.000000
C	 -0.582719	 -1.174294	 0.000000
H	 -2.279934	 2.266806	 0.000000
C	 -0.427220	 1.213406	 0.000000
H	 -0.094904	 -2.127556	 0.000000
C	 0.196908	 -0.024061	 0.000000
H	 0.151409	 2.115254	 0.000000
C	 1.690041	 -0.173233	 0.000000
C	 2.544231	 0.989030	 -0.451841
O	 2.195360	 -1.191630	 0.350546
H	 2.310871	 1.262128	 -1.474064
H	 3.580723	 0.699421	 -0.384457
H	 2.370411	 1.858085	 0.171465

	symmetry c1
}
set optking {
	frozen_dihedral = ("
		13 12 10 8
	")
}

ee = optimize('scf')
oeprop('DIPOLE', 'QUADRUPOLE', 'MULLIKEN_CHARGES')
f=open( 'psi4out.xyz', 'w' )
f.write( "17  " )
f.write( str(ee) + "\n" )
f.write( MOL.save_string_xyz() )
f.close()
--------------------------------------------------------------------------

    Molecular point group: c1
  Charge       = 0
  Multiplicity = 1
  Basis Set: CC-PVTZ
  Basis Set:
  @DF-RHF Final Energy:  -382.60481762062454
    Total Energy =                       -382.6048176206247717
    Molecular point group: c1
  Basis Set: CC-PVTZ
  Basis Set:
  Basis Set: CC-PVTZ
  Basis Set:
  @DF-RHF Final Energy:  -382.60252278314005
    Total Energy =                       -382.6025227831404436
  Basis Set: CC-PVTZ
  Basis Set:
  Basis Set: CC-PVTZ
  Basis Set:
  @DF-RHF Final Energy:  -382.60501816534224
    Total Energy =                       -382.6050181653426989
  Basis Set: CC-PVTZ
  Basis Set:
  Basis Set: CC-PVTZ
  Basis Set:
  @DF-RHF Final Energy:  -382.60508318923968
    Total Energy =                       -382.6050831892396218
  Basis Set: CC-PVTZ
  Basis Set:
  Basis Set: CC-PVTZ
  Basis Set:
  @DF-RHF Final Energy:  -382.60509160415717
    Total Energy =                       -382.6050916041568826
  Basis Set: CC-PVTZ
  Basis Set:
  Charge       = 0
  Multiplicity = 1
  Basis Set: CC-PVTZ
  Basis Set:

    Orbital Energies (a.u.)
    -----------------------

    Doubly Occupied:

       1A    -20.540964     2A    -11.327912     3A    -11.246658
       4A    -11.243941     5A    -11.242811     6A    -11.239162
       7A    -11.238957     8A    -11.236752     9A    -11.229061
      10A     -1.402301    11A     -1.171194    12A     -1.053424
      13A     -1.030667    14A     -0.998984    15A     -0.864445
      16A     -0.839161    17A     -0.763709    18A     -0.712649
      19A     -0.659225    20A     -0.651953    21A     -0.628326
      22A     -0.612998    23A     -0.602689    24A     -0.598572
      25A     -0.556435    26A     -0.530118    27A     -0.520648
      28A     -0.504039    29A     -0.497441    30A     -0.414492
      31A     -0.350705    32A     -0.346815

  @DF-RHF Final Energy:  -382.60509495840222

   => Energetics <=

    Nuclear Repulsion Energy =            404.4468874540073102
    One-Electron Energy =               -1320.3895453427624034
    Two-Electron Energy =                 533.3375629303529877
    DFT Exchange-Correlation Energy =       0.0000000000000000
    Empirical Dispersion Energy =           0.0000000000000000
    PCM Polarization Energy =               0.0000000000000000
    EFP Energy =                            0.0000000000000000
    Total Energy =                       -382.6050949584021055
    Molecular point group: c1
  Basis Set: CC-PVTZ
  Basis Set:

  -Total Gradient:
     Atom            X                  Y                   Z
    ------   -----------------  -----------------  -----------------
       1       -0.000000494424    -0.000001661646    -0.000009258738
       2        0.000010687267     0.000027923576     0.000043081517
       3        0.000020543791    -0.000010929889    -0.000008027141
       4       -0.000037054622    -0.000007546510    -0.000006812403
       5       -0.000002450645     0.000002715411     0.000005401972
       6       -0.000018822993     0.000005663558    -0.000053655931
       7       -0.000003179963    -0.000001867627     0.000000318690
       8       -0.000015238099     0.000007796876     0.001867704233
       9        0.000002970187    -0.000002161174     0.000025425031
      10        0.000021455712    -0.000258319990    -0.003595669036
      11       -0.000018634798    -0.000014349151     0.000025113329
      12        0.000098549392     0.000771969350     0.003293342295
      13       -0.000017550401    -0.000587520571    -0.001553571093
      14       -0.000037095357     0.000061026316    -0.000003703365
      15        0.000005739155     0.000001958291    -0.000016208007
      16        0.000001368129     0.000015333783    -0.000013373086
      17       -0.000010792323    -0.000010030604    -0.000000108266

  **** Optimization is complete! (in 6 steps) ****
    Final optimized geometry and variables:
    Molecular point group: c1

    Geometry (in Angstrom), charge = 0, multiplicity = 1:

    H           -3.641767013276     0.224701741113     0.019180916765
    C           -2.570640373229     0.156196432747     0.013934452786
    C           -1.956147754341    -1.084655336887     0.026840491047
    C           -1.806059709730     1.305072871380    -0.003873566607
    H           -2.549939599671    -1.978164080328     0.042035829366
    C           -0.580940764039    -1.172614961231     0.027369057835
    H           -2.278943751915     2.268107809055    -0.007215937139
    C           -0.426129156485     1.214985081593    -0.017888957827
    H           -0.093484763624    -2.126037102647     0.053214747075
    C            0.197121993378    -0.022440756634    -0.004908625728
    H            0.153872426822     2.116260827284    -0.034588902574
    C            1.690460172650    -0.168535836236     0.023617627474
    C            2.545188502813     0.998890267951    -0.414305301354
    O            2.190219319939    -1.195365307838     0.355237881534
    H            2.233100464757     1.359499128322    -1.386708352413
    H            3.574124258507     0.677896178864    -0.452960248331
    H            2.457570314772     1.820588916270     0.287200041336

  Mulliken Charges: (a.u.)
   Center  Symbol    Alpha    Beta     Spin     Total
       1     H     0.42035  0.42035  0.00000  0.15931
       2     C     3.07381  3.07381  0.00000 -0.14762
       3     C     3.07279  3.07279  0.00000 -0.14559
       4     C     3.07521  3.07521  0.00000 -0.15043
       5     H     0.42038  0.42038  0.00000  0.15924
       6     C     3.07743  3.07743  0.00000 -0.15486
       7     H     0.42217  0.42217  0.00000  0.15566
       8     C     3.08711  3.08711  0.00000 -0.17422
       9     H     0.40845  0.40845  0.00000  0.18310
      10     C     3.00577  3.00577  0.00000 -0.01154
      11     H     0.42184  0.42184  0.00000  0.15631
      12     C     2.84174  2.84174  0.00000  0.31652
      13     C     3.16519  3.16519  0.00000 -0.33038
      14     O     4.18132  4.18132  0.00000 -0.36264
      15     H     0.44515  0.44515  0.00000  0.10971
      16     H     0.43217  0.43217  0.00000  0.13566
      17     H     0.44912  0.44912  0.00000  0.10177

   Total alpha = 32.00000, Total beta = 32.00000, Total charge = -0.00000
