  ==> Input File <==

--------------------------------------------------------------------------
set {
	reference rhf
	basis 6-31G*
}

set_num_threads( 4 )
memory 2 gb

molecule MOL {
0 1

H	 2.253813	 -1.918868	 0.074608
O	 2.826016	 -1.159218	 0.122261
C	 2.077727	 -0.067559	 -0.035091
C	 0.624473	 -0.343591	 0.253101
O	 2.542965	 0.974826	 -0.363729
C	 -0.265902	 0.883932	 0.072916
H	 0.324016	 -1.163849	 -0.390541
H	 0.565024	 -0.726111	 1.268924
C	 -1.728698	 0.646073	 0.462102
H	 -0.209144	 1.219470	 -0.958188
H	 0.135059	 1.692851	 0.673903
C	 -2.482460	 -0.343073	 -0.431425
H	 -2.245265	 1.602650	 0.432430
H	 -1.779332	 0.308348	 1.496285
C	 -3.960546	 -0.461025	 -0.060175
H	 -2.395034	 -0.026811	 -1.468912
H	 -2.024850	 -1.327147	 -0.371646
H	 -4.472726	 -1.168004	 -0.705284
H	 -4.465146	 0.496508	 -0.151489
H	 -4.081218	 -0.800940	 0.964585

	symmetry c1
}
set optking {
	frozen_dihedral = ("
		1 2 3 5
	")
}

ee = optimize('scf')
oeprop('DIPOLE', 'QUADRUPOLE', 'MULLIKEN_CHARGES')
f=open( 'psi4out.xyz', 'w' )
f.write( "20  " )
f.write( str(ee) + "\n" )
f.write( MOL.save_string_xyz() )
f.close()
--------------------------------------------------------------------------

    Molecular point group: c1
  Charge       = 0
  Multiplicity = 1
  Basis Set: 6-31G*
  Basis Set:
  @DF-RHF Final Energy:  -383.93472546063356
    Total Energy =                       -383.9347254606332740
    Molecular point group: c1
  Basis Set: 6-31G*
  Basis Set:
  Basis Set: 6-31G*
  Basis Set:
  @DF-RHF Final Energy:  -383.93613180498642
    Total Energy =                       -383.9361318049862462
  Basis Set: 6-31G*
  Basis Set:
  Basis Set: 6-31G*
  Basis Set:
  @DF-RHF Final Energy:  -383.93632346527227
    Total Energy =                       -383.9363234652721530
  Basis Set: 6-31G*
  Basis Set:
  Basis Set: 6-31G*
  Basis Set:
  @DF-RHF Final Energy:  -383.93630977400812
    Total Energy =                       -383.9363097740082367
  Basis Set: 6-31G*
  Basis Set:
  Basis Set: 6-31G*
  Basis Set:
  @DF-RHF Final Energy:  -383.93632668056745
    Total Energy =                       -383.9363266805671628
  Basis Set: 6-31G*
  Basis Set:
  Basis Set: 6-31G*
  Basis Set:
  @DF-RHF Final Energy:  -383.93632848146228
    Total Energy =                       -383.9363284814624535
  Basis Set: 6-31G*
  Basis Set:
  Charge       = 0
  Multiplicity = 1
  Basis Set: 6-31G*
  Basis Set:

    Orbital Energies (a.u.)
    -----------------------

    Doubly Occupied:

       1A    -20.610512     2A    -20.548609     3A    -11.380322
       4A    -11.251618     5A    -11.228594     6A    -11.226135
       7A    -11.225346     8A    -11.216833     9A     -1.466950
      10A     -1.369710    11A     -1.101440    12A     -1.044395
      13A     -0.960965    14A     -0.866440    15A     -0.830107
      16A     -0.792991    17A     -0.720370    18A     -0.669435
      19A     -0.658600    20A     -0.637829    21A     -0.609696
      22A     -0.596962    23A     -0.576540    24A     -0.564198
      25A     -0.541713    26A     -0.518216    27A     -0.500640
      28A     -0.479986    29A     -0.475171    30A     -0.470069
      31A     -0.462537    32A     -0.439862

  @DF-RHF Final Energy:  -383.93632827871642

   => Energetics <=

    Nuclear Repulsion Energy =            375.8893540200238590
    One-Electron Energy =               -1267.5657816192242535
    Two-Electron Energy =                 507.7400993204840347
    DFT Exchange-Correlation Energy =       0.0000000000000000
    Empirical Dispersion Energy =           0.0000000000000000
    PCM Polarization Energy =               0.0000000000000000
    EFP Energy =                            0.0000000000000000
    Total Energy =                       -383.9363282787164167
    Molecular point group: c1
  Basis Set: 6-31G*
  Basis Set:

  -Total Gradient:
     Atom            X                  Y                   Z
    ------   -----------------  -----------------  -----------------
       1        0.000648639314    -0.000209302572    -0.004606244326
       2       -0.001068952251    -0.000216302390     0.004151088028
       3        0.000990140242     0.001385657151     0.004247653823
       4       -0.000041457437     0.000012777236     0.000022202604
       5       -0.000594286867    -0.000972429478    -0.003802468631
       6        0.000011637454     0.000007364081     0.000015601697
       7       -0.000024972865    -0.000023628071    -0.000016198406
       8        0.000023889652     0.000007311898    -0.000000030089
       9        0.000018069989    -0.000012850332     0.000008596325
      10       -0.000008227447     0.000005909600    -0.000003030836
      11        0.000002644548     0.000010900499     0.000009047746
      12        0.000004491164     0.000007552613    -0.000024804517
      13        0.000030303870     0.000002038500    -0.000014831173
      14       -0.000006163206     0.000012794625     0.000008803531
      15        0.000003452395    -0.000014935533     0.000011781371
      16       -0.000011076235     0.000004921680    -0.000002680337
      17        0.000020366644    -0.000005154480    -0.000006536075
      18        0.000002573671    -0.000004995266     0.000004959395
      19        0.000001890145    -0.000001629258    -0.000006483938
      20       -0.000002962788     0.000003999498     0.000003573808

  **** Optimization is complete! (in 7 steps) ****
    Final optimized geometry and variables:
    Molecular point group: c1

    Geometry (in Angstrom), charge = 0, multiplicity = 1:

    H            2.427567850926    -1.946286785305     0.087697454252
    O            2.902593826208    -1.126561200693     0.118542304261
    C            2.090430253165    -0.070720327400    -0.034535322143
    C            0.627752239576    -0.344973637430     0.252656141219
    O            2.527936447166     0.973765323398    -0.370223978216
    C           -0.259743012790     0.885150969143     0.074318998643
    H            0.308557107300    -1.156801159877    -0.397720401250
    H            0.558712023822    -0.726406490659     1.269684688074
    C           -1.723552214633     0.653206647679     0.462370578207
    H           -0.198406347789     1.221159578899    -0.955875938205
    H            0.147148395191     1.689095974355     0.677064863903
    C           -2.482395922296    -0.331752171257    -0.431597586074
    H           -2.234534614594     1.612511161427     0.431654145787
    H           -1.777347368802     0.316833460706     1.496859857407
    C           -3.961254287501    -0.441696489056    -0.061072604339
    H           -2.392517217204    -0.016439262848    -1.469087981469
    H           -2.030829505640    -1.319044168455    -0.371458014337
    H           -4.476596453925    -1.147079300434    -0.705309146437
    H           -4.460518974852     0.518256273267    -0.154669558234
    H           -4.084428795890    -0.778860906876     0.964272318909

  Mulliken Charges: (a.u.)
   Center  Symbol    Alpha    Beta     Spin     Total
       1     H     0.26919  0.26919  0.00000  0.46161
       2     O     4.35385  4.35385  0.00000 -0.70771
       3     C     2.60751  2.60751  0.00000  0.78498
       4     C     3.23663  3.23663  0.00000 -0.47327
       5     O     4.26157  4.26157  0.00000 -0.52314
       6     C     3.15239  3.15239  0.00000 -0.30478
       7     H     0.40783  0.40783  0.00000  0.18434
       8     H     0.40143  0.40143  0.00000  0.19714
       9     C     3.15640  3.15640  0.00000 -0.31279
      10     H     0.40983  0.40983  0.00000  0.18034
      11     H     0.40465  0.40465  0.00000  0.19071
      12     C     3.15471  3.15471  0.00000 -0.30941
      13     H     0.41617  0.41617  0.00000  0.16766
      14     H     0.42365  0.42365  0.00000  0.15269
      15     C     3.23928  3.23928  0.00000 -0.47856
      16     H     0.42046  0.42046  0.00000  0.15909
      17     H     0.42576  0.42576  0.00000  0.14847
      18     H     0.41795  0.41795  0.00000  0.16410
      19     H     0.41955  0.41955  0.00000  0.16091
      20     H     0.42119  0.42119  0.00000  0.15763

   Total alpha = 32.00000, Total beta = 32.00000, Total charge = -0.00000
