  ==> Input File <==

--------------------------------------------------------------------------
set {
	reference rhf
	basis 6-31G*
}

set_num_threads( 4 )
memory 2 gb

molecule MOL {
0 1

H	 -3.420663	 1.227371	 -1.044276
O	 -3.452007	 0.283848	 -0.965577
C	 -3.181085	 -0.079926	 0.364119
C	 -1.765924	 0.277073	 0.805136
H	 -3.327791	 -1.152017	 0.410903
H	 -3.905698	 0.375695	 1.036898
C	 -0.677594	 -0.417312	 -0.014550
H	 -1.637766	 1.358238	 0.744969
H	 -1.659588	 0.017670	 1.857098
C	 0.738335	 -0.034840	 0.421385
H	 -0.814977	 -0.178223	 -1.064632
H	 -0.802730	 -1.495410	 0.071702
C	 1.822265	 -0.738362	 -0.399735
H	 0.853533	 1.043532	 0.342250
H	 0.871597	 -0.279636	 1.474438
C	 2.323758	 0.053742	 -1.612679
H	 1.449967	 -1.705971	 -0.732636
H	 2.669724	 -0.947632	 0.249754
C	 1.278474	 0.267262	 -2.709125
H	 3.173783	 -0.472687	 -2.040018
H	 2.701278	 1.018901	 -1.280793
H	 0.873674	 -0.681256	 -3.052040
H	 1.716611	 0.767860	 -3.567190
H	 0.448710	 0.876647	 -2.366626

	symmetry c1
}
set optking {
	frozen_dihedral = ("
		17 13 10 7
	")
}

ee = optimize('scf')
oeprop('DIPOLE', 'QUADRUPOLE', 'MULLIKEN_CHARGES')
f=open( 'psi4out.xyz', 'w' )
f.write( "24  " )
f.write( str(ee) + "\n" )
f.write( MOL.save_string_xyz() )
f.close()
--------------------------------------------------------------------------

    Molecular point group: c1
  Charge       = 0
  Multiplicity = 1
  Basis Set: 6-31G*
  Basis Set:
  @DF-RHF Final Energy:  -349.24217748248628
    Total Energy =                       -349.2421774824863405
    Molecular point group: c1
  Basis Set: 6-31G*
  Basis Set:
  Basis Set: 6-31G*
  Basis Set:
  @DF-RHF Final Energy:  -349.24290199324122
    Total Energy =                       -349.2429019932410483
  Basis Set: 6-31G*
  Basis Set:
  Basis Set: 6-31G*
  Basis Set:
  @DF-RHF Final Energy:  -349.24306920409504
    Total Energy =                       -349.2430692040949225
  Basis Set: 6-31G*
  Basis Set:
  Basis Set: 6-31G*
  Basis Set:
  @DF-RHF Final Energy:  -349.24313796975451
    Total Energy =                       -349.2431379697546845
  Basis Set: 6-31G*
  Basis Set:
  Basis Set: 6-31G*
  Basis Set:
  @DF-RHF Final Energy:  -349.24314007177412
    Total Energy =                       -349.2431400717745191
  Basis Set: 6-31G*
  Basis Set:
  Charge       = 0
  Multiplicity = 1
  Basis Set: 6-31G*
  Basis Set:

    Orbital Energies (a.u.)
    -----------------------

    Doubly Occupied:

       1A    -20.553627     2A    -11.267650     3A    -11.217128
       4A    -11.213753     5A    -11.212979     6A    -11.211814
       7A    -11.210200     8A    -11.206048     9A     -1.360160
      10A     -1.086903    11A     -1.046354    12A     -0.983826
      13A     -0.918644    14A     -0.849726    15A     -0.801479
      16A     -0.773372    17A     -0.679421    18A     -0.653138
      19A     -0.624073    20A     -0.614129    21A     -0.598564
      22A     -0.584336    23A     -0.560080    24A     -0.533337
      25A     -0.526171    26A     -0.508429    27A     -0.493068
      28A     -0.478589    29A     -0.467355    30A     -0.459864
      31A     -0.453701    32A     -0.442143    33A     -0.418917

  @DF-RHF Final Energy:  -349.24314055021171

   => Energetics <=

    Nuclear Repulsion Energy =            393.1815558383999587
    One-Electron Energy =               -1252.8314375245488463
    Two-Electron Energy =                 510.4067411359371249
    DFT Exchange-Correlation Energy =       0.0000000000000000
    Empirical Dispersion Energy =           0.0000000000000000
    PCM Polarization Energy =               0.0000000000000000
    EFP Energy =                            0.0000000000000000
    Total Energy =                       -349.2431405502117627
    Molecular point group: c1
  Basis Set: 6-31G*
  Basis Set:

  -Total Gradient:
     Atom            X                  Y                   Z
    ------   -----------------  -----------------  -----------------
       1       -0.000001087702     0.000001277598    -0.000001539947
       2       -0.000007503958     0.000008597572     0.000002927104
       3       -0.000018373569    -0.000002361508     0.000013655548
       4       -0.000033685177    -0.000017441417    -0.000028157306
       5        0.000003549376     0.000000912413     0.000001732700
       6       -0.000012841969    -0.000002521134    -0.000001902922
       7        0.000014582743     0.000128567749    -0.000028028016
       8        0.000012479839    -0.000014682274    -0.000011416148
       9        0.000006818959    -0.000004910256    -0.000010730938
      10        0.000020544641    -0.000143562948     0.000159407524
      11        0.000009859526    -0.000003203983    -0.000017037175
      12       -0.000013254732     0.000033225482    -0.000004971394
      13       -0.000059935793     0.000142560133    -0.000189796192
      14       -0.000042071603    -0.000016986465     0.000003202889
      15       -0.000005676862     0.000019816862     0.000019683260
      16        0.000030732766    -0.000055501383    -0.000021072312
      17        0.000051350987    -0.000031571741     0.000106490100
      18        0.000054825941    -0.000033952586    -0.000075390810
      19       -0.000006306547     0.000012012668     0.000045807275
      20        0.000042543623     0.000015477828    -0.000008729706
      21       -0.000039521803     0.000003010820     0.000007109415
      22       -0.000020313233    -0.000022726382     0.000016581812
      23        0.000012466233    -0.000023938978     0.000039531050
      24        0.000000818316     0.000007901932    -0.000017355808

  **** Optimization is complete! (in 6 steps) ****
    Final optimized geometry and variables:
    Molecular point group: c1

    Geometry (in Angstrom), charge = 0, multiplicity = 1:

    H           -3.057759838591     1.212096845303    -0.493810664137
    O           -3.082411679285     0.271591097478    -0.383445941279
    C           -2.775568749226    -0.047077161312     0.950155783951
    C           -1.349752192541     0.325855805579     1.340854754590
    H           -2.918776189336    -1.117075106868     1.036586356133
    H           -3.483060225892     0.429930971986     1.626237554084
    C           -0.282652380286    -0.393898768333     0.514908163166
    H           -1.225569550306     1.404648166518     1.241484011768
    H           -1.214503873532     0.101890074539     2.397724223788
    C            1.143062636911    -0.008753096865     0.923879198532
    H           -0.450871176579    -0.190284706281    -0.535483178991
    H           -0.405819970544    -1.468559543055     0.639038379233
    C            2.258572936437    -0.702057101612     0.117149354921
    H            1.263715960205     1.071441880503     0.855655195940
    H            1.267524017136    -0.253545431722     1.976319420234
    C            2.797379548458     0.078409762362    -1.089288102730
    H            1.914325574528    -1.681474360566    -0.210249354340
    H            3.100318349626    -0.890140332344     0.778632354995
    C            1.792718570323     0.349565496523    -2.209727569369
    H            3.635966167098    -0.477567425653    -1.502205892098
    H            3.206313908945     1.024982742860    -0.741245917812
    H            1.334409350527    -0.570595490132    -2.560944706062
    H            2.284782171533     0.817716922638    -3.056921771680
    H            0.997894756576     1.014569753273    -1.889378152988

  Mulliken Charges: (a.u.)
   Center  Symbol    Alpha    Beta     Spin     Total
       1     H     0.28340  0.28340  0.00000  0.43320
       2     O     4.36824  4.36824  0.00000 -0.73649
       3     C     2.99617  2.99617  0.00000  0.00765
       4     C     3.16935  3.16935  0.00000 -0.33871
       5     H     0.41631  0.41631  0.00000  0.16739
       6     H     0.42821  0.42821  0.00000  0.14358
       7     C     3.15518  3.15518  0.00000 -0.31036
       8     H     0.42848  0.42848  0.00000  0.14304
       9     H     0.42250  0.42250  0.00000  0.15500
      10     C     3.15604  3.15604  0.00000 -0.31209
      11     H     0.40771  0.40771  0.00000  0.18459
      12     H     0.42369  0.42369  0.00000  0.15262
      13     C     3.15497  3.15497  0.00000 -0.30994
      14     H     0.42415  0.42415  0.00000  0.15169
      15     H     0.42247  0.42247  0.00000  0.15507
      16     C     3.15113  3.15113  0.00000 -0.30227
      17     H     0.42231  0.42231  0.00000  0.15538
      18     H     0.42075  0.42075  0.00000  0.15850
      19     C     3.24089  3.24089  0.00000 -0.48178
      20     H     0.42207  0.42207  0.00000  0.15586
      21     H     0.42429  0.42429  0.00000  0.15141
      22     H     0.42030  0.42030  0.00000  0.15940
      23     H     0.42002  0.42002  0.00000  0.15997
      24     H     0.42136  0.42136  0.00000  0.15728

   Total alpha = 33.00000, Total beta = 33.00000, Total charge = -0.00000
