  ==> Input File <==

--------------------------------------------------------------------------
set {
	reference rhf
	basis 6-31G*
}

set_num_threads( 4 )
memory 2 gb

molecule MOL {
0 1

H	 -2.698709	 -0.000305	 0.034435
C	 -1.693833	 0.000034	 0.434417
O	 -0.828952	 -0.000968	 -0.659236
H	 -1.574200	 0.882896	 1.055746
H	 -1.574147	 -0.881698	 1.057355
C	 0.559449	 -0.000018	 -0.420814
C	 0.921782	 -0.614926	 0.929564
C	 1.351485	 -0.617983	 -1.571360
H	 0.801684	 1.055315	 -0.380486
H	 0.305805	 -0.189042	 1.714257
H	 1.961631	 -0.409684	 1.163708
H	 0.792180	 -1.692557	 0.938504
H	 1.032439	 -0.194780	 -2.517704
H	 2.409946	 -0.412104	 -1.445912
H	 1.232593	 -1.695637	 -1.620019

	symmetry c1
}
set optking {
	frozen_dihedral = ("
		9 6 3 2
	")
}

ee = optimize('scf')
oeprop('DIPOLE', 'QUADRUPOLE', 'MULLIKEN_CHARGES')
f=open( 'psi4out.xyz', 'w' )
f.write( "15  " )
f.write( str(ee) + "\n" )
f.write( MOL.save_string_xyz() )
f.close()
--------------------------------------------------------------------------

    Molecular point group: c1
  Charge       = 0
  Multiplicity = 1
  Basis Set: 6-31G*
  Basis Set:
  @DF-RHF Final Energy:  -232.13104387536714
    Total Energy =                       -232.1310438753673111
    Molecular point group: c1
  Basis Set: 6-31G*
  Basis Set:
  Basis Set: 6-31G*
  Basis Set:
  @DF-RHF Final Energy:  -232.13411860026372
    Total Energy =                       -232.1341186002637187
  Basis Set: 6-31G*
  Basis Set:
  Basis Set: 6-31G*
  Basis Set:
  @DF-RHF Final Energy:  -232.13656132049090
    Total Energy =                       -232.1365613204908414
  Basis Set: 6-31G*
  Basis Set:
  Basis Set: 6-31G*
  Basis Set:
  @DF-RHF Final Energy:  -232.13685957778253
    Total Energy =                       -232.1368595777825021
  Basis Set: 6-31G*
  Basis Set:
  Basis Set: 6-31G*
  Basis Set:
  @DF-RHF Final Energy:  -232.13690336817768
    Total Energy =                       -232.1369033681777978
  Basis Set: 6-31G*
  Basis Set:
  Basis Set: 6-31G*
  Basis Set:
  @DF-RHF Final Energy:  -232.13690848604398
    Total Energy =                       -232.1369084860438647
  Basis Set: 6-31G*
  Basis Set:
  Charge       = 0
  Multiplicity = 1
  Basis Set: 6-31G*
  Basis Set:

    Orbital Energies (a.u.)
    -----------------------

    Doubly Occupied:

       1A    -20.547901     2A    -11.274651     3A    -11.262348
       4A    -11.214591     5A    -11.204686     6A     -1.370266
       7A     -1.053119     8A     -0.949366     9A     -0.912842
      10A     -0.785633    11A     -0.676150    12A     -0.641299
      13A     -0.630462    14A     -0.592320    15A     -0.550888
      16A     -0.542931    17A     -0.525470    18A     -0.502223
      19A     -0.494416    20A     -0.448949    21A     -0.403702

  @DF-RHF Final Energy:  -232.13690867193736

   => Energetics <=

    Nuclear Repulsion Energy =            197.9049160425299760
    One-Electron Energy =                -706.9152228455120621
    Two-Electron Energy =                 276.8733981310448939
    DFT Exchange-Correlation Energy =       0.0000000000000000
    Empirical Dispersion Energy =           0.0000000000000000
    PCM Polarization Energy =               0.0000000000000000
    EFP Energy =                            0.0000000000000000
    Total Energy =                       -232.1369086719371921
    Molecular point group: c1
  Basis Set: 6-31G*
  Basis Set:

  -Total Gradient:
     Atom            X                  Y                   Z
    ------   -----------------  -----------------  -----------------
       1        0.000004707445    -0.000002446019    -0.000018251312
       2        0.000229626860    -0.004354638562     0.000289886791
       3       -0.000153646998     0.006370310715    -0.001540072990
       4        0.000002411599     0.000006425123    -0.000007754122
       5        0.000002559325     0.000001965736    -0.000017337646
       6       -0.001238975913    -0.001736081338     0.006290246792
       7        0.000013146198     0.000018442184     0.000000814234
       8       -0.000007385662    -0.000031328662    -0.000001959093
       9        0.001143363958    -0.000252174220    -0.004975861618
      10       -0.000007186033     0.000002851020     0.000010521842
      11       -0.000009148251     0.000002996395    -0.000017540525
      12        0.000015367304    -0.000006195559    -0.000019677251
      13        0.000009931895     0.000014731556     0.000013469465
      14       -0.000013940036    -0.000014471951     0.000023961144
      15        0.000009168311    -0.000020386420    -0.000030445712

  **** Optimization is complete! (in 7 steps) ****
    Final optimized geometry and variables:
    Molecular point group: c1

    Geometry (in Angstrom), charge = 0, multiplicity = 1:

    H           -2.754665005232     0.212537797823     0.142456269122
    C           -1.777272325288     0.209741407170     0.606102347111
    O           -0.845566836310     0.198987202413    -0.428755906470
    H           -1.690678186999     1.098958258143     1.228088267453
    H           -1.700752358900    -0.666668257267     1.241531877906
    C            0.528000778826     0.297847423254    -0.124138232613
    C            0.941595758846    -0.343530225310     1.196613407087
    C            1.255619371366    -0.342841821480    -1.299525818228
    H            0.795855299644     1.354297477210    -0.116169453300
    H            0.484244532651     0.135824516136     2.054546270716
    H            2.017130938584    -0.259662108918     1.311945060491
    H            0.683923766629    -1.398064105771     1.213649580740
    H            0.930874927019     0.110761784095    -2.228666623019
    H            2.329681780212    -0.212514684374    -1.208962775510
    H            1.037141757866    -1.404800852033    -1.347054792556

  Mulliken Charges: (a.u.)
   Center  Symbol    Alpha    Beta     Spin     Total
       1     H     0.41242  0.41242  0.00000  0.17517
       2     C     3.07807  3.07807  0.00000 -0.15614
       3     O     4.31563  4.31563  0.00000 -0.63126
       4     H     0.43193  0.43193  0.00000  0.13614
       5     H     0.42786  0.42786  0.00000  0.14428
       6     C     2.90217  2.90217  0.00000  0.19565
       7     C     3.26238  3.26238  0.00000 -0.52475
       8     C     3.23955  3.23955  0.00000 -0.47910
       9     H     0.42907  0.42907  0.00000  0.14187
      10     H     0.41571  0.41571  0.00000  0.16859
      11     H     0.41507  0.41507  0.00000  0.16986
      12     H     0.41546  0.41546  0.00000  0.16908
      13     H     0.41100  0.41100  0.00000  0.17800
      14     H     0.42513  0.42513  0.00000  0.14973
      15     H     0.41856  0.41856  0.00000  0.16289

   Total alpha = 21.00000, Total beta = 21.00000, Total charge = -0.00000
