  ==> Input File <==

--------------------------------------------------------------------------
set {
	reference rhf
	basis 6-31G*
}

set_num_threads( 1 )
memory 2 gb

molecule MOL {
0 1

H	 -3.161837	 0.500524	 -0.000234
C	 -2.367097	 -0.232926	 -0.000000
O	 -1.158440	 0.455814	 -0.000122
H	 -2.468853	 -0.861886	 -0.882833
H	 -2.468942	 -0.861421	 0.883154
C	 -0.029776	 -0.365156	 0.000148
C	 0.234979	 -0.834986	 -1.419650
H	 -0.187744	 -1.220286	 0.658706
H	 0.832088	 0.181697	 0.384920
C	 1.459060	 -1.744551	 -1.515552
H	 -0.647359	 -1.354557	 -1.780464
H	 0.365402	 0.037569	 -2.052372
H	 1.338442	 -2.636965	 -0.907711
H	 1.624670	 -2.064260	 -2.538882
H	 2.358435	 -1.235141	 -1.180842

	symmetry c1
}
set optking {
	frozen_dihedral = ("
		6 3 2 4,
		11 7 6 8
	")
}

ee = energy('scf')
oeprop('DIPOLE', 'QUADRUPOLE', 'MULLIKEN_CHARGES')
f=open( 'psi4out.xyz', 'w' )
f.write( "15  " )
f.write( str(ee) + "\n" )
f.write( MOL.save_string_xyz() )
f.close()
--------------------------------------------------------------------------

    Molecular point group: c1

    Geometry (in Angstrom), charge = 0, multiplicity = 1:

       Center              X                  Y                   Z               Mass
    ------------   -----------------  -----------------  -----------------  -----------------
           H         -2.764962398653     1.046334362718     0.576185169050     1.007825032070
           C         -1.970222398653     0.312884362718     0.576419169050    12.000000000000
           O         -0.761565398653     1.001624362718     0.576297169050    15.994914619560
           H         -2.071978398653    -0.316075637282    -0.306413830950     1.007825032070
           H         -2.072067398653    -0.315610637282     1.459573169050     1.007825032070
           C          0.367098601347     0.180654362718     0.576567169050    12.000000000000
           C          0.631853601347    -0.289175637282    -0.843230830950    12.000000000000
           H          0.209130601347    -0.674475637282     1.235125169050     1.007825032070
           H          1.228962601347     0.727507362718     0.961339169050     1.007825032070
           C          1.855934601347    -1.198740637282    -0.939132830950    12.000000000000
           H         -0.250484398653    -0.808746637282    -1.204044830950     1.007825032070
           H          0.762276601347     0.583379362718    -1.475952830950     1.007825032070
           H          1.735316601347    -2.091154637282    -0.331291830950     1.007825032070
           H          2.021544601347    -1.518449637282    -1.962462830950     1.007825032070
           H          2.755309601347    -0.689330637282    -0.604422830950     1.007825032070

  Charge       = 0
  Multiplicity = 1
  Basis Set: 6-31G*
  Basis Set:

    Orbital Energies (a.u.)
    -----------------------

    Doubly Occupied:

       1A    -20.552276     2A    -11.266700     3A    -11.264292
       4A    -11.213867     5A    -11.213188     6A     -1.378902
       7A     -1.055775     8A     -0.957849     9A     -0.883793
      10A     -0.806446    11A     -0.672214    12A     -0.657417
      13A     -0.635677    14A     -0.598848    15A     -0.568453
      16A     -0.532374    17A     -0.518680    18A     -0.498444
      19A     -0.483538    20A     -0.458079    21A     -0.404511

  @DF-RHF Final Energy:  -232.13459111415392

   => Energetics <=

    Nuclear Repulsion Energy =            192.7729367082891372
    One-Electron Energy =                -696.5724207651485358
    Two-Electron Energy =                 271.6648929427051371
    DFT Exchange-Correlation Energy =       0.0000000000000000
    Empirical Dispersion Energy =           0.0000000000000000
    PCM Polarization Energy =               0.0000000000000000
    EFP Energy =                            0.0000000000000000
    Total Energy =                       -232.1345911141542615

  Mulliken Charges: (a.u.)
   Center  Symbol    Alpha    Beta     Spin     Total
       1     H     0.41134  0.41134  0.00000  0.17732
       2     C     3.08215  3.08215  0.00000 -0.16430
       3     O     4.30375  4.30375  0.00000 -0.60750
       4     H     0.43047  0.43047  0.00000  0.13906
       5     H     0.42946  0.42946  0.00000  0.14107
       6     C     2.99208  2.99208  0.00000  0.01584
       7     C     3.16184  3.16184  0.00000 -0.32369
       8     H     0.43264  0.43264  0.00000  0.13471
       9     H     0.41579  0.41579  0.00000  0.16841
      10     C     3.24770  3.24770  0.00000 -0.49540
      11     H     0.42082  0.42082  0.00000  0.15837
      12     H     0.41367  0.41367  0.00000  0.17266
      13     H     0.42159  0.42159  0.00000  0.15682
      14     H     0.41637  0.41637  0.00000  0.16727
      15     H     0.42032  0.42032  0.00000  0.15936

   Total alpha = 21.00000, Total beta = 21.00000, Total charge =  0.00000
