  ==> Input File <==

--------------------------------------------------------------------------
set {
	reference rhf
	basis 6-31G*
}

set_num_threads( 1 )
memory 2 gb

molecule MOL {
0 1

O	 3.282449	 1.253911	 0.178939
C	 2.735283	 0.222379	 0.401676
C	 1.245376	 -0.013843	 0.345420
O	 3.384152	 -0.885448	 0.738302
C	 0.455112	 1.231400	 -0.050772
H	 1.079343	 -0.836788	 -0.341885
H	 0.938761	 -0.377113	 1.323029
C	 -0.998893	 1.219485	 0.433193
H	 0.482531	 1.345121	 -1.130325
H	 0.957290	 2.103070	 0.354729
C	 -1.883438	 0.145884	 -0.207175
H	 -1.431207	 2.195402	 0.224832
H	 -1.019646	 1.105716	 1.516076
C	 -3.347647	 0.245583	 0.225435
H	 -1.822183	 0.231698	 -1.291012
H	 -1.510341	 -0.844814	 0.042401
C	 -4.239992	 -0.825570	 -0.404234
H	 -3.732888	 1.230466	 -0.033079
H	 -3.408585	 0.170602	 1.310038
C	 -5.701275	 -0.716658	 0.029921
H	 -4.179496	 -0.752714	 -1.488058
H	 -3.859041	 -1.810759	 -0.143352
H	 -6.308102	 -1.488908	 -0.432678
H	 -6.122175	 0.245478	 -0.248167
H	 -5.799072	 -0.820114	 1.106957
C	 4.794658	 -0.801410	 0.829385
H	 5.220681	 -0.516814	 -0.121938
H	 5.131561	 -1.787179	 1.110031
H	 5.084849	 -0.079076	 1.578757

	symmetry c1
}
set optking {
	frozen_dihedral = ("
		21 17 14 11,
		17 14 11 15,
		15 11 8 5,
		11 8 5 9,
		2 4 26 27,
		1 2 4 26,
		6 3 2 1
	")
}

ee = energy('scf')
oeprop('DIPOLE', 'QUADRUPOLE', 'MULLIKEN_CHARGES')
f=open( 'psi4out.xyz', 'w' )
f.write( "29  " )
f.write( str(ee) + "\n" )
f.write( MOL.save_string_xyz() )
f.close()
--------------------------------------------------------------------------

    Molecular point group: c1

    Geometry (in Angstrom), charge = 0, multiplicity = 1:

       Center              X                  Y                   Z               Mass
    ------------   -----------------  -----------------  -----------------  -----------------
           O          3.264202246801     1.167346934201    -0.056738495452    15.994914619560
           C          2.717036246801     0.135814934201     0.165998504548    12.000000000000
           C          1.227129246801    -0.100407065799     0.109742504548    12.000000000000
           O          3.365905246801    -0.972012065799     0.502624504548    15.994914619560
           C          0.436865246801     1.144835934201    -0.286449495452    12.000000000000
           H          1.061096246801    -0.923352065799    -0.577562495452     1.007825032070
           H          0.920514246801    -0.463677065799     1.087351504548     1.007825032070
           C         -1.017139753199     1.132920934201     0.197515504548    12.000000000000
           H          0.464284246801     1.258556934201    -1.366002495452     1.007825032070
           H          0.939043246801     2.016505934201     0.119051504548     1.007825032070
           C         -1.901684753199     0.059319934201    -0.442852495452    12.000000000000
           H         -1.449453753199     2.108837934201    -0.010845495452     1.007825032070
           H         -1.037892753199     1.019151934201     1.280398504548     1.007825032070
           C         -3.365893753199     0.159018934201    -0.010242495452    12.000000000000
           H         -1.840429753199     0.145133934201    -1.526689495452     1.007825032070
           H         -1.528587753199    -0.931378065799    -0.193276495452     1.007825032070
           C         -4.258238753199    -0.912134065799    -0.639911495452    12.000000000000
           H         -3.751134753199     1.143901934201    -0.268756495452     1.007825032070
           H         -3.426831753199     0.084037934201     1.074360504548     1.007825032070
           C         -5.719521753199    -0.803222065799    -0.205756495452    12.000000000000
           H         -4.197742753199    -0.839278065799    -1.723735495452     1.007825032070
           H         -3.877287753199    -1.897323065799    -0.379029495452     1.007825032070
           H         -6.326348753199    -1.575472065799    -0.668355495452     1.007825032070
           H         -6.140421753199     0.158913934201    -0.483844495452     1.007825032070
           H         -5.817318753199    -0.906678065799     0.871279504548     1.007825032070
           C          4.776411246801    -0.887974065799     0.593707504548    12.000000000000
           H          5.202434246801    -0.603378065799    -0.357615495452     1.007825032070
           H          5.113314246801    -1.873743065799     0.874353504548     1.007825032070
           H          5.066602246801    -0.165640065799     1.343079504548     1.007825032070

  Charge       = 0
  Multiplicity = 1
  Basis Set: 6-31G*
  Basis Set:

    Orbital Energies (a.u.)
    -----------------------

    Doubly Occupied:

       1A    -20.603683     2A    -20.545629     3A    -11.372342
       4A    -11.280843     5A    -11.234506     6A    -11.217694
       7A    -11.217044     8A    -11.215792     9A    -11.215626
      10A    -11.214220    11A    -11.208984    12A     -1.469411
      13A     -1.362993    14A     -1.097708    15A     -1.066667
      16A     -1.019393    17A     -0.977194    18A     -0.928327
      19A     -0.861184    20A     -0.799463    21A     -0.790447
      22A     -0.763665    23A     -0.701327    24A     -0.682391
      25A     -0.672581    26A     -0.651983    27A     -0.627326
      28A     -0.604414    29A     -0.594191    30A     -0.581215
      31A     -0.566844    32A     -0.549768    33A     -0.532406
      34A     -0.528449    35A     -0.513801    36A     -0.513048
      37A     -0.497416    38A     -0.476573    39A     -0.470291
      40A     -0.462234    41A     -0.458782    42A     -0.455889
      43A     -0.439901    44A     -0.436542

  @DF-RHF Final Energy:  -501.04289723751913

   => Energetics <=

    Nuclear Repulsion Energy =            609.6875999922399387
    One-Electron Energy =               -1890.5006208193888142
    Two-Electron Energy =                 779.7701235896312255
    DFT Exchange-Correlation Energy =       0.0000000000000000
    Empirical Dispersion Energy =           0.0000000000000000
    PCM Polarization Energy =               0.0000000000000000
    EFP Energy =                            0.0000000000000000
    Total Energy =                       -501.0428972375176500

  Mulliken Charges: (a.u.)
   Center  Symbol    Alpha    Beta     Spin     Total
       1     O     4.28536  4.28536  0.00000 -0.57072
       2     C     2.60754  2.60754  0.00000  0.78493
       3     C     3.20944  3.20944  0.00000 -0.41888
       4     O     4.30678  4.30678  0.00000 -0.61356
       5     C     3.15718  3.15718  0.00000 -0.31437
       6     H     0.39833  0.39833  0.00000  0.20335
       7     H     0.40064  0.40064  0.00000  0.19871
       8     C     3.15748  3.15748  0.00000 -0.31496
       9     H     0.41659  0.41659  0.00000  0.16681
      10     H     0.40080  0.40080  0.00000  0.19839
      11     C     3.15461  3.15461  0.00000 -0.30922
      12     H     0.41878  0.41878  0.00000  0.16244
      13     H     0.42337  0.42337  0.00000  0.15327
      14     C     3.15046  3.15046  0.00000 -0.30093
      15     H     0.42320  0.42320  0.00000  0.15360
      16     H     0.42332  0.42332  0.00000  0.15337
      17     C     3.15140  3.15140  0.00000 -0.30280
      18     H     0.42332  0.42332  0.00000  0.15336
      19     H     0.42404  0.42404  0.00000  0.15193
      20     C     3.23933  3.23933  0.00000 -0.47867
      21     H     0.42295  0.42295  0.00000  0.15411
      22     H     0.42344  0.42344  0.00000  0.15313
      23     H     0.41928  0.41928  0.00000  0.16143
      24     H     0.42157  0.42157  0.00000  0.15687
      25     H     0.42181  0.42181  0.00000  0.15638
      26     C     3.09236  3.09236  0.00000 -0.18472
      27     H     0.40903  0.40903  0.00000  0.18194
      28     H     0.40848  0.40848  0.00000  0.18305
      29     H     0.40912  0.40912  0.00000  0.18176

   Total alpha = 44.00000, Total beta = 44.00000, Total charge =  0.00000
