  ==> Input File <==

--------------------------------------------------------------------------
set {
	reference rhf
	basis 6-31G*
}

set_num_threads( 4 )
memory 2 gb

molecule MOL {
0 1

H	 -2.509860	 2.447858	 0.466050
O	 -1.820772	 1.849829	 0.214210
C	 -2.306886	 0.532354	 0.237577
C	 -1.177863	 -0.397191	 -0.171080
H	 -2.661690	 0.272543	 1.234030
H	 -3.147003	 0.421758	 -0.446756
C	 0.198102	 0.111031	 0.262842
H	 -1.208843	 -0.518759	 -1.250427
H	 -1.368741	 -1.376554	 0.258909
C	 1.331804	 -0.827780	 -0.158768
H	 0.361943	 1.100838	 -0.156218
H	 0.217265	 0.229072	 1.345532
C	 2.723619	 -0.410569	 0.329459
H	 1.342964	 -0.912588	 -1.244120
H	 1.116806	 -1.824343	 0.220779
C	 3.243875	 0.895854	 -0.272975
H	 3.424222	 -1.207124	 0.091250
H	 2.714788	 -0.329854	 1.414619
H	 3.251977	 0.848779	 -1.358681
H	 2.637085	 1.747371	 0.016682
H	 4.259473	 1.094070	 0.055697

	symmetry c1
}
set optking {
	frozen_dihedral = ("
		2 3 4 8
	")
}

ee = optimize('scf')
oeprop('DIPOLE', 'QUADRUPOLE', 'MULLIKEN_CHARGES')
f=open( 'psi4out.xyz', 'w' )
f.write( "21  " )
f.write( str(ee) + "\n" )
f.write( MOL.save_string_xyz() )
f.close()
--------------------------------------------------------------------------

    Molecular point group: c1
  Charge       = 0
  Multiplicity = 1
  Basis Set: 6-31G*
  Basis Set:
  @DF-RHF Final Energy:  -310.20799707313455
    Total Energy =                       -310.2079970731347203
    Molecular point group: c1
  Basis Set: 6-31G*
  Basis Set:
  Basis Set: 6-31G*
  Basis Set:
  @DF-RHF Final Energy:  -310.20865890625845
    Total Energy =                       -310.2086589062586768
  Basis Set: 6-31G*
  Basis Set:
  Basis Set: 6-31G*
  Basis Set:
  @DF-RHF Final Energy:  -310.20924030624190
    Total Energy =                       -310.2092403062418384
  Basis Set: 6-31G*
  Basis Set:
  Basis Set: 6-31G*
  Basis Set:
  @DF-RHF Final Energy:  -310.20926071346054
    Total Energy =                       -310.2092607134601963
  Basis Set: 6-31G*
  Basis Set:
  Basis Set: 6-31G*
  Basis Set:
  @DF-RHF Final Energy:  -310.20926713102796
    Total Energy =                       -310.2092671310277296
  Basis Set: 6-31G*
  Basis Set:
  Basis Set: 6-31G*
  Basis Set:
  @DF-RHF Final Energy:  -310.20926930811163
    Total Energy =                       -310.2092693081117432
  Basis Set: 6-31G*
  Basis Set:
  Charge       = 0
  Multiplicity = 1
  Basis Set: 6-31G*
  Basis Set:

    Orbital Energies (a.u.)
    -----------------------

    Doubly Occupied:

       1A    -20.552849     2A    -11.268632     3A    -11.212590
       4A    -11.209751     5A    -11.207479     6A    -11.203927
       7A    -11.202117     8A     -1.359633     9A     -1.078920
      10A     -1.027556    11A     -0.951877    12A     -0.874944
      13A     -0.800055    14A     -0.772038    15A     -0.699472
      16A     -0.649894    17A     -0.619988    18A     -0.601217
      19A     -0.584694    20A     -0.561205    21A     -0.536149
      22A     -0.518807    23A     -0.497910    24A     -0.493386
      25A     -0.478129    26A     -0.456270    27A     -0.447137
      28A     -0.437408    29A     -0.427648

  @DF-RHF Final Energy:  -310.20926937074654

   => Energetics <=

    Nuclear Repulsion Energy =            318.0927932556303972
    One-Electron Energy =               -1051.1407644464638906
    Two-Electron Energy =                 422.8387018200869534
    DFT Exchange-Correlation Energy =       0.0000000000000000
    Empirical Dispersion Energy =           0.0000000000000000
    PCM Polarization Energy =               0.0000000000000000
    EFP Energy =                            0.0000000000000000
    Total Energy =                       -310.2092693707465969
    Molecular point group: c1
  Basis Set: 6-31G*
  Basis Set:

  -Total Gradient:
     Atom            X                  Y                   Z
    ------   -----------------  -----------------  -----------------
       1        0.000000731922    -0.000010965811    -0.000000345445
       2        0.001512006261    -0.000374329684     0.004609069223
       3       -0.002847078012    -0.000717428215    -0.005883009289
       4        0.004879854893     0.006259149288     0.000548295630
       5       -0.000004107967    -0.000015626418    -0.000003245270
       6        0.000000635411    -0.000006510113    -0.000001189763
       7        0.000015380340     0.000018501381    -0.000010581267
       8       -0.003553882905    -0.005145444048     0.000718361166
       9       -0.000003596742     0.000011374049     0.000004278449
      10        0.000001769912    -0.000015073814     0.000022593527
      11        0.000008821019     0.000008940056     0.000005453321
      12        0.000005159047    -0.000007137669    -0.000004084223
      13       -0.000000189863    -0.000000699058    -0.000010027419
      14       -0.000004447483     0.000004360552     0.000005716735
      15        0.000005841133    -0.000009072063     0.000001069969
      16       -0.000005166206    -0.000001236863     0.000001246629
      17        0.000000862726    -0.000000261100    -0.000003019825
      18       -0.000002552806    -0.000001548627    -0.000003325614
      19       -0.000000421426    -0.000001793042     0.000001273822
      20       -0.000010143852     0.000003743961     0.000000589335
      21        0.000000524604     0.000001057238     0.000000880306

  **** Optimization is complete! (in 7 steps) ****
    Final optimized geometry and variables:
    Molecular point group: c1

    Geometry (in Angstrom), charge = 0, multiplicity = 1:

    H           -2.943730658747     2.110274324728     0.435013561183
    O           -2.207315730367     1.577295924451     0.171539839196
    C           -2.584314892911     0.223207055873     0.179734605648
    C           -1.413758056762    -0.648721820850    -0.274978680125
    H           -2.874105529177    -0.063615950795     1.189602639976
    H           -3.444024951262     0.054841210761    -0.464970728646
    C           -0.038822944184    -0.162837705999     0.181959149669
    H           -1.446201358011    -0.777571464738    -1.354155688973
    H           -1.590180099154    -1.646466639096     0.124949931858
    C            1.077131086530    -1.132248069057    -0.216686357039
    H            0.144901590478     0.819617834532    -0.232985718072
    H           -0.042999894681    -0.042548916353     1.263933277560
    C            2.473098058870    -0.731461339237     0.274328368456
    H            1.096390047532    -1.234558492412    -1.300944181235
    H            0.844482207272    -2.120324589610     0.176236913774
    C            3.020513867067     0.553632337392    -0.349439069482
    H            3.161634606102    -1.544887620341     0.057844299069
    H            2.456776232312    -0.628572087453     1.357538424719
    H            3.039462078045     0.482998140035    -1.433790995459
    H            2.423405736246     1.419614977590    -0.084951896578
    H            4.035808891562     0.742643659867    -0.013905534440

  Mulliken Charges: (a.u.)
   Center  Symbol    Alpha    Beta     Spin     Total
       1     H     0.28057  0.28057  0.00000  0.43886
       2     O     4.37016  4.37016  0.00000 -0.74031
       3     C     2.99312  2.99312  0.00000  0.01376
       4     C     3.16792  3.16792  0.00000 -0.33583
       5     H     0.43228  0.43228  0.00000  0.13543
       6     H     0.42923  0.42923  0.00000  0.14154
       7     C     3.15028  3.15028  0.00000 -0.30057
       8     H     0.41886  0.41886  0.00000  0.16228
       9     H     0.42394  0.42394  0.00000  0.15212
      10     C     3.15373  3.15373  0.00000 -0.30745
      11     H     0.40484  0.40484  0.00000  0.19032
      12     H     0.42444  0.42444  0.00000  0.15111
      13     C     3.15157  3.15157  0.00000 -0.30315
      14     H     0.42514  0.42514  0.00000  0.14973
      15     H     0.42492  0.42492  0.00000  0.15017
      16     C     3.24135  3.24135  0.00000 -0.48269
      17     H     0.42255  0.42255  0.00000  0.15491
      18     H     0.42392  0.42392  0.00000  0.15215
      19     H     0.42288  0.42288  0.00000  0.15423
      20     H     0.41754  0.41754  0.00000  0.16491
      21     H     0.42075  0.42075  0.00000  0.15849

   Total alpha = 29.00000, Total beta = 29.00000, Total charge =  0.00000
