  ==> Input File <==

--------------------------------------------------------------------------
set {
	reference rhf
	basis 6-31G*
}

set_num_threads( 1 )
memory 2 gb

molecule MOL {
0 1

H	 -1.775718	 -1.380248	 1.337509
C	 -2.284471	 -0.949489	 0.477416
O	 -1.392607	 -0.295399	 -0.366433
H	 -2.746875	 -1.745069	 -0.090366
H	 -3.061931	 -0.277001	 0.837615
C	 -0.719715	 0.768384	 0.229244
C	 0.719720	 0.768376	 -0.229267
H	 -1.185038	 1.714362	 -0.050570
H	 -0.750528	 0.687237	 1.313896
O	 1.392611	 -0.295398	 0.366430
H	 0.750534	 0.687200	 -1.313918
H	 1.185043	 1.714359	 0.050526
C	 2.706965	 -0.449871	 -0.062409
H	 2.756559	 -0.644779	 -1.131878
H	 3.305899	 0.433456	 0.155466
H	 3.125548	 -1.294566	 0.467107

	symmetry c1
}
set optking {
	frozen_dihedral = ("
		3 6 7 11,
		7 10 13 14
	")
}

ee = energy('scf')
oeprop('DIPOLE', 'QUADRUPOLE', 'MULLIKEN_CHARGES')
f=open( 'psi4out.xyz', 'w' )
f.write( "16  " )
f.write( str(ee) + "\n" )
f.write( MOL.save_string_xyz() )
f.close()
--------------------------------------------------------------------------

    Molecular point group: c1

    Geometry (in Angstrom), charge = 0, multiplicity = 1:

       Center              X                  Y                   Z               Mass
    ------------   -----------------  -----------------  -----------------  -----------------
           H         -1.849951761800    -1.292460865835     1.264592218593     1.007825032070
           C         -2.358704761800    -0.861701865835     0.404499218593    12.000000000000
           O         -1.466840761800    -0.207611865835    -0.439349781407    15.994914619560
           H         -2.821108761800    -1.657281865835    -0.163282781407     1.007825032070
           H         -3.136164761800    -0.189213865835     0.764698218593     1.007825032070
           C         -0.793948761800     0.856171134165     0.156327218593    12.000000000000
           C          0.645486238200     0.856163134165    -0.302183781407    12.000000000000
           H         -1.259271761800     1.802149134165    -0.123486781407     1.007825032070
           H         -0.824761761800     0.775024134165     1.240979218593     1.007825032070
           O          1.318377238200    -0.207610865835     0.293513218593    15.994914619560
           H          0.676300238200     0.774987134165    -1.386834781407     1.007825032070
           H          1.110809238200     1.802146134165    -0.022390781407     1.007825032070
           C          2.632731238200    -0.362083865835    -0.135325781407    12.000000000000
           H          2.682325238200    -0.556991865835    -1.204794781407     1.007825032070
           H          3.231665238200     0.521243134165     0.082549218593     1.007825032070
           H          3.051314238200    -1.206778865835     0.394190218593     1.007825032070

  Charge       = 0
  Multiplicity = 1
  Basis Set: 6-31G*
  Basis Set:

    Orbital Energies (a.u.)
    -----------------------

    Doubly Occupied:

       1A    -20.554762     2A    -20.551385     3A    -11.268001
       4A    -11.267128     5A    -11.264536     6A    -11.261609
       7A     -1.388521     8A     -1.370104     9A     -1.029688
      10A     -0.937129    11A     -0.890768    12A     -0.824118
      13A     -0.682089    14A     -0.681044    15A     -0.657402
      16A     -0.632400    17A     -0.629632    18A     -0.600620
      19A     -0.543754    20A     -0.538026    21A     -0.511151
      22A     -0.477748    23A     -0.465212    24A     -0.416516
      25A     -0.409159

  @DF-RHF Final Energy:  -306.97594229604709

   => Energetics <=

    Nuclear Repulsion Energy =            260.6134535168101252
    One-Electron Energy =                -935.4737059452361336
    Two-Electron Energy =                 367.8843101323786868
    DFT Exchange-Correlation Energy =       0.0000000000000000
    Empirical Dispersion Energy =           0.0000000000000000
    PCM Polarization Energy =               0.0000000000000000
    EFP Energy =                            0.0000000000000000
    Total Energy =                       -306.9759422960473785

  Mulliken Charges: (a.u.)
   Center  Symbol    Alpha    Beta     Spin     Total
       1     H     0.42378  0.42378  0.00000  0.15244
       2     C     3.08132  3.08132  0.00000 -0.16264
       3     O     4.30192  4.30192  0.00000 -0.60385
       4     H     0.41324  0.41324  0.00000  0.17353
       5     H     0.43187  0.43187  0.00000  0.13627
       6     C     2.99629  2.99629  0.00000  0.00742
       7     C     2.99234  2.99234  0.00000  0.01532
       8     H     0.42714  0.42714  0.00000  0.14571
       9     H     0.42246  0.42246  0.00000  0.15507
      10     O     4.30283  4.30283  0.00000 -0.60567
      11     H     0.42270  0.42270  0.00000  0.15460
      12     H     0.43372  0.43372  0.00000  0.13255
      13     C     3.07945  3.07945  0.00000 -0.15889
      14     H     0.42777  0.42777  0.00000  0.14447
      15     H     0.43134  0.43134  0.00000  0.13733
      16     H     0.41183  0.41183  0.00000  0.17634

   Total alpha = 25.00000, Total beta = 25.00000, Total charge = -0.00000
