                              Psi4 1.0.54 Driver

  ==> Input File <==

--------------------------------------------------------------------------
set {
	reference rhf
	basis cc-pvtz
}

set_num_threads( 4 )
memory 2 gb

molecule MOL {
0 1

H	 2.232102	 -1.312278	 -0.118123
O	 1.549820	 -0.743968	 -0.424015
C	 1.135873	 0.113391	 0.608264
C	 0.027642	 1.012027	 0.090274
H	 1.965799	 0.730664	 0.942875
H	 0.793515	 -0.461503	 1.464271
C	 -1.138737	 0.285728	 -0.581921
H	 0.464661	 1.708096	 -0.618252
H	 -0.340737	 1.603071	 0.925246
C	 -1.933983	 -0.631436	 0.343653
H	 -0.763151	 -0.285569	 -1.422081
H	 -1.808359	 1.035291	 -0.992333
H	 -2.789188	 -1.049673	 -0.174718
H	 -1.335629	 -1.461368	 0.700418
H	 -2.305435	 -0.092167	 1.209725

	symmetry c1
}
set optking {
	frozen_dihedral = ("
		2 3 4 8
	")
}

ee,wfn = optimize('scf', return_wfn=True)
oeprop( wfn, 'DIPOLE', 'QUADRUPOLE', 'MULLIKEN_CHARGES')
f=open( 'psi4out.xyz', 'w' )
f.write( "15  " )
f.write( str(ee) + "\n" )
f.write( MOL.save_string_xyz() )
f.close()
--------------------------------------------------------------------------

    Molecular point group: c1
  Charge       = 0
  Multiplicity = 1
  Basis Set: CC-PVTZ
  Basis Set:
  @DF-RHF Final Energy:  -232.23730807991208
    Total Energy =                       -232.2373080799119407
    Molecular point group: c1
  Basis Set: CC-PVTZ
  Basis Set:
  Basis Set: CC-PVTZ
  Basis Set:
  @DF-RHF Final Energy:  -232.23596975749706
    Total Energy =                       -232.2359697574969459
  Basis Set: CC-PVTZ
  Basis Set:
  Basis Set: CC-PVTZ
  Basis Set:
  @DF-RHF Final Energy:  -232.23732514608031
    Total Energy =                       -232.2373251460802521
  Basis Set: CC-PVTZ
  Basis Set:
  Basis Set: CC-PVTZ
  Basis Set:
  @DF-RHF Final Energy:  -232.23738871428722
    Total Energy =                       -232.2373887142871922
  Basis Set: CC-PVTZ
  Basis Set:
  Basis Set: CC-PVTZ
  Basis Set:
  @DF-RHF Final Energy:  -232.23739475408323
    Total Energy =                       -232.2373947540832546
  Basis Set: CC-PVTZ
  Basis Set:
  Charge       = 0
  Multiplicity = 1
  Basis Set: CC-PVTZ
  Basis Set:

    Orbital Energies (a.u.)
    -----------------------

    Doubly Occupied:

       1A    -20.546804     2A    -11.265624     3A    -11.211092
       4A    -11.206825     5A    -11.201962     6A     -1.364647
       7A     -1.064951     8A     -0.971169     9A     -0.869314
      10A     -0.774705    11A     -0.706695    12A     -0.650952
      13A     -0.609459    14A     -0.573451    15A     -0.566653
      16A     -0.531747    17A     -0.510800    18A     -0.476366
      19A     -0.465685    20A     -0.452980    21A     -0.433741

  @DF-RHF Final Energy:  -232.23739596472478

   => Energetics <=

    Nuclear Repulsion Energy =            192.5281861190146060
    One-Electron Energy =                -696.6199175635515530
    Two-Electron Energy =                 271.8543354798122209
    DFT Exchange-Correlation Energy =       0.0000000000000000
    Empirical Dispersion Energy =           0.0000000000000000
    PCM Polarization Energy =               0.0000000000000000
    EFP Energy =                            0.0000000000000000
    Total Energy =                       -232.2373959647247261
    Molecular point group: c1
  Basis Set: CC-PVTZ
  Basis Set:

  -Total Gradient:
     Atom            X                  Y                   Z
    ------   -----------------  -----------------  -----------------
       1       -0.000005271253    -0.000001512708     0.000007231451
       2       -0.000944701894    -0.000981273286     0.000395449119
       3        0.001247672861     0.001607586354    -0.000204820107
       4       -0.000395333040    -0.001944336927    -0.001457933530
       5        0.000006072757    -0.000009666087    -0.000001475933
       6        0.000017717240    -0.000004209377    -0.000007076793
       7        0.000002270688     0.000021945088    -0.000011447649
       8        0.000079001779     0.001316768732     0.001276460738
       9        0.000001210415     0.000004318120     0.000000320890
      10        0.000001752916    -0.000002574095    -0.000003067336
      11       -0.000013937634     0.000007886057     0.000015291724
      12        0.000003012957    -0.000023187555     0.000006363431
      13       -0.000006753006    -0.000005397925    -0.000008557903
      14       -0.000001077728     0.000004792069    -0.000006731237
      15        0.000008362943     0.000008861539    -0.000000006864

  **** Optimization is complete! (in 6 steps) ****
    Final optimized geometry and variables:
    Molecular point group: c1

    Geometry (in Angstrom), charge = 0, multiplicity = 1:

    H            2.360168807869    -1.085916107603     0.221732840978
    O            1.664121566148    -0.620692591373    -0.203689722619
    C            1.072503883555     0.285516728492     0.690844498129
    C           -0.030680960685     1.048643029218    -0.022136764819
    H            1.810131568431     0.991319041335     1.063668249461
    H            0.668880421373    -0.245477309700     1.548903294116
    C           -1.076685344754     0.182144934652    -0.723591444916
    H            0.425010795479     1.719879986514    -0.742906657802
    H           -0.517673076766     1.681860980342     0.716151089428
    C           -1.862453310853    -0.736949158336     0.207688662902
    H           -0.591772686546    -0.410529608431    -1.489007387943
    H           -1.770031383936     0.842817651604    -1.234938778289
    H           -2.638452465735    -1.261710616179    -0.337684502640
    H           -1.224237093305    -1.484774478264     0.662896006249
    H           -2.341828376325    -0.176280516358     1.004467181289

  Mulliken Charges: (a.u.)
   Center  Symbol    Alpha    Beta     Spin     Total
       1     H     0.39552  0.39552  0.00000  0.20896
       2     O     4.19937  4.19937  0.00000 -0.39873
       3     C     2.97834  2.97834  0.00000  0.04331
       4     C     3.09510  3.09510  0.00000 -0.19020
       5     H     0.46161  0.46161  0.00000  0.07679
       6     H     0.47136  0.47136  0.00000  0.05728
       7     C     3.08423  3.08423  0.00000 -0.16846
       8     H     0.44914  0.44914  0.00000  0.10171
       9     H     0.45540  0.45540  0.00000  0.08920
      10     C     3.15559  3.15559  0.00000 -0.31117
      11     H     0.44668  0.44668  0.00000  0.10664
      12     H     0.45106  0.45106  0.00000  0.09788
      13     H     0.44681  0.44681  0.00000  0.10637
      14     H     0.45248  0.45248  0.00000  0.09504
      15     H     0.45731  0.45731  0.00000  0.08538

   Total alpha = 21.00000, Total beta = 21.00000, Total charge = -0.00000

*** Psi4 exiting successfully. Buy a developer a beer!
