  ==> Input File <==

--------------------------------------------------------------------------
set {
	reference rhf
	basis cc-pvtz
}

set_num_threads( 4 )
memory 2 gb

molecule MOL {
0 1

H	 -3.436473	 1.252944	 -1.023892
O	 -3.458596	 0.315260	 -0.960865
C	 -3.176635	 -0.080824	 0.355601
C	 -1.763371	 0.265266	 0.799691
H	 -3.321825	 -1.153438	 0.379502
H	 -3.895468	 0.357385	 1.043382
C	 -0.673390	 -0.426948	 -0.013392
H	 -1.631049	 1.344913	 0.747560
H	 -1.664587	 -0.001624	 1.849167
C	 0.737842	 -0.043159	 0.423759
H	 -0.806103	 -0.190518	 -1.063345
H	 -0.797221	 -1.503753	 0.074146
C	 1.824000	 -0.743224	 -0.390623
H	 0.850588	 1.033777	 0.343840
H	 0.868587	 -0.286314	 1.476203
C	 3.255957	 -0.453067	 0.062319
H	 1.718250	 -0.470599	 -1.438164
H	 1.658105	 -1.815850	 -0.339904
C	 3.525436	 1.003281	 0.433229
H	 3.932867	 -0.738488	 -0.737120
H	 3.500772	 -1.091081	 0.907555
H	 3.283777	 1.665968	 -0.391709
H	 4.571208	 1.150390	 0.678100
H	 2.943758	 1.317975	 1.291264

	symmetry c1
}
set optking {
	frozen_dihedral = ("
		20 16 13 17
	")
}

ee = optimize('scf')
oeprop('DIPOLE', 'QUADRUPOLE', 'MULLIKEN_CHARGES')
f=open( 'psi4out.xyz', 'w' )
f.write( "24  " )
f.write( str(ee) + "\n" )
f.write( MOL.save_string_xyz() )
f.close()
--------------------------------------------------------------------------

    Molecular point group: c1
  Charge       = 0
  Multiplicity = 1
  Basis Set: CC-PVTZ
  Basis Set:
  @DF-RHF Final Energy:  -349.37790245931211
    Total Energy =                       -349.3779024593121676
    Molecular point group: c1
  Basis Set: CC-PVTZ
  Basis Set:
  Basis Set: CC-PVTZ
  Basis Set:
  @DF-RHF Final Energy:  -349.37815162233454
    Total Energy =                       -349.3781516223336894
  Basis Set: CC-PVTZ
  Basis Set:
  Basis Set: CC-PVTZ
  Basis Set:
  @DF-RHF Final Energy:  -349.37840016233434
    Total Energy =                       -349.3784001623340600
  Basis Set: CC-PVTZ
  Basis Set:
  Basis Set: CC-PVTZ
  Basis Set:
  @DF-RHF Final Energy:  -349.37840472175600
    Total Energy =                       -349.3784047217560556
  Basis Set: CC-PVTZ
  Basis Set:
  Basis Set: CC-PVTZ
  Basis Set:
  @DF-RHF Final Energy:  -349.37840753576347
    Total Energy =                       -349.3784075357634720
  Basis Set: CC-PVTZ
  Basis Set:
  Charge       = 0
  Multiplicity = 1
  Basis Set: CC-PVTZ
  Basis Set:

    Orbital Energies (a.u.)
    -----------------------

    Doubly Occupied:

       1A    -20.546275     2A    -11.265527     3A    -11.215177
       4A    -11.212317     5A    -11.210420     6A    -11.209412
       7A    -11.209006     8A    -11.204894     9A     -1.364134
      10A     -1.089595    11A     -1.048792    12A     -0.986229
      13A     -0.916159    14A     -0.853577    15A     -0.802385
      16A     -0.772169    17A     -0.681943    18A     -0.655405
      19A     -0.629227    20A     -0.620075    21A     -0.595405
      22A     -0.587158    23A     -0.556639    24A     -0.544468
      25A     -0.515210    26A     -0.506414    27A     -0.504227
      28A     -0.472901    29A     -0.468300    30A     -0.460137
      31A     -0.453071    32A     -0.451700    33A     -0.421603

  @DF-RHF Final Energy:  -349.37840771861647

   => Energetics <=

    Nuclear Repulsion Energy =            385.5157809310499033
    One-Electron Energy =               -1237.7284765961376252
    Two-Electron Energy =                 502.8342879464714770
    DFT Exchange-Correlation Energy =       0.0000000000000000
    Empirical Dispersion Energy =           0.0000000000000000
    PCM Polarization Energy =               0.0000000000000000
    EFP Energy =                            0.0000000000000000
    Total Energy =                       -349.3784077186162449
    Molecular point group: c1
  Basis Set: CC-PVTZ
  Basis Set:

  -Total Gradient:
     Atom            X                  Y                   Z
    ------   -----------------  -----------------  -----------------
       1       -0.000000468816     0.000001075319    -0.000000772530
       2       -0.000002497320     0.000004188798     0.000001809924
       3        0.000005884000    -0.000012335590    -0.000002602571
       4       -0.000000987779     0.000003152230     0.000001660367
       5       -0.000001586062    -0.000001636174     0.000000802009
       6        0.000003219809     0.000000965696    -0.000000662175
       7       -0.000003115205     0.000002434948     0.000000675169
       8        0.000002935045     0.000000123207    -0.000001331702
       9       -0.000000690507     0.000001136583     0.000000613389
      10        0.000001683025     0.000004731909     0.000003209014
      11        0.000001149682     0.000002771465     0.000003157830
      12        0.000000864327    -0.000001190876    -0.000000466282
      13       -0.001459251726     0.006521869578     0.001199999852
      14       -0.000001561876    -0.000000087769    -0.000000329556
      15       -0.000003020801     0.000005065879     0.000004105740
      16        0.000431579544    -0.006464512846     0.001919267863
      17        0.001167283145    -0.004496137236    -0.001296860865
      18        0.000002728122    -0.000002144108     0.000000826667
      19       -0.000006363823     0.000000730239    -0.000006263028
      20       -0.000133682872     0.004424714227    -0.001827497824
      21        0.000002944407    -0.000004690109    -0.000004815502
      22        0.000007222968     0.000005417803    -0.000000632718
      23       -0.000005774571    -0.000000348454     0.000004575707
      24       -0.000008492727     0.000004705281     0.000001531215

  **** Optimization is complete! (in 6 steps) ****
    Final optimized geometry and variables:
    Molecular point group: c1

    Geometry (in Angstrom), charge = 0, multiplicity = 1:

    H           -3.438985850786     1.226529524988    -1.101131006892
    O           -3.449213451245     0.288516288147    -1.040237019993
    C           -3.166907589634    -0.106637102341     0.276339019370
    C           -1.759744947432     0.256634215904     0.726120314162
    H           -3.298438248588    -1.181080423371     0.297173327975
    H           -3.893811730325     0.320682105275     0.962494239956
    C           -0.658160671938    -0.418052687500    -0.086039226942
    H           -1.641639567550     1.338115808568     0.678401000595
    H           -1.660728079118    -0.012831349917     1.774936832387
    C            0.746449685589    -0.020846964856     0.360469060111
    H           -0.788192916579    -0.176130079195    -1.135141062646
    H           -0.770443633622    -1.496622020458    -0.006193580257
    C            1.839844645955    -0.697112417751    -0.461035449054
    H            0.845341251813     1.058028428477     0.294455595983
    H            0.876423502033    -0.275093725030     1.410635836411
    C            3.280786840622    -0.460962083950     0.009768797304
    H            1.753073986064    -0.418724514442    -1.508344717871
    H            1.662037338423    -1.769980932008    -0.448285875464
    C            3.623136039264     0.991165114131     0.343855150002
    H            3.949134796384    -0.771030960465    -0.787184920768
    H            3.492986626104    -1.084764577800     0.872357076332
    H            3.404532712394     1.648127425231    -0.492300920900
    H            4.678699576447     1.089430078604     0.570685629129
    H            3.070554343196     1.353656866731     1.201988728723

  Mulliken Charges: (a.u.)
   Center  Symbol    Alpha    Beta     Spin     Total
       1     H     0.39531  0.39531  0.00000  0.20939
       2     O     4.20375  4.20375  0.00000 -0.40750
       3     C     2.97780  2.97780  0.00000  0.04440
       4     C     3.10174  3.10174  0.00000 -0.20348
       5     H     0.45891  0.45891  0.00000  0.08219
       6     H     0.46032  0.46032  0.00000  0.07936
       7     C     3.08791  3.08791  0.00000 -0.17582
       8     H     0.45919  0.45919  0.00000  0.08162
       9     H     0.45351  0.45351  0.00000  0.09297
      10     C     3.09178  3.09178  0.00000 -0.18356
      11     H     0.44652  0.44652  0.00000  0.10697
      12     H     0.45475  0.45475  0.00000  0.09051
      13     C     3.09620  3.09620  0.00000 -0.19240
      14     H     0.45174  0.45174  0.00000  0.09653
      15     H     0.45517  0.45517  0.00000  0.08965
      16     C     3.08911  3.08911  0.00000 -0.17821
      17     H     0.45186  0.45186  0.00000  0.09627
      18     H     0.45176  0.45176  0.00000  0.09647
      19     C     3.15701  3.15701  0.00000 -0.31401
      20     H     0.45020  0.45020  0.00000  0.09959
      21     H     0.45274  0.45274  0.00000  0.09451
      22     H     0.45418  0.45418  0.00000  0.09164
      23     H     0.44572  0.44572  0.00000  0.10857
      24     H     0.45281  0.45281  0.00000  0.09437

   Total alpha = 33.00000, Total beta = 33.00000, Total charge = -0.00000
