  ==> Input File <==

--------------------------------------------------------------------------
set {
	reference rhf
	basis 6-31G*
}

set_num_threads( 4 )
memory 2 gb

molecule MOL {
0 1

O	 2.761322	 1.513558	 0.370506
C	 2.521559	 0.662595	 1.171214
C	 1.233354	 -0.140144	 1.138381
C	 3.496261	 0.326473	 2.281230
C	 0.291004	 0.242674	 0.000989
H	 1.499365	 -1.194733	 1.079486
H	 0.741397	 -0.020400	 2.102767
C	 -0.994322	 -0.586602	 0.000262
H	 0.808539	 0.122428	 -0.945493
H	 0.049496	 1.298010	 0.079016
C	 -2.259874	 0.272531	 0.000494
H	 -1.004862	 -1.240012	 -0.870939
H	 -1.005220	 -1.241071	 0.870675
C	 -3.549786	 -0.549746	 -0.000374
H	 -2.250389	 0.926680	 -0.869574
H	 -2.250838	 0.925513	 0.871430
C	 -4.809590	 0.315458	 -0.000369
H	 -3.560515	 -1.202009	 -0.871156
H	 -3.561123	 -1.202955	 0.869711
H	 -4.844746	 0.956611	 -0.876632
H	 -5.706986	 -0.295590	 -0.001609
H	 -4.845960	 0.954827	 0.877144
H	 3.794302	 -0.716201	 2.221063
H	 4.370878	 0.957039	 2.202079
H	 3.030459	 0.472910	 3.251394

	symmetry c1
}
set optking {
	frozen_dihedral = ("
		9 5 8 12
	")
}

ee = optimize('scf')
oeprop('DIPOLE', 'QUADRUPOLE', 'MULLIKEN_CHARGES')
f=open( 'psi4out.xyz', 'w' )
f.write( "25  " )
f.write( str(ee) + "\n" )
f.write( MOL.save_string_xyz() )
f.close()
--------------------------------------------------------------------------

    Molecular point group: c1
  Charge       = 0
  Multiplicity = 1
  Basis Set: 6-31G*
  Basis Set:
  @DF-RHF Final Energy:  -387.13090209202187
    Total Energy =                       -387.1309020920217563
    Molecular point group: c1
  Basis Set: 6-31G*
  Basis Set:
  Basis Set: 6-31G*
  Basis Set:
  @DF-RHF Final Energy:  -387.13112425207208
    Total Energy =                       -387.1311242520723681
  Basis Set: 6-31G*
  Basis Set:
  Basis Set: 6-31G*
  Basis Set:
  @DF-RHF Final Energy:  -387.13117082020261
    Total Energy =                       -387.1311708202035788
  Basis Set: 6-31G*
  Basis Set:
  Basis Set: 6-31G*
  Basis Set:
  @DF-RHF Final Energy:  -387.13094055952371
    Total Energy =                       -387.1309405595236512
  Basis Set: 6-31G*
  Basis Set:
  Basis Set: 6-31G*
  Basis Set:
  @DF-RHF Final Energy:  -387.13120086939313
    Total Energy =                       -387.1312008693929556
  Basis Set: 6-31G*
  Basis Set:
  Basis Set: 6-31G*
  Basis Set:
  @DF-RHF Final Energy:  -387.13119345432568
    Total Energy =                       -387.1311934543259667
  Basis Set: 6-31G*
  Basis Set:
  Basis Set: 6-31G*
  Basis Set:
  @DF-RHF Final Energy:  -387.13120260470407
    Total Energy =                       -387.1312026047039581
  Basis Set: 6-31G*
  Basis Set:
  Charge       = 0
  Multiplicity = 1
  Basis Set: 6-31G*
  Basis Set:

    Orbital Energies (a.u.)
    -----------------------

    Doubly Occupied:

       1A    -20.550517     2A    -11.326026     3A    -11.232123
       4A    -11.228296     5A    -11.216760     6A    -11.216215
       7A    -11.215583     8A    -11.214360     9A    -11.208839
      10A     -1.395680    11A     -1.091986    12A     -1.056124
      13A     -1.013594    14A     -0.969094    15A     -0.890635
      16A     -0.815371    17A     -0.790922    18A     -0.731394
      19A     -0.658462    20A     -0.647784    21A     -0.636817
      22A     -0.621937    23A     -0.597002    24A     -0.579576
      25A     -0.567706    26A     -0.564268    27A     -0.539667
      28A     -0.523094    29A     -0.516656    30A     -0.491655
      31A     -0.484770    32A     -0.476473    33A     -0.464163
      34A     -0.460079    35A     -0.446411    36A     -0.399217

  @DF-RHF Final Energy:  -387.13120263079395

   => Energetics <=

    Nuclear Repulsion Energy =            439.4455972623272828
    One-Electron Energy =               -1395.4750859802643390
    Two-Electron Energy =                 568.8982860871428784
    DFT Exchange-Correlation Energy =       0.0000000000000000
    Empirical Dispersion Energy =           0.0000000000000000
    PCM Polarization Energy =               0.0000000000000000
    EFP Energy =                            0.0000000000000000
    Total Energy =                       -387.1312026307941778
    Molecular point group: c1
  Basis Set: 6-31G*
  Basis Set:

  -Total Gradient:
     Atom            X                  Y                   Z
    ------   -----------------  -----------------  -----------------
       1       -0.000005746338    -0.000002537223    -0.000002852433
       2       -0.000000210844     0.000006241370     0.000003273222
       3       -0.000003196081     0.000001336345     0.000002580178
       4        0.000005949145    -0.000015112323    -0.000008991554
       5       -0.001178593995     0.001847691287    -0.000946648955
       6        0.000001728906    -0.000000895791    -0.000000897957
       7        0.000002607793     0.000001466906    -0.000000941369
       8        0.001102996570    -0.001730128988     0.001186520234
       9        0.000807350263    -0.001255152952     0.000601208783
      10        0.000000770209    -0.000002427805     0.000001146148
      11        0.000000013422     0.000003955724    -0.000001891450
      12       -0.000734215638     0.001137934929    -0.000845536842
      13       -0.000000492498     0.000001589880    -0.000002454415
      14        0.000001204908    -0.000002697307     0.000011310427
      15       -0.000002100519     0.000002488235     0.000000735485
      16       -0.000000040706    -0.000004223353     0.000001095772
      17        0.000003153714     0.000003594576    -0.000009641623
      18        0.000001756644    -0.000001417063     0.000002427265
      19        0.000002035656     0.000001869399     0.000003535862
      20       -0.000000601147     0.000004629215     0.000000488041
      21        0.000002943081    -0.000001292078    -0.000003915209
      22       -0.000000649202    -0.000003198615     0.000002157170
      23       -0.000000878818    -0.000000288480     0.000006460599
      24       -0.000003456283     0.000001245817    -0.000000940693
      25       -0.000002328240     0.000005328289     0.000001773315

  **** Optimization is complete! (in 8 steps) ****
    Final optimized geometry and variables:
    Molecular point group: c1

    Geometry (in Angstrom), charge = 0, multiplicity = 1:

    O            2.920352370868     1.281958060200    -0.185950552397
    C            2.689216012650     0.427578241880     0.613900261999
    C            1.398912894908    -0.371737831550     0.594240752365
    C            3.677811867127     0.084461197369     1.709453673943
    C            0.443601573112     0.014290539276    -0.533255020200
    H            1.660349580841    -1.427292695724     0.531853786815
    H            0.916763199824    -0.251065351822     1.563622188057
    C           -0.855725811020    -0.821573195716    -0.530548021786
    H            0.965466309167    -0.102494183613    -1.475908294884
    H            0.213639635142     1.070445437812    -0.447163210752
    C           -2.124858888836     0.034937161530    -0.547327594639
    H           -0.871500236206    -1.476519008501    -1.397791045897
    H           -0.884600984386    -1.472383054469     0.340746443075
    C           -3.412699207482    -0.789260988187    -0.566702341314
    H           -2.103088267876     0.689927281989    -1.416585496829
    H           -2.128124189868     0.688173484774     0.324131742351
    C           -4.674279331760     0.073351459693    -0.582258478753
    H           -3.410292250730    -1.440062587109    -1.438619330436
    H           -3.434507216543    -1.444401696598     0.301930854121
    H           -4.698632959487     0.716195070363    -1.457604587052
    H           -5.570239625362    -0.539556037512    -0.597212122529
    H           -4.724327264879     0.710840004663     0.296011241597
    H            3.974987223943    -0.957810645746     1.638899038937
    H            4.551437442111     0.715447347704     1.623056867628
    H            3.224523358270     0.224802318764     2.686438137353

  Mulliken Charges: (a.u.)
   Center  Symbol    Alpha    Beta     Spin     Total
       1     O     4.26119  4.26119  0.00000 -0.52238
       2     C     2.73626  2.73626  0.00000  0.52747
       3     C     3.21253  3.21253  0.00000 -0.42507
       4     C     3.28667  3.28667  0.00000 -0.57334
       5     C     3.15145  3.15145  0.00000 -0.30290
       6     H     0.40958  0.40958  0.00000  0.18083
       7     H     0.41011  0.41011  0.00000  0.17977
       8     C     3.15739  3.15739  0.00000 -0.31478
       9     H     0.40971  0.40971  0.00000  0.18058
      10     H     0.40911  0.40911  0.00000  0.18178
      11     C     3.15254  3.15254  0.00000 -0.30508
      12     H     0.41955  0.41955  0.00000  0.16090
      13     H     0.42351  0.42351  0.00000  0.15298
      14     C     3.15224  3.15224  0.00000 -0.30449
      15     H     0.42117  0.42117  0.00000  0.15766
      16     H     0.42460  0.42460  0.00000  0.15081
      17     C     3.23918  3.23918  0.00000 -0.47837
      18     H     0.42286  0.42286  0.00000  0.15429
      19     H     0.42393  0.42393  0.00000  0.15215
      20     H     0.42109  0.42109  0.00000  0.15782
      21     H     0.41943  0.41943  0.00000  0.16115
      22     H     0.42190  0.42190  0.00000  0.15619
      23     H     0.40872  0.40872  0.00000  0.18256
      24     H     0.39648  0.39648  0.00000  0.20703
      25     H     0.40879  0.40879  0.00000  0.18243

   Total alpha = 36.00000, Total beta = 36.00000, Total charge =  0.00000
