                              Psi4 1.0.54 Driver

  ==> Input File <==

--------------------------------------------------------------------------
set {
	reference rhf
	basis cc-pvtz
}

set_num_threads( 4 )
memory 2 gb

molecule MOL {
0 1

H	 1.112652	 1.835310	 1.427903
O	 1.338845	 0.958296	 1.174653
C	 0.706474	 0.636793	 -0.025501
C	 -0.793473	 0.591216	 0.050087
H	 1.078643	 -0.338421	 -0.316620
H	 0.997740	 1.327651	 -0.814537
C	 -1.534243	 -0.493009	 -0.013340
H	 -1.266611	 1.552628	 0.164437
H	 -1.101195	 -1.466332	 -0.144046
H	 -2.604242	 -0.437780	 0.050785

	symmetry c1
}
set optking {
	frozen_dihedral = ("
		5 3 4 7
	")
}

ee,wfn = optimize('scf', return_wfn=True)
oeprop( wfn, 'DIPOLE', 'QUADRUPOLE', 'MULLIKEN_CHARGES')
f=open( 'psi4out.xyz', 'w' )
f.write( "10  " )
f.write( str(ee) + "\n" )
f.write( MOL.save_string_xyz() )
f.close()
--------------------------------------------------------------------------

    Molecular point group: c1
  Charge       = 0
  Multiplicity = 1
  Basis Set: CC-PVTZ
  Basis Set:
  @DF-RHF Final Energy:  -191.99599390579598
    Total Energy =                       -191.9959939057959275
    Molecular point group: c1
  Basis Set: CC-PVTZ
  Basis Set:
  Basis Set: CC-PVTZ
  Basis Set:
  @DF-RHF Final Energy:  -191.99632345415722
    Total Energy =                       -191.9963234541572490
  Basis Set: CC-PVTZ
  Basis Set:
  Basis Set: CC-PVTZ
  Basis Set:
  @DF-RHF Final Energy:  -191.99637485677616
    Total Energy =                       -191.9963748567761854
  Basis Set: CC-PVTZ
  Basis Set:
  Basis Set: CC-PVTZ
  Basis Set:
  @DF-RHF Final Energy:  -191.99637809321058
    Total Energy =                       -191.9963780932105806
  Basis Set: CC-PVTZ
  Basis Set:
  Charge       = 0
  Multiplicity = 1
  Basis Set: CC-PVTZ
  Basis Set:

    Orbital Energies (a.u.)
    -----------------------

    Doubly Occupied:

       1A    -20.551261     2A    -11.275538     3A    -11.230007
       4A    -11.223409     5A     -1.369161     6A     -1.066596
       7A     -0.923796     8A     -0.782474     9A     -0.688966
      10A     -0.660493    11A     -0.620058    12A     -0.573511
      13A     -0.546627    14A     -0.489774    15A     -0.445344
      16A     -0.377660

  @DF-RHF Final Energy:  -191.99637826961145

   => Energetics <=

    Nuclear Repulsion Energy =            117.6956037691323900
    One-Electron Energy =                -493.7346114533632999
    Two-Electron Energy =                 184.0426294146194550
    DFT Exchange-Correlation Energy =       0.0000000000000000
    Empirical Dispersion Energy =           0.0000000000000000
    PCM Polarization Energy =               0.0000000000000000
    EFP Energy =                            0.0000000000000000
    Total Energy =                       -191.9963782696114549
    Molecular point group: c1
  Basis Set: CC-PVTZ
  Basis Set:

  -Total Gradient:
     Atom            X                  Y                   Z
    ------   -----------------  -----------------  -----------------
       1        0.000000120652     0.000001525917    -0.000004069425
       2       -0.000023267719    -0.000002292450    -0.000028074625
       3        0.000174072676    -0.000642963461     0.002684680315
       4       -0.000152445185     0.000369810773    -0.002591038340
       5       -0.000102708843     0.000445556024    -0.001556493307
       6        0.000007483490     0.000003731472     0.000008213942
       7        0.000093257098    -0.000163400169     0.001513268348
       8        0.000002830392    -0.000007778106    -0.000011063563
       9       -0.000003312865    -0.000000196899    -0.000003632373
      10        0.000003970304    -0.000003993098    -0.000011790973

  **** Optimization is complete! (in 5 steps) ****
    Final optimized geometry and variables:
    Molecular point group: c1

    Geometry (in Angstrom), charge = 0, multiplicity = 1:

    H            1.088614365108     1.338799290351     1.136526195715
    O            1.322307878647     0.472187373499     0.857058421162
    C            0.706576733023     0.175613317815    -0.367964241594
    C           -0.793521038915     0.152653068718    -0.281936740750
    H            1.074163097002    -0.792730584112    -0.675191468214
    H            1.016259362138     0.891701565822    -1.125813565697
    C           -1.526349001670    -0.935579320013    -0.359864089792
    H           -1.276730111108     1.103773086209    -0.122805951910
    H           -1.082320942497    -1.903193744856    -0.509609451765
    H           -2.596764350270    -0.901134832438    -0.282145129237

  Mulliken Charges: (a.u.)
   Center  Symbol    Alpha    Beta     Spin     Total
       1     H     0.39461  0.39461  0.00000  0.21078
       2     O     4.19723  4.19723  0.00000 -0.39445
       3     C     2.95615  2.95615  0.00000  0.08769
       4     C     3.07171  3.07171  0.00000 -0.14341
       5     H     0.45568  0.45568  0.00000  0.08864
       6     H     0.47243  0.47243  0.00000  0.05515
       7     C     3.16615  3.16615  0.00000 -0.33231
       8     H     0.42817  0.42817  0.00000  0.14366
       9     H     0.42951  0.42951  0.00000  0.14099
      10     H     0.42837  0.42837  0.00000  0.14327

   Total alpha = 16.00000, Total beta = 16.00000, Total charge = -0.00000

*** Psi4 exiting successfully. Buy a developer a beer!
