                              Psi4 1.0.54 Driver

  ==> Input File <==

--------------------------------------------------------------------------
set {
	reference rhf
	basis cc-pvtz
}

set_num_threads( 4 )
memory 2 gb

molecule MOL {
0 1

H	 -3.144994	 -1.202467	 -0.018751
O	 -2.321472	 -0.864941	 -0.318626
C	 -2.021813	 0.336996	 0.342658
C	 -0.669613	 0.837286	 -0.127252
H	 -2.780861	 1.084746	 0.127159
H	 -2.006390	 0.184138	 1.420053
C	 0.490865	 -0.082543	 0.241244
H	 -0.708709	 0.967192	 -1.204587
H	 -0.507562	 1.822272	 0.303070
C	 1.839800	 0.429565	 -0.255472
H	 0.305636	 -1.070211	 -0.165276
H	 0.527397	 -0.195943	 1.322876
C	 2.499731	 1.408577	 0.709833
H	 2.503926	 -0.414372	 -0.421027
H	 1.711235	 0.909458	 -1.222355
H	 2.673810	 0.946606	 1.675853
H	 3.455366	 1.751958	 0.330154
H	 1.875053	 2.281186	 0.870384

	symmetry c1
}
set optking {
	frozen_dihedral = ("
		14 10 7 11
	")
}

ee,wfn = optimize('scf', return_wfn=True)
oeprop( wfn, 'DIPOLE', 'QUADRUPOLE', 'MULLIKEN_CHARGES')
f=open( 'psi4out.xyz', 'w' )
f.write( "18  " )
f.write( str(ee) + "\n" )
f.write( MOL.save_string_xyz() )
f.close()
--------------------------------------------------------------------------

    Molecular point group: c1
  Charge       = 0
  Multiplicity = 1
  Basis Set: CC-PVTZ
  Basis Set:
  @DF-RHF Final Energy:  -271.28381031606727
    Total Energy =                       -271.2838103160669334
    Molecular point group: c1
  Basis Set: CC-PVTZ
  Basis Set:
  Basis Set: CC-PVTZ
  Basis Set:
  @DF-RHF Final Energy:  -271.28403667105556
    Total Energy =                       -271.2840366710555600
  Basis Set: CC-PVTZ
  Basis Set:
  Basis Set: CC-PVTZ
  Basis Set:
  @DF-RHF Final Energy:  -271.28407988779821
    Total Energy =                       -271.2840798877981570
  Basis Set: CC-PVTZ
  Basis Set:
  Charge       = 0
  Multiplicity = 1
  Basis Set: CC-PVTZ
  Basis Set:

    Orbital Energies (a.u.)
    -----------------------

    Doubly Occupied:

       1A    -20.546154     2A    -11.265935     3A    -11.210607
       4A    -11.209246     5A    -11.204980     6A    -11.204268
       7A     -1.364084     8A     -1.075960     9A     -1.008528
      10A     -0.915680    11A     -0.826666    12A     -0.778334
      13A     -0.708330    14A     -0.637676    15A     -0.614443
      16A     -0.609339    17A     -0.571504    18A     -0.550381
      19A     -0.521756    20A     -0.508721    21A     -0.494914
      22A     -0.462880    23A     -0.456040    24A     -0.449989
      25A     -0.431051

  @DF-RHF Final Energy:  -271.28408067883549

   => Energetics <=

    Nuclear Repulsion Energy =            250.8990990963848446
    One-Electron Energy =                -865.1114322154651290
    Two-Electron Energy =                 342.9282524402447621
    DFT Exchange-Correlation Energy =       0.0000000000000000
    Empirical Dispersion Energy =           0.0000000000000000
    PCM Polarization Energy =               0.0000000000000000
    EFP Energy =                            0.0000000000000000
    Total Energy =                       -271.2840806788355508
    Molecular point group: c1
  Basis Set: CC-PVTZ
  Basis Set:

  -Total Gradient:
     Atom            X                  Y                   Z
    ------   -----------------  -----------------  -----------------
       1        0.000003032665     0.000010868369     0.000006018316
       2       -0.000018843154     0.000021443624    -0.000021229011
       3        0.000028710666    -0.000002864789     0.000080509623
       4       -0.000009671443     0.000018262318    -0.000041286006
       5       -0.000018805190    -0.000022497925    -0.000012282209
       6       -0.000022775237    -0.000006172274     0.000001261332
       7       -0.001633114654     0.001494939527    -0.003595982093
       8        0.000033481609    -0.000002492501    -0.000007406962
       9       -0.000005068878    -0.000018746611    -0.000005261810
      10        0.001289712624    -0.000151796914     0.004017814156
      11        0.001162890442    -0.001235922556     0.002374066417
      12        0.000009609618     0.000011806385    -0.000014185616
      13       -0.000001037620     0.000029481855     0.000018107024
      14       -0.000793456940    -0.000132269248    -0.002789395786
      15       -0.000011867357     0.000002912814     0.000025962308
      16       -0.000013773779    -0.000014558540    -0.000023137369
      17        0.000002986914    -0.000000300128    -0.000009004363
      18       -0.000002010293    -0.000002093408    -0.000004567953

  **** Optimization is complete! (in 4 steps) ****
    Final optimized geometry and variables:
    Molecular point group: c1

    Geometry (in Angstrom), charge = 0, multiplicity = 1:

    H           -3.087757864530    -1.469650907333    -0.170246127887
    O           -2.253307019470    -1.150920874820    -0.460052720021
    C           -1.940769212058     0.050781440765     0.195503044104
    C           -0.572920794367     0.522414021177    -0.258601861990
    H           -2.682675619035     0.810497665814    -0.037347960840
    H           -1.943718147243    -0.093077999815     1.274173277256
    C            0.562317726377    -0.424396071747     0.122786699922
    H           -0.594717340609     0.649524390955    -1.336622417135
    H           -0.400594335291     1.505059507714     0.171279990387
    C            1.951158585482     0.073598165975    -0.295348684137
    H            0.378071611717    -1.400484161338    -0.307047824333
    H            0.551377447965    -0.574672777659     1.200870473251
    C            2.586884082536     1.051202130859     0.688422147798
    H            2.608623626121    -0.777289167587    -0.440124345416
    H            1.878244488093     0.546487836526    -1.271553268135
    H            2.738267878988     0.584529905767     1.656054467945
    H            3.551839493962     1.393164163091     0.331622799200
    H            1.965615172720     1.927327744912     0.839359676680

  Mulliken Charges: (a.u.)
   Center  Symbol    Alpha    Beta     Spin     Total
       1     H     0.39580  0.39580  0.00000  0.20840
       2     O     4.19861  4.19861  0.00000 -0.39721
       3     C     2.97337  2.97337  0.00000  0.05326
       4     C     3.08989  3.08989  0.00000 -0.17979
       5     H     0.46549  0.46549  0.00000  0.06902
       6     H     0.47330  0.47330  0.00000  0.05340
       7     C     3.09457  3.09457  0.00000 -0.18915
       8     H     0.45193  0.45193  0.00000  0.09613
       9     H     0.45454  0.45454  0.00000  0.09093
      10     C     3.09038  3.09038  0.00000 -0.18076
      11     H     0.43855  0.43855  0.00000  0.12290
      12     H     0.46089  0.46089  0.00000  0.07822
      13     C     3.14792  3.14792  0.00000 -0.29584
      14     H     0.44788  0.44788  0.00000  0.10424
      15     H     0.45683  0.45683  0.00000  0.08634
      16     H     0.45543  0.45543  0.00000  0.08915
      17     H     0.44833  0.44833  0.00000  0.10333
      18     H     0.45628  0.45628  0.00000  0.08744

   Total alpha = 25.00000, Total beta = 25.00000, Total charge = -0.00000

*** Psi4 exiting successfully. Buy a developer a beer!
