                              Psi4 1.0.54 Driver

  ==> Input File <==

--------------------------------------------------------------------------
set {
	reference rhf
	basis cc-pvtz
}

set_num_threads( 4 )
memory 2 gb

molecule MOL {
0 1

H	 -3.268214	 -0.875720	 0.463107
C	 -2.806015	 0.000007	 0.024886
N	 -1.391133	 0.000016	 0.301321
H	 -3.029448	 0.000055	 -1.045738
H	 -3.268126	 0.875758	 0.463150
C	 -0.654383	 0.860210	 -0.599146
C	 -0.832253	 -1.334560	 0.310883
H	 -0.748721	 0.525881	 -1.636534
H	 -1.063103	 1.861976	 -0.540013
C	 0.815247	 0.896769	 -0.223827
H	 -1.370816	 -1.935064	 1.034371
H	 -0.938712	 -1.818503	 -0.664470
C	 0.637377	 -1.298001	 0.686202
H	 1.353810	 1.497273	 -0.947315
H	 0.921706	 1.380712	 0.751526
N	 1.374127	 -0.437807	 -0.214265
H	 1.046097	 -2.299767	 0.627069
H	 0.731715	 -0.963672	 1.723590
C	 2.789009	 -0.437798	 0.062170
H	 3.308718	 0.167028	 -0.670395
H	 3.177929	 -1.446388	 -0.001472
H	 3.027672	 -0.045598	 1.054832

	symmetry c1
}
set optking {
	frozen_dihedral = ("
		6 3 2 4
	")
}

ee,wfn = optimize('scf', return_wfn=True)
oeprop( wfn, 'DIPOLE', 'QUADRUPOLE', 'MULLIKEN_CHARGES')
f=open( 'psi4out.xyz', 'w' )
f.write( "22  " )
f.write( str(ee) + "\n" )
f.write( MOL.save_string_xyz() )
f.close()
--------------------------------------------------------------------------

    Molecular point group: c1
  Charge       = 0
  Multiplicity = 1
  Basis Set: CC-PVTZ
  Basis Set:
  @DF-RHF Final Energy:  -344.34863332653526
    Total Energy =                       -344.3486333265353778
    Molecular point group: c1
  Basis Set: CC-PVTZ
  Basis Set:
  Basis Set: CC-PVTZ
  Basis Set:
  @DF-RHF Final Energy:  -344.34879709209002
    Total Energy =                       -344.3487970920898533
  Basis Set: CC-PVTZ
  Basis Set:
  Basis Set: CC-PVTZ
  Basis Set:
  @DF-RHF Final Energy:  -344.34881386474683
    Total Energy =                       -344.3488138647468304
  Basis Set: CC-PVTZ
  Basis Set:
  Charge       = 0
  Multiplicity = 1
  Basis Set: CC-PVTZ
  Basis Set:

    Orbital Energies (a.u.)
    -----------------------

    Doubly Occupied:

       1A    -15.537874     2A    -15.537452     3A    -11.237540
       4A    -11.237462     5A    -11.236876     6A    -11.236789
       7A    -11.234215     8A    -11.234171     9A     -1.257059
      10A     -1.205970    11A     -1.025526    12A     -0.992768
      13A     -0.912277    14A     -0.867616    15A     -0.836559
      16A     -0.756141    17A     -0.666768    18A     -0.637402
      19A     -0.631990    20A     -0.626855    21A     -0.622603
      22A     -0.582226    23A     -0.550993    24A     -0.546810
      25A     -0.542007    26A     -0.518306    27A     -0.497767
      28A     -0.490131    29A     -0.465500    30A     -0.456674
      31A     -0.352797    32A     -0.348294

  @DF-RHF Final Energy:  -344.34881479814942

   => Energetics <=

    Nuclear Repulsion Energy =            421.9225865376421325
    One-Electron Energy =               -1302.7759713293335153
    Two-Electron Energy =                 536.5045699935421908
    DFT Exchange-Correlation Energy =       0.0000000000000000
    Empirical Dispersion Energy =           0.0000000000000000
    PCM Polarization Energy =               0.0000000000000000
    EFP Energy =                            0.0000000000000000
    Total Energy =                       -344.3488147981491920
    Molecular point group: c1
  Basis Set: CC-PVTZ
  Basis Set:

  -Total Gradient:
     Atom            X                  Y                   Z
    ------   -----------------  -----------------  -----------------
       1        0.000019077363     0.000002045935     0.000014168789
       2        0.000166006135    -0.006910288682    -0.000773735499
       3       -0.000613806517     0.004870970200     0.002903058385
       4        0.000012209700     0.004589991774    -0.000032738451
       5       -0.000010555843     0.000029112279     0.000000600209
       6        0.000401113194    -0.002692234607    -0.002110912044
       7       -0.000040167334     0.000111351505     0.000029236923
       8       -0.000007983901     0.000007592522    -0.000024426990
       9        0.000001797093    -0.000000428477    -0.000004669833
      10        0.000022017339     0.000020871406     0.000016481973
      11       -0.000007264637    -0.000001252336    -0.000006401901
      12        0.000003845645     0.000002252870    -0.000000497825
      13        0.000043850303    -0.000027695154     0.000001531594
      14        0.000001706503    -0.000004194475    -0.000000556168
      15        0.000013482753     0.000003260472     0.000005569858
      16        0.000000938571    -0.000003260545    -0.000009900976
      17        0.000023304118    -0.000007710388     0.000001021796
      18       -0.000007396517     0.000002232159    -0.000013531351
      19       -0.000009778285     0.000004728779     0.000011503400
      20       -0.000004101140     0.000002653408    -0.000003522336
      21       -0.000008953406     0.000000929717    -0.000001143621
      22        0.000000658868    -0.000000928362    -0.000001135930

  **** Optimization is complete! (in 4 steps) ****
    Final optimized geometry and variables:
    Molecular point group: c1

    Geometry (in Angstrom), charge = 0, multiplicity = 1:

    H           -3.284463619543    -0.630739740805     0.448607513980
    C           -2.802082883092     0.220659210794    -0.011292676450
    N           -1.383965178395     0.214550983013     0.272491526055
    H           -3.017711324471     0.216531516137    -1.081655322001
    H           -3.255357003414     1.118651489924     0.394923759340
    C           -0.650983502243     1.070537073605    -0.636455397002
    C           -0.819270144670    -1.120346261682     0.260939064812
    H           -0.750011337351     0.725191656895    -1.669256668315
    H           -1.063623765335     2.071962630066    -0.586400669996
    C            0.819869026302     1.117113793034    -0.268277044233
    H           -1.349586951710    -1.732112887582     0.980499743099
    H           -0.925685992939    -1.594137778834    -0.719303425295
    C            0.651552816814    -1.081589479055     0.632654408659
    H            1.350989414910     1.720952225736    -0.994722370164
    H            0.928520901317     1.601900176033     0.706427435247
    N            1.385576417595    -0.214277623775    -0.262808176194
    H            1.062828232539    -2.082097362288     0.567247627264
    H            0.745617529486    -0.753417025872     1.672136938232
    C            2.799958842837    -0.209073912398     0.014547424976
    H            3.317382099671     0.401679356756    -0.714837727157
    H            3.193674173192    -1.215587421439    -0.053562178276
    H            3.036421593223     0.179568401672     1.009227537064

  Mulliken Charges: (a.u.)
   Center  Symbol    Alpha    Beta     Spin     Total
       1     H     0.45339  0.45339  0.00000  0.09323
       2     C     3.09781  3.09781  0.00000 -0.19562
       3     N     3.61474  3.61474  0.00000 -0.22948
       4     H     0.46822  0.46822  0.00000  0.06356
       5     H     0.45031  0.45031  0.00000  0.09938
       6     C     3.03672  3.03672  0.00000 -0.07344
       7     C     3.03417  3.03417  0.00000 -0.06834
       8     H     0.46681  0.46681  0.00000  0.06638
       9     H     0.45376  0.45376  0.00000  0.09249
      10     C     3.03592  3.03592  0.00000 -0.07184
      11     H     0.45381  0.45381  0.00000  0.09239
      12     H     0.46887  0.46887  0.00000  0.06226
      13     C     3.03625  3.03625  0.00000 -0.07251
      14     H     0.45383  0.45383  0.00000  0.09233
      15     H     0.46798  0.46798  0.00000  0.06405
      16     N     3.61290  3.61290  0.00000 -0.22579
      17     H     0.45387  0.45387  0.00000  0.09225
      18     H     0.46820  0.46820  0.00000  0.06360
      19     C     3.09851  3.09851  0.00000 -0.19703
      20     H     0.45199  0.45199  0.00000  0.09603
      21     H     0.45197  0.45197  0.00000  0.09606
      22     H     0.46998  0.46998  0.00000  0.06003

   Total alpha = 32.00000, Total beta = 32.00000, Total charge = -0.00000

*** Psi4 exiting successfully. Buy a developer a beer!
