  ==> Input File <==

--------------------------------------------------------------------------
set {
	reference rhf
	basis 6-31G*
}

set_num_threads( 4 )
memory 2 gb

molecule MOL {
0 1

H	 1.290306	 0.285604	 0.992127
C	 0.850167	 0.441173	 0.000644
C	 -0.623425	 0.760064	 0.000248
O	 1.525937	 0.357210	 -0.973024
C	 -1.518387	 -0.473136	 -0.000101
H	 -0.818289	 1.390622	 -0.866171
H	 -0.818694	 1.390413	 0.866696
H	 -1.333417	 -1.085530	 -0.874338
H	 -2.563510	 -0.183466	 -0.000351
H	 -1.333864	 -1.085676	 0.874123

	symmetry c1
}
set optking {
	frozen_dihedral = ("
		4 2 3 6
	")
}

ee = optimize('scf')
oeprop('DIPOLE', 'QUADRUPOLE', 'MULLIKEN_CHARGES')
f=open( 'psi4out.xyz', 'w' )
f.write( "10  " )
f.write( str(ee) + "\n" )
f.write( MOL.save_string_xyz() )
f.close()
--------------------------------------------------------------------------

    Molecular point group: c1
  Charge       = 0
  Multiplicity = 1
  Basis Set: 6-31G*
  Basis Set:
  @DF-RHF Final Energy:  -191.94857004500946
    Total Energy =                       -191.9485700450094896
    Molecular point group: c1
  Basis Set: 6-31G*
  Basis Set:
  Basis Set: 6-31G*
  Basis Set:
  @DF-RHF Final Energy:  -191.94810800238832
    Total Energy =                       -191.9481080023883521
  Basis Set: 6-31G*
  Basis Set:
  Basis Set: 6-31G*
  Basis Set:
  @DF-RHF Final Energy:  -191.94901464183778
    Total Energy =                       -191.9490146418377208
  Basis Set: 6-31G*
  Basis Set:
  Basis Set: 6-31G*
  Basis Set:
  @DF-RHF Final Energy:  -191.94936127184656
    Total Energy =                       -191.9493612718465556
  Basis Set: 6-31G*
  Basis Set:
  Basis Set: 6-31G*
  Basis Set:
  @DF-RHF Final Energy:  -191.94936389447253
    Total Energy =                       -191.9493638944724978
  Basis Set: 6-31G*
  Basis Set:
  Charge       = 0
  Multiplicity = 1
  Basis Set: 6-31G*
  Basis Set:

    Orbital Energies (a.u.)
    -----------------------

    Doubly Occupied:

       1A    -20.563807     2A    -11.327875     3A    -11.238464
       4A    -11.233175     5A     -1.403837     6A     -1.064519
       7A     -0.904631     8A     -0.789702     9A     -0.680146
      10A     -0.639803    11A     -0.604989    12A     -0.575086
      13A     -0.541587    14A     -0.509833    15A     -0.496221
      16A     -0.411968

  @DF-RHF Final Energy:  -191.94936415267750

   => Energetics <=

    Nuclear Repulsion Energy =            117.9879955161748484
    One-Electron Energy =                -493.9034390383530422
    Two-Electron Energy =                 183.9660793695006760
    DFT Exchange-Correlation Energy =       0.0000000000000000
    Empirical Dispersion Energy =           0.0000000000000000
    PCM Polarization Energy =               0.0000000000000000
    EFP Energy =                            0.0000000000000000
    Total Energy =                       -191.9493641526775036
    Molecular point group: c1
  Basis Set: 6-31G*
  Basis Set:

  -Total Gradient:
     Atom            X                  Y                   Z
    ------   -----------------  -----------------  -----------------
       1        0.000004544046    -0.000002398018    -0.000015146375
       2        0.000499904901     0.002067441488     0.000218747679
       3       -0.000464704625    -0.001842242418    -0.000811264985
       4       -0.000307969776    -0.001266137290    -0.000038835032
       5        0.000005262577     0.000002944283     0.000013940576
       6        0.000262251023     0.001040897851     0.000646528269
       7       -0.000001267953    -0.000007094326    -0.000010554513
       8       -0.000000149795     0.000004329879    -0.000000545721
       9        0.000002748570     0.000008214146    -0.000001902934
      10       -0.000000618974    -0.000005955595    -0.000000966965

  **** Optimization is complete! (in 6 steps) ****
    Final optimized geometry and variables:
    Molecular point group: c1

    Geometry (in Angstrom), charge = 0, multiplicity = 1:

    H            1.230414948244     0.002473686276     1.244437074542
    C            0.788035698891     0.183267258184     0.258101534829
    C           -0.676604320747     0.546210165468     0.249344071397
    O            1.442399175006     0.044703758450    -0.724312930335
    C           -1.543767385788    -0.720501222370     0.249189008924
    H           -0.874292253590     1.146123019705    -0.631099147491
    H           -0.902059485850     1.145360340989     1.127195783434
    H           -1.349374678075    -1.315920395286    -0.635429480208
    H           -2.595498556446    -0.458367351355     0.259359525255
    H           -1.346532144419    -1.336028478542     1.121789331073

  Mulliken Charges: (a.u.)
   Center  Symbol    Alpha    Beta     Spin     Total
       1     H     0.42996  0.42996  0.00000  0.14008
       2     C     2.83849  2.83849  0.00000  0.32303
       3     C     3.20084  3.20084  0.00000 -0.40169
       4     O     4.23528  4.23528  0.00000 -0.47056
       5     C     3.24942  3.24942  0.00000 -0.49883
       6     H     0.39922  0.39922  0.00000  0.20156
       7     H     0.41450  0.41450  0.00000  0.17100
       8     H     0.40595  0.40595  0.00000  0.18810
       9     H     0.41000  0.41000  0.00000  0.18000
      10     H     0.41634  0.41634  0.00000  0.16732

   Total alpha = 16.00000, Total beta = 16.00000, Total charge =  0.00000
