  ==> Input File <==

--------------------------------------------------------------------------
set {
	reference rhf
	basis cc-pvtz
}

set_num_threads( 4 )
memory 2 gb

molecule MOL {
0 1

H	 1.036457	 0.618507	 0.175438
C	 0.788096	 -0.429819	 0.000000
N	 -0.537714	 -0.645117	 0.000000
O	 1.630334	 -1.254062	 -0.167262
C	 -1.522613	 0.412524	 0.000000
H	 -0.845894	 -1.585866	 0.000000
H	 -2.150256	 0.356137	 -0.880771
H	 -1.005621	 1.357208	 0.000000
H	 -2.150256	 0.356137	 0.880771

	symmetry c1
}
set optking {
	frozen_dihedral = ("
		1 2 3 6
	")
}

ee = optimize('scf')
oeprop('DIPOLE', 'QUADRUPOLE', 'MULLIKEN_CHARGES')
f=open( 'psi4out.xyz', 'w' )
f.write( "9  " )
f.write( str(ee) + "\n" )
f.write( MOL.save_string_xyz() )
f.close()
--------------------------------------------------------------------------

    Molecular point group: c1
  Charge       = 0
  Multiplicity = 1
  Basis Set: CC-PVTZ
  Basis Set:
  @DF-RHF Final Energy:  -208.04079959893329
    Total Energy =                       -208.0407995989332903
    Molecular point group: c1
  Basis Set: CC-PVTZ
  Basis Set:
  Basis Set: CC-PVTZ
  Basis Set:
  @DF-RHF Final Energy:  -208.04051272087037
    Total Energy =                       -208.0405127208703675
  Basis Set: CC-PVTZ
  Basis Set:
  Basis Set: CC-PVTZ
  Basis Set:
  @DF-RHF Final Energy:  -208.04155815419929
    Total Energy =                       -208.0415581541993788
  Basis Set: CC-PVTZ
  Basis Set:
  Basis Set: CC-PVTZ
  Basis Set:
  @DF-RHF Final Energy:  -208.04166378065554
    Total Energy =                       -208.0416637806555684
  Basis Set: CC-PVTZ
  Basis Set:
  @DF-RHF Final Energy:  -208.04170136951848
    Total Energy =                       -208.0417013695184210
  @DF-RHF Final Energy:  -208.04171144260687
    Total Energy =                       -208.0417114426068110
  @DF-RHF Final Energy:  -208.04171340619644
    Total Energy =                       -208.0417134061965498
  @DF-RHF Final Energy:  -208.04171856808301
    Total Energy =                       -208.0417185680828993
  @DF-RHF Final Energy:  -208.04172342958699
    Total Energy =                       -208.0417234295871367
  @DF-RHF Final Energy:  -208.04172786712769
    Total Energy =                       -208.0417278671276620
  Basis Set: CC-PVTZ
  Basis Set:
  @DF-RHF Final Energy:  -208.04173169733559
    Total Energy =                       -208.0417316973357060
  Basis Set: CC-PVTZ
  Basis Set:
  Basis Set: CC-PVTZ
  Basis Set:
  @DF-RHF Final Energy:  -208.04173494502447
    Total Energy =                       -208.0417349450244728
  Basis Set: CC-PVTZ
  Basis Set:
  Basis Set: CC-PVTZ
  Basis Set:
  @DF-RHF Final Energy:  -208.04174130494556
    Total Energy =                       -208.0417413049456172
  Basis Set: CC-PVTZ
  Basis Set:
  Charge       = 0
  Multiplicity = 1
  Basis Set: CC-PVTZ
  Basis Set:

    Orbital Energies (a.u.)
    -----------------------

    Doubly Occupied:

       1A    -20.516788     2A    -15.584283     3A    -11.338459
       4A    -11.274355     5A     -1.394274     6A     -1.243254
       7A     -0.966923     8A     -0.847866     9A     -0.694161
      10A     -0.678449    11A     -0.636513    12A     -0.596687
      13A     -0.571047    14A     -0.548472    15A     -0.428832
      16A     -0.395297

  @DF-RHF Final Energy:  -208.04174282945561

   => Energetics <=

    Nuclear Repulsion Energy =            120.6924696019878809
    One-Electron Energy =                -522.0371090872383775
    Two-Electron Energy =                 193.3028966557948820
    DFT Exchange-Correlation Energy =       0.0000000000000000
    Empirical Dispersion Energy =           0.0000000000000000
    PCM Polarization Energy =               0.0000000000000000
    EFP Energy =                            0.0000000000000000
    Total Energy =                       -208.0417428294555862
    Molecular point group: c1
  Basis Set: CC-PVTZ
  Basis Set:

  -Total Gradient:
     Atom            X                  Y                   Z
    ------   -----------------  -----------------  -----------------
       1       -0.000222089671    -0.000301349293     0.002673051371
       2        0.000155041549     0.000461754323    -0.002823845142
       3        0.000228742001    -0.000256679400    -0.002263915728
       4        0.000032022942    -0.000033411692     0.000003293493
       5        0.000052713052    -0.000049318720    -0.000259100698
       6       -0.000250716834     0.000170273122     0.002674317997
       7       -0.000019333775     0.000009811018    -0.000007510669
       8        0.000014434652    -0.000001544989    -0.000000880177
       9        0.000009186085     0.000000465630     0.000004589553

  **** Optimization is complete! (in 14 steps) ****
    Final optimized geometry and variables:
    Molecular point group: c1

    Geometry (in Angstrom), charge = 0, multiplicity = 1:

    H            0.981766825922     1.103722223299     0.170673163293
    C            0.717641828988     0.052980307210     0.033605479676
    N           -0.607085297692    -0.144339683348    -0.092032150030
    O            1.540032166034    -0.805818788028     0.016558328932
    C           -1.600722372530     0.892388718029     0.028887489218
    H           -0.902047531109    -1.092527201476    -0.062957708118
    H           -2.307641644947     0.843152452471    -0.789088597214
    H           -1.116744849311     1.858258128639    -0.009696417810
    H           -2.147016334565     0.825482423033     0.962910717528

  Mulliken Charges: (a.u.)
   Center  Symbol    Alpha    Beta     Spin     Total
       1     H     0.47093  0.47093  0.00000  0.05814
       2     C     2.88178  2.88178  0.00000  0.23644
       3     N     3.59758  3.59758  0.00000 -0.19516
       4     O     4.20781  4.20781  0.00000 -0.41563
       5     C     3.07215  3.07215  0.00000 -0.14431
       6     H     0.40941  0.40941  0.00000  0.18118
       7     H     0.45072  0.45072  0.00000  0.09857
       8     H     0.45443  0.45443  0.00000  0.09114
       9     H     0.45519  0.45519  0.00000  0.08962

   Total alpha = 16.00000, Total beta = 16.00000, Total charge =  0.00000
