  ==> Input File <==

--------------------------------------------------------------------------
set {
	reference rhf
	basis cc-pvtz
}

set_num_threads( 4 )
memory 2 gb

molecule MOL {
0 1

H	 -3.144994	 -1.202467	 -0.018751
O	 -2.321472	 -0.864941	 -0.318626
C	 -2.021813	 0.336996	 0.342658
C	 -0.669613	 0.837286	 -0.127252
H	 -2.780861	 1.084746	 0.127159
H	 -2.006390	 0.184138	 1.420053
C	 0.490865	 -0.082543	 0.241244
H	 -0.708709	 0.967192	 -1.204587
H	 -0.507562	 1.822272	 0.303070
C	 1.839800	 0.429565	 -0.255472
H	 0.305636	 -1.070211	 -0.165276
H	 0.527397	 -0.195943	 1.322876
C	 2.609323	 1.211274	 0.804035
H	 2.441291	 -0.411853	 -0.588529
H	 1.688831	 1.059699	 -1.128300
H	 2.806702	 0.596586	 1.675881
H	 3.562275	 1.559228	 0.421785
H	 2.048629	 2.079701	 1.134038

	symmetry c1
}
set optking {
	frozen_dihedral = ("
		14 10 7 11
	")
}

ee = optimize('scf')
oeprop('DIPOLE', 'QUADRUPOLE', 'MULLIKEN_CHARGES')
f=open( 'psi4out.xyz', 'w' )
f.write( "18  " )
f.write( str(ee) + "\n" )
f.write( MOL.save_string_xyz() )
f.close()
--------------------------------------------------------------------------

    Molecular point group: c1
  Charge       = 0
  Multiplicity = 1
  Basis Set: CC-PVTZ
  Basis Set:
  @DF-RHF Final Energy:  -271.28261071343570
    Total Energy =                       -271.2826107134358153
    Molecular point group: c1
  Basis Set: CC-PVTZ
  Basis Set:
  Basis Set: CC-PVTZ
  Basis Set:
  @DF-RHF Final Energy:  -271.28292821899026
    Total Energy =                       -271.2829282189904347
  Basis Set: CC-PVTZ
  Basis Set:
  Basis Set: CC-PVTZ
  Basis Set:
  @DF-RHF Final Energy:  -271.28298932444073
    Total Energy =                       -271.2829893244403934
  Basis Set: CC-PVTZ
  Basis Set:
  Charge       = 0
  Multiplicity = 1
  Basis Set: CC-PVTZ
  Basis Set:

    Orbital Energies (a.u.)
    -----------------------

    Doubly Occupied:

       1A    -20.546171     2A    -11.265898     3A    -11.210919
       4A    -11.209127     5A    -11.204888     6A    -11.204511
       7A     -1.364099     8A     -1.075561     9A     -1.008854
      10A     -0.915232    11A     -0.825105    12A     -0.780577
      13A     -0.708262    14A     -0.638314    15A     -0.615259
      16A     -0.606416    17A     -0.572127    18A     -0.550189
      19A     -0.520670    20A     -0.509710    21A     -0.495214
      22A     -0.463485    23A     -0.454668    24A     -0.449739
      25A     -0.431163

  @DF-RHF Final Energy:  -271.28299026275840

   => Energetics <=

    Nuclear Repulsion Energy =            250.5139727868735235
    One-Electron Energy =                -864.3416149728519713
    Two-Electron Energy =                 342.5446519232198170
    DFT Exchange-Correlation Energy =       0.0000000000000000
    Empirical Dispersion Energy =           0.0000000000000000
    PCM Polarization Energy =               0.0000000000000000
    EFP Energy =                            0.0000000000000000
    Total Energy =                       -271.2829902627586307
    Molecular point group: c1
  Basis Set: CC-PVTZ
  Basis Set:

  -Total Gradient:
     Atom            X                  Y                   Z
    ------   -----------------  -----------------  -----------------
       1        0.000004773359     0.000004978012     0.000005284252
       2       -0.000018955146     0.000035434018    -0.000012174835
       3        0.000009960832    -0.000012746431     0.000061431076
       4       -0.000006710419     0.000007479279    -0.000023730649
       5       -0.000031451234    -0.000029781086    -0.000010272976
       6       -0.000021429081    -0.000000852677    -0.000004450222
       7       -0.002102743494     0.001859418197    -0.004169564677
       8        0.000029367911     0.000005074065    -0.000006042831
       9        0.000009289533    -0.000024560077    -0.000002959327
      10        0.001854483069    -0.000846685388     0.004586596003
      11        0.001437540886    -0.001430846160     0.002778181474
      12       -0.000013086702    -0.000001241957    -0.000015639903
      13        0.000036529000     0.000031119730     0.000014685768
      14       -0.001182254398     0.000417375866    -0.003182161073
      15        0.000014889470     0.000002674808     0.000017816537
      16       -0.000024327035    -0.000005733852    -0.000018130943
      17        0.000013074342     0.000000337254    -0.000003318847
      18       -0.000008950891    -0.000011443598    -0.000015548829

  **** Optimization is complete! (in 4 steps) ****
    Final optimized geometry and variables:
    Molecular point group: c1

    Geometry (in Angstrom), charge = 0, multiplicity = 1:

    H           -3.093941595522    -1.469832802366    -0.084835450210
    O           -2.271678768805    -1.146753802975    -0.403246226736
    C           -1.947468672918     0.061469374290     0.234376465426
    C           -0.599009659044     0.540067017313    -0.267372848518
    H           -2.702534445802     0.814034792260     0.021354140557
    H           -1.913878224148    -0.075500624900     1.313416735874
    C            0.556791742556    -0.394392469988     0.080139915256
    H           -0.657482727561     0.663321545007    -1.344380299127
    H           -0.416362649382     1.525667218770     0.152905235745
    C            1.929356583419     0.132692985704    -0.367857059032
    H            0.375564969539    -1.373217710560    -0.343957813759
    H            0.572416354347    -0.547714602303     1.157445190601
    C            2.662956407323     0.934972904601     0.702088479360
    H            2.548502087883    -0.694057799890    -0.698983041629
    H            1.798877978824     0.755777892029    -1.248891170563
    H            2.882085619197     0.319222101387     1.567855889734
    H            3.602102539694     1.325484724592     0.326615496856
    H            2.068813982141     1.777688263074     1.040299109227

  Mulliken Charges: (a.u.)
   Center  Symbol    Alpha    Beta     Spin     Total
       1     H     0.39583  0.39583  0.00000  0.20834
       2     O     4.19857  4.19857  0.00000 -0.39714
       3     C     2.97395  2.97395  0.00000  0.05210
       4     C     3.08971  3.08971  0.00000 -0.17943
       5     H     0.46560  0.46560  0.00000  0.06879
       6     H     0.47337  0.47337  0.00000  0.05327
       7     C     3.09505  3.09505  0.00000 -0.19010
       8     H     0.45169  0.45169  0.00000  0.09663
       9     H     0.45430  0.45430  0.00000  0.09141
      10     C     3.09025  3.09025  0.00000 -0.18050
      11     H     0.43822  0.43822  0.00000  0.12357
      12     H     0.46093  0.46093  0.00000  0.07813
      13     C     3.14727  3.14727  0.00000 -0.29455
      14     H     0.44774  0.44774  0.00000  0.10453
      15     H     0.45697  0.45697  0.00000  0.08606
      16     H     0.45514  0.45514  0.00000  0.08971
      17     H     0.44902  0.44902  0.00000  0.10196
      18     H     0.45639  0.45639  0.00000  0.08722

   Total alpha = 25.00000, Total beta = 25.00000, Total charge = -0.00000
