  ==> Input File <==

--------------------------------------------------------------------------
set {
	reference rhf
	basis cc-pvtz
}

set_num_threads( 4 )
memory 2 gb

molecule MOL {
0 1

H	 -3.436473	 1.252944	 -1.023892
O	 -3.458596	 0.315260	 -0.960865
C	 -3.176635	 -0.080824	 0.355601
C	 -1.763371	 0.265266	 0.799691
H	 -3.321825	 -1.153438	 0.379502
H	 -3.895468	 0.357385	 1.043382
C	 -0.673390	 -0.426948	 -0.013392
H	 -1.631049	 1.344913	 0.747560
H	 -1.664587	 -0.001624	 1.849167
C	 0.737842	 -0.043159	 0.423759
H	 -0.806103	 -0.190518	 -1.063345
H	 -0.797221	 -1.503753	 0.074146
C	 1.824000	 -0.743224	 -0.390623
H	 0.850588	 1.033777	 0.343840
H	 0.868587	 -0.286314	 1.476203
C	 3.255957	 -0.453067	 0.062319
H	 1.718250	 -0.470599	 -1.438164
H	 1.658105	 -1.815850	 -0.339904
C	 3.388954	 0.690677	 1.064968
H	 3.851609	 -0.217128	 -0.814212
H	 3.687553	 -1.355874	 0.486683
H	 2.960075	 1.606165	 0.669972
H	 4.431438	 0.885723	 1.289524
H	 2.891052	 0.469610	 2.001359

	symmetry c1
}
set optking {
	frozen_dihedral = ("
		20 16 13 17
	")
}

ee = optimize('scf')
oeprop('DIPOLE', 'QUADRUPOLE', 'MULLIKEN_CHARGES')
f=open( 'psi4out.xyz', 'w' )
f.write( "24  " )
f.write( str(ee) + "\n" )
f.write( MOL.save_string_xyz() )
f.close()
--------------------------------------------------------------------------

    Molecular point group: c1
  Charge       = 0
  Multiplicity = 1
  Basis Set: CC-PVTZ
  Basis Set:
  @DF-RHF Final Energy:  -349.37083407273497
    Total Energy =                       -349.3708340727353061
    Molecular point group: c1
  Basis Set: CC-PVTZ
  Basis Set:
  Basis Set: CC-PVTZ
  Basis Set:
  @DF-RHF Final Energy:  -349.37130783299062
    Total Energy =                       -349.3713078329905102
  Basis Set: CC-PVTZ
  Basis Set:
  Basis Set: CC-PVTZ
  Basis Set:
  @DF-RHF Final Energy:  -349.37259917486489
    Total Energy =                       -349.3725991748651154
  Basis Set: CC-PVTZ
  Basis Set:
  Basis Set: CC-PVTZ
  Basis Set:
  @DF-RHF Final Energy:  -349.37266063072610
    Total Energy =                       -349.3726606307265570
  Basis Set: CC-PVTZ
  Basis Set:
  Basis Set: CC-PVTZ
  Basis Set:
  @DF-RHF Final Energy:  -349.37267081238690
    Total Energy =                       -349.3726708123870708
  Basis Set: CC-PVTZ
  Basis Set:
  Basis Set: CC-PVTZ
  Basis Set:
  @DF-RHF Final Energy:  -349.37267409491017
    Total Energy =                       -349.3726740949097120
  Basis Set: CC-PVTZ
  Basis Set:
  Charge       = 0
  Multiplicity = 1
  Basis Set: CC-PVTZ
  Basis Set:

    Orbital Energies (a.u.)
    -----------------------

    Doubly Occupied:

       1A    -20.546232     2A    -11.265459     3A    -11.215076
       4A    -11.212388     5A    -11.210341     6A    -11.209419
       7A    -11.208782     8A    -11.205023     9A     -1.364082
      10A     -1.088034    11A     -1.046710    12A     -0.986257
      13A     -0.915952    14A     -0.854912    15A     -0.802838
      16A     -0.769029    17A     -0.681794    18A     -0.657140
      19A     -0.629797    20A     -0.619020    21A     -0.592002
      22A     -0.587836    23A     -0.554971    24A     -0.544746
      25A     -0.514617    26A     -0.510623    27A     -0.502855
      28A     -0.473029    29A     -0.468870    30A     -0.459827
      31A     -0.452724    32A     -0.444736    33A     -0.421449

  @DF-RHF Final Energy:  -349.37267464577832

   => Energetics <=

    Nuclear Repulsion Energy =            385.4734259162058265
    One-Electron Energy =               -1237.6590549399970769
    Two-Electron Energy =                 502.8129543780129325
    DFT Exchange-Correlation Energy =       0.0000000000000000
    Empirical Dispersion Energy =           0.0000000000000000
    PCM Polarization Energy =               0.0000000000000000
    EFP Energy =                            0.0000000000000000
    Total Energy =                       -349.3726746457783747
    Molecular point group: c1
  Basis Set: CC-PVTZ
  Basis Set:

  -Total Gradient:
     Atom            X                  Y                   Z
    ------   -----------------  -----------------  -----------------
       1       -0.000000179219     0.000000064009     0.000000681876
       2       -0.000002198080     0.000000654656     0.000000210514
       3        0.000009177954    -0.000006707105    -0.000007525681
       4        0.000010992455     0.000004269951     0.000003010979
       5       -0.000001032913    -0.000001092939    -0.000001478784
       6        0.000006059931    -0.000000114356     0.000001882487
       7        0.000001784970     0.000003503505    -0.000002737053
       8        0.000001695514     0.000001119298    -0.000000714041
       9        0.000000215911     0.000001206741     0.000000103962
      10       -0.000018149159     0.000031599007     0.000039468385
      11       -0.000006303679     0.000000103946    -0.000007519668
      12       -0.000000634423    -0.000001202361     0.000003681562
      13       -0.001401352225     0.005633834149     0.001351976524
      14       -0.000040863210    -0.000027206179    -0.000011976959
      15        0.000018364517     0.000010222481     0.000029610063
      16        0.001239435223    -0.005792406814    -0.000686843653
      17        0.001054705693    -0.003861537301    -0.001050059600
      18        0.000024484675     0.000003875005     0.000001396161
      19       -0.000021898345     0.000038911891     0.000002789449
      20       -0.000865035926     0.003988084279     0.000336451525
      21       -0.000012287803    -0.000027061537    -0.000027440165
      22        0.000032596819     0.000008703136     0.000007641852
      23       -0.000011358513    -0.000011678499     0.000002115980
      24       -0.000018220160     0.000002855037     0.000015274281

  **** Optimization is complete! (in 7 steps) ****
    Final optimized geometry and variables:
    Molecular point group: c1

    Geometry (in Angstrom), charge = 0, multiplicity = 1:

    H           -3.397580171357     1.317962696434    -1.176935936542
    O           -3.416799103125     0.378509469633    -1.149813327033
    C           -3.166156482748    -0.065622888634     0.157542318664
    C           -1.766162067648     0.269019776927     0.649918091136
    H           -3.306762770435    -1.138928076655     0.137191918725
    H           -3.904258309526     0.343461185133     0.842861055960
    C           -0.652859566672    -0.386901841538    -0.161721055592
    H           -1.638179876969     1.350418121959     0.642647350646
    H           -1.692358061520    -0.037643822450     1.690532451478
    C            0.744813948370    -0.014707955412     0.326732431658
    H           -0.760164588928    -0.110111958013    -1.204669940992
    H           -0.774208534122    -1.466707378400    -0.119393183731
    C            1.843464241839    -0.689695318838    -0.491836435402
    H            0.856398077369     1.064222689672     0.286874806247
    H            0.842230892733    -0.293203367391     1.372665492878
    C            3.313212059352    -0.417428029219    -0.081256113565
    H            1.714983659942    -0.441953253059    -1.540974051478
    H            1.676759630136    -1.762234520937    -0.446892186809
    C            3.555415939995     0.760043122310     0.865171894896
    H            3.887646865643    -0.218132932505    -0.979219239052
    H            3.734169939579    -1.309497353356     0.368139554419
    H            3.216631303996     1.696423897571     0.436396303866
    H            4.616392908274     0.859750662770     1.065022619871
    H            3.055377442830     0.631665382334     1.817331195451

  Mulliken Charges: (a.u.)
   Center  Symbol    Alpha    Beta     Spin     Total
       1     H     0.39533  0.39533  0.00000  0.20934
       2     O     4.20377  4.20377  0.00000 -0.40754
       3     C     2.97777  2.97777  0.00000  0.04446
       4     C     3.10190  3.10190  0.00000 -0.20380
       5     H     0.45882  0.45882  0.00000  0.08237
       6     H     0.46029  0.46029  0.00000  0.07941
       7     C     3.08818  3.08818  0.00000 -0.17637
       8     H     0.45925  0.45925  0.00000  0.08150
       9     H     0.45355  0.45355  0.00000  0.09291
      10     C     3.08902  3.08902  0.00000 -0.17805
      11     H     0.44655  0.44655  0.00000  0.10689
      12     H     0.45532  0.45532  0.00000  0.08936
      13     C     3.09964  3.09964  0.00000 -0.19929
      14     H     0.45247  0.45247  0.00000  0.09506
      15     H     0.45456  0.45456  0.00000  0.09087
      16     C     3.08726  3.08726  0.00000 -0.17452
      17     H     0.45111  0.45111  0.00000  0.09778
      18     H     0.45239  0.45239  0.00000  0.09522
      19     C     3.15786  3.15786  0.00000 -0.31572
      20     H     0.45149  0.45149  0.00000  0.09703
      21     H     0.45160  0.45160  0.00000  0.09681
      22     H     0.45380  0.45380  0.00000  0.09240
      23     H     0.44487  0.44487  0.00000  0.11025
      24     H     0.45320  0.45320  0.00000  0.09361

   Total alpha = 33.00000, Total beta = 33.00000, Total charge = -0.00000
