  ==> Input File <==

--------------------------------------------------------------------------
set {
	reference rhf
	basis 6-31G*
}

set_num_threads( 1 )
memory 2 gb

molecule MOL {
0 1

O	 -2.643613	 1.004071	 -0.129613
C	 -1.921153	 0.064240	 -0.045697
C	 -2.338960	 -1.366558	 -0.252100
O	 -0.632575	 0.154573	 0.251549
H	 -2.141646	 -1.939037	 0.646946
H	 -3.390888	 -1.406021	 -0.492363
H	 -1.757835	 -1.805479	 -1.054844
C	 0.160891	 -1.019931	 0.106212
C	 1.589627	 -0.672828	 0.480843
H	 0.089836	 -1.367806	 -0.916050
H	 -0.238459	 -1.792301	 0.749618
C	 2.246377	 0.346236	 -0.452210
H	 2.163194	 -1.597435	 0.473358
H	 1.604769	 -0.303424	 1.502885
C	 3.691736	 0.652107	 -0.061850
H	 2.219579	 -0.032311	 -1.472055
H	 1.666466	 1.263317	 -0.447249
H	 4.134505	 1.377213	 -0.737283
H	 4.305508	 -0.243868	 -0.089969
H	 3.748266	 1.059562	 0.943567

	symmetry c1
}
set optking {
	frozen_dihedral = ("
		16 12 9 8,
		2 4 8 10,
		12 9 8 10
	")
}

ee = energy('scf')
oeprop('DIPOLE', 'QUADRUPOLE', 'MULLIKEN_CHARGES')
f=open( 'psi4out.xyz', 'w' )
f.write( "20  " )
f.write( str(ee) + "\n" )
f.write( MOL.save_string_xyz() )
f.close()
--------------------------------------------------------------------------

    Molecular point group: c1

    Geometry (in Angstrom), charge = 0, multiplicity = 1:

       Center              X                  Y                   Z               Mass
    ------------   -----------------  -----------------  -----------------  -----------------
           O         -2.654296838705     1.109762807928    -0.115418949851    15.994914619560
           C         -1.931836838705     0.169931807928    -0.031502949851    12.000000000000
           C         -2.349643838705    -1.260866192072    -0.237905949851    12.000000000000
           O         -0.643258838705     0.260264807928     0.265743050149    15.994914619560
           H         -2.152329838705    -1.833345192072     0.661140050149     1.007825032070
           H         -3.401571838705    -1.300329192072    -0.478168949851     1.007825032070
           H         -1.768518838705    -1.699787192072    -1.040649949851     1.007825032070
           C          0.150207161295    -0.914239192072     0.120406050149    12.000000000000
           C          1.578943161295    -0.567136192072     0.495037050149    12.000000000000
           H          0.079152161295    -1.262114192072    -0.901855949851     1.007825032070
           H         -0.249142838705    -1.686609192072     0.763812050149     1.007825032070
           C          2.235693161295     0.451927807928    -0.438015949851    12.000000000000
           H          2.152510161295    -1.491743192072     0.487552050149     1.007825032070
           H          1.594085161295    -0.197732192072     1.517079050149     1.007825032070
           C          3.681052161295     0.757798807928    -0.047655949851    12.000000000000
           H          2.208895161295     0.073380807928    -1.457860949851     1.007825032070
           H          1.655782161295     1.369008807928    -0.433054949851     1.007825032070
           H          4.123821161295     1.482904807928    -0.723088949851     1.007825032070
           H          4.294824161295    -0.138176192072    -0.075774949851     1.007825032070
           H          3.737582161295     1.165253807928     0.957761050149     1.007825032070

  Charge       = 0
  Multiplicity = 1
  Basis Set: 6-31G*
  Basis Set:

    Orbital Energies (a.u.)
    -----------------------

    Doubly Occupied:

       1A    -20.605526     2A    -20.541711     3A    -11.376485
       4A    -11.299253     5A    -11.238740     6A    -11.233104
       7A    -11.223386     8A    -11.215288     9A     -1.467160
      10A     -1.367980    11A     -1.089013    12A     -1.023580
      13A     -1.004874    14A     -0.892321    15A     -0.815690
      16A     -0.783631    17A     -0.702009    18A     -0.698768
      19A     -0.665194    20A     -0.636909    21A     -0.601559
      22A     -0.597975    23A     -0.573339    24A     -0.560914
      25A     -0.548868    26A     -0.536994    27A     -0.525642
      28A     -0.489609    29A     -0.479858    30A     -0.477697
      31A     -0.443929    32A     -0.431326

  @DF-RHF Final Energy:  -383.92043381545699

   => Energetics <=

    Nuclear Repulsion Energy =            387.5529106456710338
    One-Electron Energy =               -1290.6496947049981827
    Two-Electron Energy =                 519.1763502438686828
    DFT Exchange-Correlation Energy =       0.0000000000000000
    Empirical Dispersion Energy =           0.0000000000000000
    PCM Polarization Energy =               0.0000000000000000
    EFP Energy =                            0.0000000000000000
    Total Energy =                       -383.9204338154584093

  Mulliken Charges: (a.u.)
   Center  Symbol    Alpha    Beta     Spin     Total
       1     O     4.27207  4.27207  0.00000 -0.54415
       2     C     2.60528  2.60528  0.00000  0.78945
       3     C     3.31878  3.31878  0.00000 -0.63756
       4     O     4.29993  4.29993  0.00000 -0.59987
       5     H     0.40025  0.40025  0.00000  0.19951
       6     H     0.38817  0.38817  0.00000  0.22367
       7     H     0.40302  0.40302  0.00000  0.19395
       8     C     3.01218  3.01218  0.00000 -0.02436
       9     C     3.15825  3.15825  0.00000 -0.31651
      10     H     0.41519  0.41519  0.00000  0.16963
      11     H     0.41382  0.41382  0.00000  0.17237
      12     C     3.15697  3.15697  0.00000 -0.31395
      13     H     0.41931  0.41931  0.00000  0.16137
      14     H     0.40999  0.40999  0.00000  0.18002
      15     C     3.24110  3.24110  0.00000 -0.48221
      16     H     0.42442  0.42442  0.00000  0.15116
      17     H     0.40357  0.40357  0.00000  0.19285
      18     H     0.41583  0.41583  0.00000  0.16834
      19     H     0.42276  0.42276  0.00000  0.15449
      20     H     0.41910  0.41910  0.00000  0.16181

   Total alpha = 32.00000, Total beta = 32.00000, Total charge =  0.00000
