  ==> Input File <==

--------------------------------------------------------------------------
set {
	reference rhf
	basis 6-31G*
}

set_num_threads( 4 )
memory 2 gb

molecule MOL {
0 1

O	 1.846825	 1.296220	 0.000415
C	 1.705091	 0.115954	 0.001797
C	 0.381791	 -0.609817	 0.001258
O	 2.721346	 -0.737485	 -0.000216
C	 -0.823008	 0.326187	 0.001381
H	 0.371250	 -1.265087	 -0.865474
H	 0.370908	 -1.265746	 0.867490
C	 -2.149452	 -0.435131	 -0.000098
H	 -0.770201	 0.977095	 -0.865636
H	 -0.771220	 0.975655	 0.869608
C	 -3.368779	 0.488503	 -0.000883
H	 -2.193746	 -1.087250	 -0.871175
H	 -2.195311	 -1.087803	 0.870418
C	 -3.346354	 1.505125	 -1.141597
H	 -3.422266	 1.013619	 0.950187
H	 -4.273627	 -0.111280	 -0.069069
H	 -2.469560	 2.143689	 -1.080920
H	 -4.223185	 2.144600	 -1.115337
H	 -3.327221	 1.009791	 -2.108339
C	 4.024888	 -0.184556	 -0.001949
H	 4.179030	 0.422472	 -0.882452
H	 4.701782	 -1.024608	 -0.003642
H	 4.181981	 0.421185	 0.878906

	symmetry c1
}
set optking {
	frozen_dihedral = ("
		15 11 8 12
	")
}

ee = optimize('scf')
oeprop('DIPOLE', 'QUADRUPOLE', 'MULLIKEN_CHARGES')
f=open( 'psi4out.xyz', 'w' )
f.write( "23  " )
f.write( str(ee) + "\n" )
f.write( MOL.save_string_xyz() )
f.close()
--------------------------------------------------------------------------

    Molecular point group: c1
  Charge       = 0
  Multiplicity = 1
  Basis Set: 6-31G*
  Basis Set:
  @DF-RHF Final Energy:  -422.97319207862699
    Total Energy =                       -422.9731920786279034
    Molecular point group: c1
  Basis Set: 6-31G*
  Basis Set:
  Basis Set: 6-31G*
  Basis Set:
  @DF-RHF Final Energy:  -422.97376282318947
    Total Energy =                       -422.9737628231896451
  Basis Set: 6-31G*
  Basis Set:
  Basis Set: 6-31G*
  Basis Set:
  @DF-RHF Final Energy:  -422.97434337710564
    Total Energy =                       -422.9743433771055834
  Basis Set: 6-31G*
  Basis Set:
  Basis Set: 6-31G*
  Basis Set:
  @DF-RHF Final Energy:  -422.97427084073058
    Total Energy =                       -422.9742708407304690
  Basis Set: 6-31G*
  Basis Set:
  Basis Set: 6-31G*
  Basis Set:
  @DF-RHF Final Energy:  -422.97447876131793
    Total Energy =                       -422.9744787613183234
  Basis Set: 6-31G*
  Basis Set:
  Basis Set: 6-31G*
  Basis Set:
  @DF-RHF Final Energy:  -422.97448592975940
    Total Energy =                       -422.9744859297593393
  Basis Set: 6-31G*
  Basis Set:
  Charge       = 0
  Multiplicity = 1
  Basis Set: 6-31G*
  Basis Set:

    Orbital Energies (a.u.)
    -----------------------

    Doubly Occupied:

       1A    -20.603641     2A    -20.545450     3A    -11.372251
       4A    -11.280860     5A    -11.235532     6A    -11.218906
       7A    -11.218022     8A    -11.216724     9A    -11.207928
      10A     -1.469334    11A     -1.362773    12A     -1.092975
      13A     -1.041945    14A     -0.985106    15A     -0.931349
      16A     -0.856812    17A     -0.782493    18A     -0.766876
      19A     -0.696741    20A     -0.683417    21A     -0.672212
      22A     -0.644163    23A     -0.613377    24A     -0.597886
      25A     -0.589258    26A     -0.560754    27A     -0.534586
      28A     -0.525699    29A     -0.520682    30A     -0.515165
      31A     -0.490733    32A     -0.464300    33A     -0.462230
      34A     -0.459821    35A     -0.455016    36A     -0.435595

  @DF-RHF Final Energy:  -422.97448631123825

   => Energetics <=

    Nuclear Repulsion Energy =            457.3694409481195180
    One-Electron Energy =               -1482.4666340431153913
    Two-Electron Energy =                 602.1227067837573941
    DFT Exchange-Correlation Energy =       0.0000000000000000
    Empirical Dispersion Energy =           0.0000000000000000
    PCM Polarization Energy =               0.0000000000000000
    EFP Energy =                            0.0000000000000000
    Total Energy =                       -422.9744863112384792
    Molecular point group: c1
  Basis Set: 6-31G*
  Basis Set:

  -Total Gradient:
     Atom            X                  Y                   Z
    ------   -----------------  -----------------  -----------------
       1        0.000010379056    -0.000013461513    -0.000019937956
       2       -0.000012950479     0.000004957902     0.000092827459
       3       -0.000006260703    -0.000009999860    -0.000033142358
       4        0.000001703797     0.000011396531    -0.000031120103
       5       -0.000011156276    -0.000002185406    -0.000044899056
       6       -0.000008821879    -0.000004125194     0.000010352259
       7        0.000014348873     0.000001102048     0.000008168875
       8        0.000855028647     0.001273242434    -0.001058638025
       9       -0.000004843990    -0.000003476002     0.000000387451
      10       -0.000010333420    -0.000003218126    -0.000005753845
      11        0.000997603725     0.001439295212    -0.000616591295
      12       -0.000866104864    -0.001282500879     0.000983334491
      13        0.000007789608    -0.000000069787    -0.000000402102
      14        0.000006129848    -0.000010867257     0.000007538858
      15       -0.000978209272    -0.001396060359     0.000699353429
      16        0.000000651130     0.000004408690    -0.000005532504
      17       -0.000001091271     0.000001835825     0.000004159708
      18       -0.000003099030    -0.000005217677     0.000003748409
      19        0.000000959727    -0.000002888467     0.000003088096
      20        0.000002607827    -0.000005140899     0.000006547000
      21        0.000000657172     0.000000461090    -0.000000779074
      22        0.000004509866     0.000002356322    -0.000001560264
      23        0.000000501898     0.000000155372    -0.000001149455

  **** Optimization is complete! (in 7 steps) ****
    Final optimized geometry and variables:
    Molecular point group: c1

    Geometry (in Angstrom), charge = 0, multiplicity = 1:

    O            1.732131816622     1.077334023637     0.076762487496
    C            1.572899600389    -0.099572887057     0.128736953080
    C            0.239148481193    -0.806007508825     0.135767462307
    O            2.576174838966    -0.966168404028     0.188099982760
    C           -0.951275775008     0.146795891492     0.077138617097
    H            0.232609583587    -1.495324343411    -0.704331166847
    H            0.204830691206    -1.426439316807     1.027037524366
    C           -2.284097313899    -0.604396840375     0.072361961502
    H           -0.860463803590     0.767874790231    -0.806335228951
    H           -0.911762961598     0.821209328927     0.927564889468
    C           -3.526132153876     0.291602235254     0.145354789776
    H           -2.349927442717    -1.237592334640    -0.811355140817
    H           -2.308760850493    -1.283991347612     0.922588978146
    C           -3.644689840643     1.321392509931    -0.978656508297
    H           -3.550687845120     0.793246211242     1.110409650246
    H           -4.404124009225    -0.349829655262     0.125172516798
    H           -2.856103607518     2.064672882860    -0.934011450987
    H           -4.592158716034     1.847702816291    -0.917569251803
    H           -3.595733821145     0.843157551611    -1.953500791089
    C            3.887607419380    -0.432136781734     0.187917671993
    H            4.068770415682     0.130408497747    -0.716649287835
    H            4.551834845640    -1.280706459435     0.239867726480
    H            4.035684937466     0.212225590492     1.042542163519

  Mulliken Charges: (a.u.)
   Center  Symbol    Alpha    Beta     Spin     Total
       1     O     4.28622  4.28622  0.00000 -0.57244
       2     C     2.60514  2.60514  0.00000  0.78972
       3     C     3.20780  3.20780  0.00000 -0.41560
       4     O     4.30721  4.30721  0.00000 -0.61442
       5     C     3.15445  3.15445  0.00000 -0.30891
       6     H     0.40060  0.40060  0.00000  0.19879
       7     H     0.40071  0.40071  0.00000  0.19857
       8     C     3.15522  3.15522  0.00000 -0.31043
       9     H     0.40894  0.40894  0.00000  0.18213
      10     H     0.41261  0.41261  0.00000  0.17477
      11     C     3.15170  3.15170  0.00000 -0.30340
      12     H     0.42390  0.42390  0.00000  0.15221
      13     H     0.42294  0.42294  0.00000  0.15413
      14     C     3.24297  3.24297  0.00000 -0.48594
      15     H     0.42191  0.42191  0.00000  0.15618
      16     H     0.42098  0.42098  0.00000  0.15805
      17     H     0.41642  0.41642  0.00000  0.16717
      18     H     0.41873  0.41873  0.00000  0.16254
      19     H     0.42254  0.42254  0.00000  0.15492
      20     C     3.09244  3.09244  0.00000 -0.18487
      21     H     0.40908  0.40908  0.00000  0.18184
      22     H     0.40842  0.40842  0.00000  0.18317
      23     H     0.40908  0.40908  0.00000  0.18184

   Total alpha = 36.00000, Total beta = 36.00000, Total charge = -0.00000
