  ==> Input File <==

--------------------------------------------------------------------------
set {
	reference rhf
	basis 6-31G*
}

set_num_threads( 4 )
memory 2 gb

molecule MOL {
0 1

H	 -4.031818	 -0.453427	 -0.000094
C	 -2.967712	 -0.297022	 -0.000064
C	 -2.458620	 0.992929	 0.000032
C	 -2.109895	 -1.385637	 -0.000122
H	 -3.124998	 1.836319	 0.000077
C	 -1.090278	 1.193236	 0.000070
H	 -2.506361	 -2.384847	 -0.000198
C	 -0.739812	 -1.187531	 -0.000085
H	 -0.678594	 2.184290	 0.000146
C	 -0.226438	 0.104061	 0.000012
H	 -0.072310	 -2.027032	 -0.000131
C	 1.239129	 0.373821	 0.000060
O	 1.639353	 1.066982	 1.055499
O	 1.983117	 0.008588	 -0.855478
C	 3.021061	 1.368646	 1.136446
H	 3.605247	 0.460647	 1.168982
H	 3.146455	 1.928415	 2.050113
H	 3.329344	 1.961152	 0.287436

	symmetry c1
}
set optking {
	frozen_dihedral = ("
		13 12 10 6
	")
}

ee = optimize('scf')
oeprop('DIPOLE', 'QUADRUPOLE', 'MULLIKEN_CHARGES')
f=open( 'psi4out.xyz', 'w' )
f.write( "18  " )
f.write( str(ee) + "\n" )
f.write( MOL.save_string_xyz() )
f.close()
--------------------------------------------------------------------------

    Molecular point group: c1
  Charge       = 0
  Multiplicity = 1
  Basis Set: 6-31G*
  Basis Set:
  @DF-RHF Final Energy:  -457.34115820192255
    Total Energy =                       -457.3411582019224397
    Molecular point group: c1
  Basis Set: 6-31G*
  Basis Set:
  Basis Set: 6-31G*
  Basis Set:
  @DF-RHF Final Energy:  -457.34175873043370
    Total Energy =                       -457.3417587304338667
  Basis Set: 6-31G*
  Basis Set:
  Basis Set: 6-31G*
  Basis Set:
  @DF-RHF Final Energy:  -457.34090803170312
    Total Energy =                       -457.3409080317035205
  Basis Set: 6-31G*
  Basis Set:
  Basis Set: 6-31G*
  Basis Set:
  @DF-RHF Final Energy:  -457.34241524627527
    Total Energy =                       -457.3424152462754364
  Basis Set: 6-31G*
  Basis Set:
  Basis Set: 6-31G*
  Basis Set:
  @DF-RHF Final Energy:  -457.34243107759761
    Total Energy =                       -457.3424310775978938
  Basis Set: 6-31G*
  Basis Set:
  Basis Set: 6-31G*
  Basis Set:
  @DF-RHF Final Energy:  -457.34243249601639
    Total Energy =                       -457.3424324960163858
  Basis Set: 6-31G*
  Basis Set:
  Charge       = 0
  Multiplicity = 1
  Basis Set: 6-31G*
  Basis Set:

    Orbital Energies (a.u.)
    -----------------------

    Doubly Occupied:

       1A    -20.609466     2A    -20.549136     3A    -11.379651
       4A    -11.283448     5A    -11.249533     6A    -11.244741
       7A    -11.243060     8A    -11.241737     9A    -11.239120
      10A    -11.238508    11A     -1.474539    12A     -1.367060
      13A     -1.166299    14A     -1.048579    15A     -1.025578
      16A     -0.979626    17A     -0.859815    18A     -0.837402
      19A     -0.779759    20A     -0.737695    21A     -0.684566
      22A     -0.679113    23A     -0.675787    24A     -0.629962
      25A     -0.629228    26A     -0.597188    27A     -0.590237
      28A     -0.551493    29A     -0.534928    30A     -0.516906
      31A     -0.506029    32A     -0.501799    33A     -0.459115
      34A     -0.445330    35A     -0.342972    36A     -0.341923

  @DF-RHF Final Energy:  -457.34243265981712

   => Energetics <=

    Nuclear Repulsion Energy =            491.9233946706047504
    One-Electron Energy =               -1598.0489988502920369
    Two-Electron Energy =                 648.7831715198710754
    DFT Exchange-Correlation Energy =       0.0000000000000000
    Empirical Dispersion Energy =           0.0000000000000000
    PCM Polarization Energy =               0.0000000000000000
    EFP Energy =                            0.0000000000000000
    Total Energy =                       -457.3424326598162679
    Molecular point group: c1
  Basis Set: 6-31G*
  Basis Set:

  -Total Gradient:
     Atom            X                  Y                   Z
    ------   -----------------  -----------------  -----------------
       1        0.000000239544     0.000002585976     0.000005090166
       2        0.000018970663    -0.000102877536    -0.000015027280
       3        0.000079474926     0.000056017706    -0.000004046002
       4       -0.000099039675     0.000026046618    -0.000005763568
       5       -0.000002243078    -0.000002690595     0.000002667115
       6       -0.000216025985    -0.000219850579    -0.005735272232
       7        0.000001867731    -0.000004822813    -0.000002157289
       8        0.000067427785     0.000032862375     0.000049092209
       9        0.000006692716    -0.000002154595    -0.000009517157
      10        0.000454817915    -0.001244375038     0.009478000854
      11       -0.000011233180    -0.000003896759    -0.000017617403
      12       -0.001138048432     0.006160859047    -0.006774311165
      13        0.000815422545    -0.004702160775     0.003007377588
      14        0.000016371711    -0.000010535139     0.000019749510
      15        0.000000998483     0.000029327281    -0.000010527861
      16        0.000000617923    -0.000007174857     0.000000953013
      17        0.000003266218    -0.000003373357     0.000003994044
      18        0.000000422193    -0.000003786959     0.000007315454

  **** Optimization is complete! (in 7 steps) ****
    Final optimized geometry and variables:
    Molecular point group: c1

    Geometry (in Angstrom), charge = 0, multiplicity = 1:

    H           -3.984781113737    -0.734947472418    -0.235995790421
    C           -2.924588459777    -0.559579823409    -0.197590237630
    C           -2.438330750918     0.737733354743    -0.168533144005
    C           -2.045425030289    -1.631048100611    -0.186461780036
    H           -3.118562216604     1.569832781985    -0.191866332152
    C           -1.073712420362     0.964613053305    -0.109710303133
    H           -2.421100657569    -2.637753644062    -0.218688294512
    C           -0.680047617028    -1.406009197236    -0.151622212929
    H           -0.694662436119     1.969839837601    -0.075589076415
    C           -0.193874206825    -0.108076551901    -0.083970084246
    H            0.007926793996    -2.230916577007    -0.177683656399
    C            1.284091877401     0.113438376520    -0.128654182406
    O            1.715060843226     0.838991298060     0.891494500796
    O            2.003302955366    -0.351404037335    -0.953253983621
    C            3.104868927087     1.113108792857     0.941150196156
    H            3.667670723249     0.194183674995     1.017020315837
    H            3.253384320318     1.718068912591     1.821724983922
    H            3.418421345779     1.650885794513     0.057990577497

  Mulliken Charges: (a.u.)
   Center  Symbol    Alpha    Beta     Spin     Total
       1     H     0.39614  0.39614  0.00000  0.20773
       2     C     3.09487  3.09487  0.00000 -0.18975
       3     C     3.10193  3.10193  0.00000 -0.20386
       4     C     3.10276  3.10276  0.00000 -0.20552
       5     H     0.39606  0.39606  0.00000  0.20788
       6     C     3.09388  3.09388  0.00000 -0.18776
       7     H     0.39556  0.39556  0.00000  0.20887
       8     C     3.09478  3.09478  0.00000 -0.18955
       9     H     0.38948  0.38948  0.00000  0.22104
      10     C     3.02256  3.02256  0.00000 -0.04511
      11     H     0.38599  0.38599  0.00000  0.22802
      12     C     2.63055  2.63055  0.00000  0.73889
      13     O     4.29882  4.29882  0.00000 -0.59763
      14     O     4.27988  4.27988  0.00000 -0.55977
      15     C     3.09409  3.09409  0.00000 -0.18818
      16     H     0.40734  0.40734  0.00000  0.18533
      17     H     0.40670  0.40670  0.00000  0.18659
      18     H     0.40862  0.40862  0.00000  0.18277

   Total alpha = 36.00000, Total beta = 36.00000, Total charge = -0.00000
