  ==> Input File <==

--------------------------------------------------------------------------
set {
	reference rhf
	basis 6-31G*
}

set_num_threads( 1 )
memory 2 gb

molecule MOL {
0 1

O	 -2.439739	 -0.935931	 -0.423848
C	 -1.921153	 0.064240	 -0.045697
C	 -2.624470	 1.379923	 0.150949
O	 -0.632575	 0.154573	 0.251549
H	 -2.168117	 2.136577	 -0.476876
H	 -3.669540	 1.273223	 -0.098610
H	 -2.519365	 1.700893	 1.180846
C	 0.160891	 -1.019931	 0.106212
C	 1.589627	 -0.672828	 0.480843
H	 0.089836	 -1.367806	 -0.916050
H	 -0.238459	 -1.792301	 0.749618
C	 2.604159	 -1.766101	 0.140433
H	 1.608542	 -0.477616	 1.551108
H	 1.866016	 0.255816	 -0.011586
C	 4.027242	 -1.394863	 0.555181
H	 2.313276	 -2.691183	 0.634105
H	 2.575782	 -1.962514	 -0.926326
H	 4.727257	 -2.184902	 0.302496
H	 4.093708	 -1.224157	 1.626031
H	 4.357298	 -0.488621	 0.055313

	symmetry c1
}
set optking {
	frozen_dihedral = ("
		16 12 9 8,
		2 4 8 10,
		1 2 4 8
	")
}

ee = energy('scf')
oeprop('DIPOLE', 'QUADRUPOLE', 'MULLIKEN_CHARGES')
f=open( 'psi4out.xyz', 'w' )
f.write( "20  " )
f.write( str(ee) + "\n" )
f.write( MOL.save_string_xyz() )
f.close()
--------------------------------------------------------------------------

    Molecular point group: c1

    Geometry (in Angstrom), charge = 0, multiplicity = 1:

       Center              X                  Y                   Z               Mass
    ------------   -----------------  -----------------  -----------------  -----------------
           O         -2.526162781069    -0.416577834091    -0.575444883307    15.994914619560
           C         -2.007576781069     0.583593165909    -0.197293883307    12.000000000000
           C         -2.710893781069     1.899276165909    -0.000647883307    12.000000000000
           O         -0.718998781069     0.673926165909     0.099952116693    15.994914619560
           H         -2.254540781069     2.655930165909    -0.628472883307     1.007825032070
           H         -3.755963781069     1.792576165909    -0.250206883307     1.007825032070
           H         -2.605788781069     2.220246165909     1.029249116693     1.007825032070
           C          0.074467218931    -0.500577834091    -0.045384883307    12.000000000000
           C          1.503203218931    -0.153474834091     0.329246116693    12.000000000000
           H          0.003412218931    -0.848452834091    -1.067646883307     1.007825032070
           H         -0.324882781069    -1.272947834091     0.598021116693     1.007825032070
           C          2.517735218931    -1.246747834091    -0.011163883307    12.000000000000
           H          1.522118218931     0.041737165909     1.399511116693     1.007825032070
           H          1.779592218931     0.775169165909    -0.163182883307     1.007825032070
           C          3.940818218931    -0.875509834091     0.403584116693    12.000000000000
           H          2.226852218931    -2.171829834091     0.482508116693     1.007825032070
           H          2.489358218931    -1.443160834091    -1.077922883307     1.007825032070
           H          4.640833218931    -1.665548834091     0.150899116693     1.007825032070
           H          4.007284218931    -0.704803834091     1.474434116693     1.007825032070
           H          4.270874218931     0.030732165909    -0.096283883307     1.007825032070

  Charge       = 0
  Multiplicity = 1
  Basis Set: 6-31G*
  Basis Set:

    Orbital Energies (a.u.)
    -----------------------

    Doubly Occupied:

       1A    -20.601481     2A    -20.543584     3A    -11.374112
       4A    -11.281772     5A    -11.232974     6A    -11.226785
       7A    -11.224293     8A    -11.216518     9A     -1.467405
      10A     -1.361649    11A     -1.087764    12A     -1.029892
      13A     -0.981158    14A     -0.881669    15A     -0.807779
      16A     -0.776064    17A     -0.691927    18A     -0.686149
      19A     -0.668225    20A     -0.638167    21A     -0.595008
      22A     -0.594359    23A     -0.570345    24A     -0.559629
      25A     -0.545044    26A     -0.520005    27A     -0.507127
      28A     -0.485391    29A     -0.480353    30A     -0.476597
      31A     -0.451893    32A     -0.437258

  @DF-RHF Final Energy:  -383.94490163169576

   => Energetics <=

    Nuclear Repulsion Energy =            378.5224352117172657
    One-Electron Energy =               -1272.9298772070305859
    Two-Electron Energy =                 510.4625403636171086
    DFT Exchange-Correlation Energy =       0.0000000000000000
    Empirical Dispersion Energy =           0.0000000000000000
    PCM Polarization Energy =               0.0000000000000000
    EFP Energy =                            0.0000000000000000
    Total Energy =                       -383.9449016316962116

  Mulliken Charges: (a.u.)
   Center  Symbol    Alpha    Beta     Spin     Total
       1     O     4.28327  4.28327  0.00000 -0.56653
       2     C     2.61991  2.61991  0.00000  0.76018
       3     C     3.28152  3.28152  0.00000 -0.56304
       4     O     4.31111  4.31111  0.00000 -0.62222
       5     H     0.40054  0.40054  0.00000  0.19893
       6     H     0.39700  0.39700  0.00000  0.20600
       7     H     0.40059  0.40059  0.00000  0.19882
       8     C     2.99476  2.99476  0.00000  0.01048
       9     C     3.16439  3.16439  0.00000 -0.32879
      10     H     0.41149  0.41149  0.00000  0.17702
      11     H     0.41115  0.41115  0.00000  0.17770
      12     C     3.15950  3.15950  0.00000 -0.31900
      13     H     0.41644  0.41644  0.00000  0.16712
      14     H     0.41339  0.41339  0.00000  0.17321
      15     C     3.23967  3.23967  0.00000 -0.47935
      16     H     0.42010  0.42010  0.00000  0.15979
      17     H     0.41903  0.41903  0.00000  0.16193
      18     H     0.41671  0.41671  0.00000  0.16657
      19     H     0.41968  0.41968  0.00000  0.16064
      20     H     0.41973  0.41973  0.00000  0.16054

   Total alpha = 32.00000, Total beta = 32.00000, Total charge = -0.00000
