                              Psi4 1.0.54 Driver

  ==> Input File <==

--------------------------------------------------------------------------
set {
	reference rhf
	basis cc-pvtz
}

set_num_threads( 4 )
memory 2 gb

molecule MOL {
0 1

O	 0.480949	 0.638822	 0.938986
C	 0.029490	 0.077183	 0.000078
C	 -1.232113	 -0.748027	 0.000015
O	 0.588377	 0.102547	 -1.198352
C	 -2.501422	 0.088592	 -0.000052
H	 -1.188777	 -1.400384	 -0.865133
H	 -1.188857	 -1.400312	 0.865225
H	 -2.548170	 0.725504	 -0.873205
H	 -3.371613	 -0.556398	 -0.000040
H	 -2.548215	 0.725571	 0.873047
C	 1.783315	 0.843672	 -1.341525
H	 1.617808	 1.883701	 -1.102398
H	 2.075504	 0.741073	 -2.373962
H	 2.554543	 0.451862	 -0.695043

	symmetry c1
}
set optking {
	frozen_dihedral = ("
		4 2 3 6
	")
}

ee,wfn = optimize('scf', return_wfn=True)
oeprop( wfn, 'DIPOLE', 'QUADRUPOLE', 'MULLIKEN_CHARGES')
f=open( 'psi4out.xyz', 'w' )
f.write( "14  " )
f.write( str(ee) + "\n" )
f.write( MOL.save_string_xyz() )
f.close()
--------------------------------------------------------------------------

    Molecular point group: c1
  Charge       = 0
  Multiplicity = 1
  Basis Set: CC-PVTZ
  Basis Set:
  @DF-RHF Final Energy:  -305.98519274789851
    Total Energy =                       -305.9851927478982816
    Molecular point group: c1
  Basis Set: CC-PVTZ
  Basis Set:
  Basis Set: CC-PVTZ
  Basis Set:
  @DF-RHF Final Energy:  -305.98548673388012
    Total Energy =                       -305.9854867338799522
  Basis Set: CC-PVTZ
  Basis Set:
  Basis Set: CC-PVTZ
  Basis Set:
  @DF-RHF Final Energy:  -305.98491330556692
    Total Energy =                       -305.9849133055668062
  Basis Set: CC-PVTZ
  Basis Set:
  Basis Set: CC-PVTZ
  Basis Set:
  @DF-RHF Final Energy:  -305.98057285949733
    Total Energy =                       -305.9805728594976699
  Basis Set: CC-PVTZ
  Basis Set:
  Basis Set: CC-PVTZ
  Basis Set:
  @DF-RHF Final Energy:  -305.98595400419424
    Total Energy =                       -305.9859540041943546
  Basis Set: CC-PVTZ
  Basis Set:
  Basis Set: CC-PVTZ
  Basis Set:
  @DF-RHF Final Energy:  -305.98596595743118
    Total Energy =                       -305.9859659574310058
  Basis Set: CC-PVTZ
  Basis Set:
  Basis Set: CC-PVTZ
  Basis Set:
  @DF-RHF Final Energy:  -305.98596813552342
    Total Energy =                       -305.9859681355235352
  Basis Set: CC-PVTZ
  Basis Set:
  Charge       = 0
  Multiplicity = 1
  Basis Set: CC-PVTZ
  Basis Set:

    Orbital Energies (a.u.)
    -----------------------

    Doubly Occupied:

       1A    -20.599271     2A    -20.532190     3A    -11.364445
       4A    -11.279209     5A    -11.235672     6A    -11.224507
       7A     -1.473176     8A     -1.365347     9A     -1.067263
      10A     -0.979672    11A     -0.882559    12A     -0.775692
      13A     -0.700368    14A     -0.683089    15A     -0.676164
      16A     -0.618139    17A     -0.600766    18A     -0.566771
      19A     -0.542397    20A     -0.520889    21A     -0.509548
      22A     -0.505371    23A     -0.459476    24A     -0.438510

  @DF-RHF Final Energy:  -305.98596821328465

   => Energetics <=

    Nuclear Repulsion Energy =            248.1773740203344403
    One-Electron Energy =                -909.1256933694427289
    Two-Electron Energy =                 354.9623511358239512
    DFT Exchange-Correlation Energy =       0.0000000000000000
    Empirical Dispersion Energy =           0.0000000000000000
    PCM Polarization Energy =               0.0000000000000000
    EFP Energy =                            0.0000000000000000
    Total Energy =                       -305.9859682132843091
    Molecular point group: c1
  Basis Set: CC-PVTZ
  Basis Set:

  -Total Gradient:
     Atom            X                  Y                   Z
    ------   -----------------  -----------------  -----------------
       1        0.000012769134     0.000014924561     0.000026263125
       2       -0.000128639912     0.000231642540    -0.000250044895
       3        0.000110467363    -0.000237283309     0.000278111832
       4        0.000070800831    -0.000185451247     0.000151227113
       5       -0.000011973618    -0.000007327695     0.000005132880
       6       -0.000072947621     0.000162316582    -0.000188149374
       7        0.000003637354    -0.000007890461     0.000003618170
       8       -0.000000833808     0.000004807330    -0.000003049423
       9        0.000004747626     0.000001439704    -0.000003266758
      10        0.000006002349    -0.000001695582    -0.000004129187
      11        0.000008130521     0.000044986530    -0.000024246112
      12        0.000006914051    -0.000007746954     0.000001780850
      13        0.000003454556    -0.000004040082     0.000001190640
      14       -0.000012528824    -0.000008681916     0.000005561139

  **** Optimization is complete! (in 8 steps) ****
    Final optimized geometry and variables:
    Molecular point group: c1

    Geometry (in Angstrom), charge = 0, multiplicity = 1:

    O            0.403709897759     0.624709490609     1.205775903351
    C            0.084386073738    -0.087545393670     0.314794718863
    C           -1.243542466712    -0.796164938994     0.232200592744
    O            0.852538805593    -0.325617775463    -0.733837540105
    C           -2.350988140851     0.173786712147    -0.187269664439
    H           -1.174030535053    -1.615618850898    -0.468568892510
    H           -1.456020751006    -1.193253469392     1.215598867853
    H           -2.159670037998     0.581438239209    -1.172922601393
    H           -3.303864080661    -0.338942995212    -0.216937923497
    H           -2.426419796838     0.994698473839     0.513408374758
    C            2.108387868408     0.322702517927    -0.776619336661
    H            1.983515688369     1.395278952721    -0.770995041487
    H            2.575377615811     0.006236840844    -1.695073298770
    H            2.714009809305     0.033935575269     0.069367953215

  Mulliken Charges: (a.u.)
   Center  Symbol    Alpha    Beta     Spin     Total
       1     O     4.20489  4.20489  0.00000 -0.40977
       2     C     2.79881  2.79881  0.00000  0.40239
       3     C     3.08453  3.08453  0.00000 -0.16907
       4     O     4.14745  4.14745  0.00000 -0.29489
       5     C     3.14885  3.14885  0.00000 -0.29771
       6     H     0.44239  0.44239  0.00000  0.11521
       7     H     0.44191  0.44191  0.00000  0.11618
       8     H     0.45154  0.45154  0.00000  0.09693
       9     H     0.44820  0.44820  0.00000  0.10359
      10     H     0.44350  0.44350  0.00000  0.11299
      11     C     3.03467  3.03467  0.00000 -0.06934
      12     H     0.45424  0.45424  0.00000  0.09152
      13     H     0.44551  0.44551  0.00000  0.10898
      14     H     0.45351  0.45351  0.00000  0.09298

   Total alpha = 24.00000, Total beta = 24.00000, Total charge = -0.00000

*** Psi4 exiting successfully. Buy a developer a beer!
