                              Psi4 1.0.54 Driver

  ==> Input File <==

--------------------------------------------------------------------------
set {
	reference rhf
	basis cc-pvtz
}

set_num_threads( 4 )
memory 2 gb

molecule MOL {
0 1

H	 -3.145170	 -1.202537	 -0.018771
O	 -2.321648	 -0.865011	 -0.318646
C	 -2.021989	 0.336926	 0.342638
C	 -0.669789	 0.837216	 -0.127272
H	 -2.781037	 1.084676	 0.127139
H	 -2.006566	 0.184068	 1.420033
C	 0.490689	 -0.082613	 0.241224
H	 -0.708885	 0.967122	 -1.204607
H	 -0.507738	 1.822202	 0.303050
C	 1.839624	 0.429495	 -0.255492
H	 0.305460	 -1.070281	 -0.165296
H	 0.527221	 -0.196013	 1.322856
C	 3.000968	 -0.485263	 0.119052
H	 1.804197	 0.541003	 -1.335776
H	 2.020261	 1.423044	 0.146901
H	 2.866716	 -1.477367	 -0.298826
H	 3.943367	 -0.095819	 -0.249081
H	 3.084888	 -0.590529	 1.195770

	symmetry c1
}
ee,wfn = energy('scf', return_wfn=True)
oeprop( wfn, 'DIPOLE', 'QUADRUPOLE', 'MULLIKEN_CHARGES')
oeprop( wfn, 'GRID_ESP')
f=open( 'psi4out.xyz', 'w' )
f.write( "18  " )
f.write( str(ee) + "\n" )
f.write( MOL.save_string_xyz() )
f.close()
--------------------------------------------------------------------------

    Molecular point group: c1

    Geometry (in Angstrom), charge = 0, multiplicity = 1:

       Center              X                  Y                   Z               Mass
    ------------   -----------------  -----------------  -----------------  -----------------
           H         -3.144993642464    -1.202466586202    -0.018750634400     1.007825032070
           O         -2.321471642464    -0.864940586202    -0.318625634400    15.994914619560
           C         -2.021812642464     0.336996413798     0.342658365600    12.000000000000
           C         -0.669612642464     0.837286413798    -0.127251634400    12.000000000000
           H         -2.780860642464     1.084746413798     0.127159365600     1.007825032070
           H         -2.006389642464     0.184138413798     1.420053365600     1.007825032070
           C          0.490865357536    -0.082542586202     0.241244365600    12.000000000000
           H         -0.708708642464     0.967192413798    -1.204586634400     1.007825032070
           H         -0.507561642464     1.822272413798     0.303070365600     1.007825032070
           C          1.839800357536     0.429565413798    -0.255471634400    12.000000000000
           H          0.305636357536    -1.070210586202    -0.165275634400     1.007825032070
           H          0.527397357536    -0.195942586202     1.322876365600     1.007825032070
           C          3.001144357536    -0.485192586202     0.119072365600    12.000000000000
           H          1.804373357536     0.541073413798    -1.335755634400     1.007825032070
           H          2.020437357536     1.423114413798     0.146921365600     1.007825032070
           H          2.866892357536    -1.477296586202    -0.298805634400     1.007825032070
           H          3.943543357536    -0.095748586202    -0.249060634400     1.007825032070
           H          3.085064357536    -0.590458586202     1.195790365600     1.007825032070

  Charge       = 0
  Multiplicity = 1
  Basis Set: CC-PVTZ
  Basis Set:

    Orbital Energies (a.u.)
    -----------------------

    Doubly Occupied:

       1A    -20.546273     2A    -11.265948     3A    -11.210477
       4A    -11.209123     5A    -11.205018     6A    -11.202771
       7A     -1.364131     8A     -1.076580     9A     -1.010244
      10A     -0.914466    11A     -0.818418    12A     -0.784787
      13A     -0.708340    14A     -0.643222    15A     -0.627357
      16A     -0.582401    17A     -0.572046    18A     -0.559306
      19A     -0.524463    20A     -0.501949    21A     -0.488980
      22A     -0.468575    23A     -0.459297    24A     -0.449735
      25A     -0.431315

  @DF-RHF Final Energy:  -271.28692963483184

   => Energetics <=

    Nuclear Repulsion Energy =            249.2963364056466844
    One-Electron Energy =                -861.9159583242449116
    Two-Electron Energy =                 341.3326922837661641
    DFT Exchange-Correlation Energy =       0.0000000000000000
    Empirical Dispersion Energy =           0.0000000000000000
    PCM Polarization Energy =               0.0000000000000000
    EFP Energy =                            0.0000000000000000
    Total Energy =                       -271.2869296348320631

  Mulliken Charges: (a.u.)
   Center  Symbol    Alpha    Beta     Spin     Total
       1     H     0.39568  0.39568  0.00000  0.20865
       2     O     4.19884  4.19884  0.00000 -0.39768
       3     C     2.97376  2.97376  0.00000  0.05249
       4     C     3.09110  3.09110  0.00000 -0.18219
       5     H     0.46532  0.46532  0.00000  0.06937
       6     H     0.47369  0.47369  0.00000  0.05262
       7     C     3.08669  3.08669  0.00000 -0.17339
       8     H     0.45216  0.45216  0.00000  0.09567
       9     H     0.45437  0.45437  0.00000  0.09126
      10     C     3.08359  3.08359  0.00000 -0.16719
      11     H     0.44443  0.44443  0.00000  0.11114
      12     H     0.45961  0.45961  0.00000  0.08079
      13     C     3.14979  3.14979  0.00000 -0.29959
      14     H     0.45428  0.45428  0.00000  0.09144
      15     H     0.45686  0.45686  0.00000  0.08629
      16     H     0.45442  0.45442  0.00000  0.09115
      17     H     0.44937  0.44937  0.00000  0.10125
      18     H     0.45604  0.45604  0.00000  0.08792

   Total alpha = 25.00000, Total beta = 25.00000, Total charge = -0.00000

*** Psi4 exiting successfully. Buy a developer a beer!
