                              Psi4 1.0.54 Driver

  ==> Input File <==

--------------------------------------------------------------------------
set {
	reference rhf
	basis cc-pvtz
}

set_num_threads( 4 )
memory 2 gb

molecule MOL {
0 1

H	 -1.333122	 -0.481651	 -0.668347
N	 -0.625934	 -0.663929	 -0.000707
C	 -0.816626	 -1.760737	 0.918937
C	 0.468494	 0.129045	 -0.002160
H	 -1.705219	 -1.612366	 1.520914
H	 0.039985	 -1.811073	 1.569150
H	 -0.909431	 -2.700969	 0.388476
C	 1.785715	 -0.615093	 0.000603
O	 0.413285	 1.323206	 0.000532
H	 1.866994	 -1.243310	 -0.878792
H	 2.591506	 0.100263	 0.006422
H	 1.860358	 -1.250360	 0.875522

	symmetry c1
}
set optking {
	frozen_dihedral = ("
		3 2 4 9
	")
}

ee,wfn = optimize('scf', return_wfn=True)
oeprop( wfn, 'DIPOLE', 'QUADRUPOLE', 'MULLIKEN_CHARGES')
f=open( 'psi4out.xyz', 'w' )
f.write( "12  " )
f.write( str(ee) + "\n" )
f.write( MOL.save_string_xyz() )
f.close()
--------------------------------------------------------------------------

    Molecular point group: c1
  Charge       = 0
  Multiplicity = 1
  Basis Set: CC-PVTZ
  Basis Set:
  @DF-RHF Final Energy:  -247.07430916043134
    Total Energy =                       -247.0743091604314259
    Molecular point group: c1
  Basis Set: CC-PVTZ
  Basis Set:
  Basis Set: CC-PVTZ
  Basis Set:
  @DF-RHF Final Energy:  -247.07532530092342
    Total Energy =                       -247.0753253009236801
  Basis Set: CC-PVTZ
  Basis Set:
  Basis Set: CC-PVTZ
  Basis Set:
  @DF-RHF Final Energy:  -247.08156591168154
    Total Energy =                       -247.0815659116815368
  Basis Set: CC-PVTZ
  Basis Set:
  Basis Set: CC-PVTZ
  Basis Set:
  @DF-RHF Final Energy:  -247.08359083460081
    Total Energy =                       -247.0835908346008409
  Basis Set: CC-PVTZ
  Basis Set:
  @DF-RHF Final Energy:  -247.08497184150207
    Total Energy =                       -247.0849718415020675
  @DF-RHF Final Energy:  -247.08823961434032
    Total Energy =                       -247.0882396143403525
  @DF-RHF Final Energy:  -247.04057610100267
    Total Energy =                       -247.0405761010027845
  @DF-RHF Final Energy:  -247.08871876773614
    Total Energy =                       -247.0887187677360544
  @DF-RHF Final Energy:  -247.09057959483911
    Total Energy =                       -247.0905795948391983
  @DF-RHF Final Energy:  -247.09125420913745
    Total Energy =                       -247.0912542091375599
  @DF-RHF Final Energy:  -247.08963693703197
    Total Energy =                       -247.0896369370321395
  @DF-RHF Final Energy:  -247.09241866197354
    Total Energy =                       -247.0924186619736815
  Basis Set: CC-PVTZ
  Basis Set:
  @DF-RHF Final Energy:  -247.09252487213908
    Total Energy =                       -247.0925248721390517
  Basis Set: CC-PVTZ
  Basis Set:
  Basis Set: CC-PVTZ
  Basis Set:
  @DF-RHF Final Energy:  -247.09255148299096
    Total Energy =                       -247.0925514829908707
  Basis Set: CC-PVTZ
  Basis Set:
  Basis Set: CC-PVTZ
  Basis Set:
  @DF-RHF Final Energy:  -247.09255653598035
    Total Energy =                       -247.0925565359802363
  Basis Set: CC-PVTZ
  Basis Set:
  Charge       = 0
  Multiplicity = 1
  Basis Set: CC-PVTZ
  Basis Set:

    Orbital Energies (a.u.)
    -----------------------

    Doubly Occupied:

       1A    -20.522443     2A    -15.569016     3A    -11.341455
       4A    -11.266475     5A    -11.229253     6A     -1.400640
       7A     -1.228484     8A     -1.008292     9A     -0.949316
      10A     -0.774748    11A     -0.678893    12A     -0.666892
      13A     -0.637794    14A     -0.597317    15A     -0.578671
      16A     -0.565043    17A     -0.551842    18A     -0.511992
      19A     -0.429470    20A     -0.396990

  @DF-RHF Final Energy:  -247.09255714319198

   => Energetics <=

    Nuclear Repulsion Energy =            181.6795096260298124
    One-Electron Energy =                -695.7340799738285568
    Two-Electron Energy =                 266.9620132046066487
    DFT Exchange-Correlation Energy =       0.0000000000000000
    Empirical Dispersion Energy =           0.0000000000000000
    PCM Polarization Energy =               0.0000000000000000
    EFP Energy =                            0.0000000000000000
    Total Energy =                       -247.0925571431920957
    Molecular point group: c1
  Basis Set: CC-PVTZ
  Basis Set:

  -Total Gradient:
     Atom            X                  Y                   Z
    ------   -----------------  -----------------  -----------------
       1       -0.000009794015     0.000005623034     0.000039513931
       2        0.004935725460    -0.003681613891    -0.004448529068
       3       -0.003288288238     0.001490968408     0.004858028167
       4       -0.001577933637     0.005201570116    -0.007198974217
       5        0.000008549270     0.000002930592    -0.000029642983
       6       -0.000011078705     0.000013697218     0.000024756832
       7        0.000039688666     0.000011860386     0.000006833710
       8        0.000013398661    -0.000034332863    -0.000095063077
       9       -0.000129715664    -0.003052951910     0.006777384125
      10        0.000013901043     0.000010017456     0.000024640267
      11        0.000006574346     0.000007212212     0.000009471458
      12       -0.000001027186     0.000025019238     0.000031580855

  **** Optimization is complete! (in 16 steps) ****
    Final optimized geometry and variables:
    Molecular point group: c1

    Geometry (in Angstrom), charge = 0, multiplicity = 1:

    H           -1.708028298972     0.108699738275    -0.226754085694
    N           -0.831368395159    -0.333744326366    -0.400273660945
    C           -0.837884634439    -1.722782690368     0.027905286647
    C            0.174446091855     0.518874445869     0.004871281870
    H           -0.880188905125    -1.829448867921     1.108091472707
    H            0.038746686057    -2.239887426100    -0.334965681113
    H           -1.702798463197    -2.209699585665    -0.398584377008
    C            1.590376381979     0.023235501355    -0.166766648385
    O           -0.065958075090     1.585020444381     0.478210501314
    H            1.715165427187    -0.510958656508    -1.098717602801
    H            2.256940233979     0.869895456746    -0.128102318402
    H            1.841399466602    -0.648796677415     0.646424282296

  Mulliken Charges: (a.u.)
   Center  Symbol    Alpha    Beta     Spin     Total
       1     H     0.42689  0.42689  0.00000  0.14622
       2     N     3.61336  3.61336  0.00000 -0.22671
       3     C     3.08938  3.08938  0.00000 -0.17875
       4     C     2.84163  2.84163  0.00000  0.31675
       5     H     0.45720  0.45720  0.00000  0.08560
       6     H     0.45149  0.45149  0.00000  0.09701
       7     H     0.44321  0.44321  0.00000  0.11358
       8     C     3.15855  3.15855  0.00000 -0.31710
       9     O     4.19527  4.19527  0.00000 -0.39055
      10     H     0.44469  0.44469  0.00000  0.11061
      11     H     0.43021  0.43021  0.00000  0.13959
      12     H     0.44812  0.44812  0.00000  0.10376

   Total alpha = 20.00000, Total beta = 20.00000, Total charge =  0.00000

*** Psi4 exiting successfully. Buy a developer a beer!
