                              Psi4 1.0.54 Driver

  ==> Input File <==

--------------------------------------------------------------------------
set {
	reference rhf
	basis cc-pvtz
}

set_num_threads( 4 )
memory 2 gb

molecule MOL {
0 1

H	 -3.941973	 0.934228	 -0.390224
C	 -3.240162	 0.342701	 0.161016
C	 -2.105997	 -0.000418	 -0.398703
H	 -3.485368	 0.047206	 1.162193
O	 -1.189946	 -0.765863	 0.237511
H	 -1.846458	 0.297311	 -1.398265
C	 0.026572	 -0.995256	 -0.379403
C	 1.057223	 0.049888	 -0.004615
H	 -0.054361	 -1.010670	 -1.459674
H	 0.397526	 -1.952058	 -0.044198
F	 2.205511	 -0.540892	 0.259003
F	 1.264213	 0.907601	 -0.980827
F	 0.703083	 0.732955	 1.056734

	symmetry c1
}
set optking {
	frozen_dihedral = ("
		11 8 7 9
	")
}

ee,wfn = optimize('scf', return_wfn=True)
oeprop( wfn, 'DIPOLE', 'QUADRUPOLE', 'MULLIKEN_CHARGES')
f=open( 'psi4out.xyz', 'w' )
f.write( "13  " )
f.write( str(ee) + "\n" )
f.write( MOL.save_string_xyz() )
f.close()
--------------------------------------------------------------------------

    Molecular point group: c1
  Charge       = 0
  Multiplicity = 1
  Basis Set: CC-PVTZ
  Basis Set:
  @DF-RHF Final Energy:  -527.73605530828308
    Total Energy =                       -527.7360553082830847
    Molecular point group: c1
  Basis Set: CC-PVTZ
  Basis Set:
  Basis Set: CC-PVTZ
  Basis Set:
  @DF-RHF Final Energy:  -527.73652796637987
    Total Energy =                       -527.7365279663797537
  Basis Set: CC-PVTZ
  Basis Set:
  Basis Set: CC-PVTZ
  Basis Set:
  @DF-RHF Final Energy:  -527.73672867512414
    Total Energy =                       -527.7367286751242546
  Basis Set: CC-PVTZ
  Basis Set:
  Basis Set: CC-PVTZ
  Basis Set:
  @DF-RHF Final Energy:  -527.73676246885725
    Total Energy =                       -527.7367624688574779
  Basis Set: CC-PVTZ
  Basis Set:
  Basis Set: CC-PVTZ
  Basis Set:
  @DF-RHF Final Energy:  -527.73679100768663
    Total Energy =                       -527.7367910076868611
  Basis Set: CC-PVTZ
  Basis Set:
  Basis Set: CC-PVTZ
  Basis Set:
  @DF-RHF Final Energy:  -527.73679541107572
    Total Energy =                       -527.7367954110757182
  Basis Set: CC-PVTZ
  Basis Set:
  Basis Set: CC-PVTZ
  Basis Set:
  @DF-RHF Final Energy:  -527.73679736521819
    Total Energy =                       -527.7367973652184219
  Basis Set: CC-PVTZ
  Basis Set:
  Charge       = 0
  Multiplicity = 1
  Basis Set: CC-PVTZ
  Basis Set:

    Orbital Energies (a.u.)
    -----------------------

    Doubly Occupied:

       1A    -26.340423     2A    -26.339666     3A    -26.337551
       4A    -20.602430     5A    -11.499001     6A    -11.319806
       7A    -11.297896     8A    -11.215050     9A     -1.750196
      10A     -1.645593    11A     -1.644878    12A     -1.443430
      13A     -1.084016    14A     -1.019535    15A     -0.932047
      16A     -0.843147    17A     -0.837364    18A     -0.827546
      19A     -0.798309    20A     -0.727140    21A     -0.722338
      22A     -0.700705    23A     -0.681013    24A     -0.668137
      25A     -0.662438    26A     -0.649731    27A     -0.636122
      28A     -0.587431    29A     -0.565996    30A     -0.527158
      31A     -0.516162    32A     -0.357737

  @DF-RHF Final Energy:  -527.73679826309467

   => Energetics <=

    Nuclear Repulsion Energy =            414.0345754238771292
    One-Electron Energy =               -1551.9827600469179743
    Two-Electron Energy =                 610.2113863599462320
    DFT Exchange-Correlation Energy =       0.0000000000000000
    Empirical Dispersion Energy =           0.0000000000000000
    PCM Polarization Energy =               0.0000000000000000
    EFP Energy =                            0.0000000000000000
    Total Energy =                       -527.7367982630945562
    Molecular point group: c1
  Basis Set: CC-PVTZ
  Basis Set:

  -Total Gradient:
     Atom            X                  Y                   Z
    ------   -----------------  -----------------  -----------------
       1        0.000006853838    -0.000014106081    -0.000004074510
       2        0.000005379636    -0.000020759674    -0.000019316247
       3        0.000056854829     0.000040315168     0.000063483775
       4       -0.000003995926    -0.000009933980     0.000003297867
       5        0.000034031234     0.000038727983    -0.000046998838
       6        0.000000752869    -0.000001989001    -0.000005910407
       7        0.003474244656    -0.003287277051     0.000902094261
       8        0.000384327161     0.000910826399    -0.004351287580
       9       -0.003106340242     0.002676131100     0.000161409928
      10       -0.000003667624    -0.000040592259    -0.000060138192
      11       -0.000791692468    -0.000318035365     0.003345668868
      12        0.000009988802     0.000010004512    -0.000039471398
      13       -0.000066736768     0.000016688244     0.000051242476

  **** Optimization is complete! (in 8 steps) ****
    Final optimized geometry and variables:
    Molecular point group: c1

    Geometry (in Angstrom), charge = 0, multiplicity = 1:

    H           -3.831158234614     1.039761622642    -0.319861269521
    C           -3.169022421090     0.377100267888     0.198657211524
    C           -2.058140553737    -0.008676738559    -0.379537792585
    H           -3.435685413916     0.043292480107     1.182177068152
    O           -1.197935693934    -0.871551986507     0.207270943819
    H           -1.778271874509     0.326515840635    -1.362737152969
    C            0.044888297834    -1.047123223057    -0.375851680208
    C            1.040015796632     0.062955131995    -0.012824283151
    H           -0.039457457297    -1.071848714313    -1.455386050659
    H            0.440731169570    -1.982212234067    -0.016514391055
    F            2.223851636466    -0.452781341956     0.250589841591
    F            1.195365944931     0.921234540967    -1.002032049564
    F            0.664255379145     0.741474460713     1.041316714582

  Mulliken Charges: (a.u.)
   Center  Symbol    Alpha    Beta     Spin     Total
       1     H     0.42520  0.42520  0.00000  0.14961
       2     C     3.19385  3.19385  0.00000 -0.38771
       3     C     2.96267  2.96267  0.00000  0.07465
       4     H     0.42455  0.42455  0.00000  0.15091
       5     O     4.13982  4.13982  0.00000 -0.27964
       6     H     0.43377  0.43377  0.00000  0.13246
       7     C     3.02895  3.02895  0.00000 -0.05789
       8     C     2.67461  2.67461  0.00000  0.65078
       9     H     0.45570  0.45570  0.00000  0.08860
      10     H     0.43346  0.43346  0.00000  0.13308
      11     F     4.61084  4.61084  0.00000 -0.22168
      12     F     4.61306  4.61306  0.00000 -0.22611
      13     F     4.60352  4.60352  0.00000 -0.20705

   Total alpha = 32.00000, Total beta = 32.00000, Total charge =  0.00000

*** Psi4 exiting successfully. Buy a developer a beer!
