                              Psi4 1.0.54 Driver

  ==> Input File <==

--------------------------------------------------------------------------
set {
	reference rhf
	basis cc-pvtz
}

set_num_threads( 4 )
memory 2 gb

molecule MOL {
0 1

H	 -3.079423	 1.830359	 0.977455
C	 -2.744196	 0.813625	 0.963923
C	 -1.651011	 0.503718	 0.311045
H	 -3.314524	 0.073122	 1.489451
O	 -1.189946	 -0.765863	 0.237511
H	 -1.067241	 1.239150	 -0.211909
C	 0.026572	 -0.995256	 -0.379403
C	 1.057223	 0.049888	 -0.004615
H	 -0.054361	 -1.010670	 -1.459674
H	 0.397526	 -1.952058	 -0.044198
F	 2.203233	 -0.234060	 -0.590375
F	 0.698147	 1.254887	 -0.392621
F	 1.266440	 0.094219	 1.288722

	symmetry c1
}
set optking {
	frozen_dihedral = ("
		3 5 7 9
	")
}

ee,wfn = optimize('scf', return_wfn=True)
oeprop( wfn, 'DIPOLE', 'QUADRUPOLE', 'MULLIKEN_CHARGES')
f=open( 'psi4out.xyz', 'w' )
f.write( "13  " )
f.write( str(ee) + "\n" )
f.write( MOL.save_string_xyz() )
f.close()
--------------------------------------------------------------------------

    Molecular point group: c1
  Charge       = 0
  Multiplicity = 1
  Basis Set: CC-PVTZ
  Basis Set:
  @DF-RHF Final Energy:  -527.72451696661767
    Total Energy =                       -527.7245169666177844
    Molecular point group: c1
  Basis Set: CC-PVTZ
  Basis Set:
  Basis Set: CC-PVTZ
  Basis Set:
  @DF-RHF Final Energy:  -527.72029868191169
    Total Energy =                       -527.7202986819117996
  Basis Set: CC-PVTZ
  Basis Set:
  Basis Set: CC-PVTZ
  Basis Set:
  @DF-RHF Final Energy:  -527.73168494872743
    Total Energy =                       -527.7316849487273203
  Basis Set: CC-PVTZ
  Basis Set:
  Basis Set: CC-PVTZ
  Basis Set:
  @DF-RHF Final Energy:  -527.72298571046531
    Total Energy =                       -527.7229857104653092
  Basis Set: CC-PVTZ
  Basis Set:
  @DF-RHF Final Energy:  -527.73595279776100
    Total Energy =                       -527.7359527977614562
  @DF-RHF Final Energy:  -527.73648097163675
    Total Energy =                       -527.7364809716364107
  @DF-RHF Final Energy:  -527.73658316386286
    Total Energy =                       -527.7365831638627469
  @DF-RHF Final Energy:  -527.73660669672972
    Total Energy =                       -527.7366066967297229
  @DF-RHF Final Energy:  -527.73662003552113
    Total Energy =                       -527.7366200355213550
  Basis Set: CC-PVTZ
  Basis Set:
  @DF-RHF Final Energy:  -527.73662954346764
    Total Energy =                       -527.7366295434676431
  Basis Set: CC-PVTZ
  Basis Set:
  Basis Set: CC-PVTZ
  Basis Set:
  @DF-RHF Final Energy:  -527.73663547261185
    Total Energy =                       -527.7366354726116242
  Basis Set: CC-PVTZ
  Basis Set:
  Basis Set: CC-PVTZ
  Basis Set:
  @DF-RHF Final Energy:  -527.73663755199766
    Total Energy =                       -527.7366375519982284
  Basis Set: CC-PVTZ
  Basis Set:
  Charge       = 0
  Multiplicity = 1
  Basis Set: CC-PVTZ
  Basis Set:

    Orbital Energies (a.u.)
    -----------------------

    Doubly Occupied:

       1A    -26.343538     2A    -26.343471     3A    -26.341308
       4A    -20.599456     5A    -11.502677     6A    -11.318735
       7A    -11.294185     8A    -11.214767     9A     -1.753616
      10A     -1.649097    11A     -1.648773    12A     -1.437469
      13A     -1.085584    14A     -1.022690    15A     -0.934506
      16A     -0.845042    17A     -0.842004    18A     -0.838044
      19A     -0.780401    20A     -0.727778    21A     -0.721415
      22A     -0.701116    23A     -0.683150    24A     -0.669763
      25A     -0.663103    26A     -0.653649    27A     -0.645382
      28A     -0.594776    29A     -0.564335    30A     -0.528077
      31A     -0.497923    32A     -0.359683

  @DF-RHF Final Energy:  -527.73663757590430

   => Energetics <=

    Nuclear Repulsion Energy =            417.5073373520840505
    One-Electron Energy =               -1558.8769205113105727
    Two-Electron Energy =                 613.6329455833221118
    DFT Exchange-Correlation Energy =       0.0000000000000000
    Empirical Dispersion Energy =           0.0000000000000000
    PCM Polarization Energy =               0.0000000000000000
    EFP Energy =                            0.0000000000000000
    Total Energy =                       -527.7366375759044104
    Molecular point group: c1
  Basis Set: CC-PVTZ
  Basis Set:

  -Total Gradient:
     Atom            X                  Y                   Z
    ------   -----------------  -----------------  -----------------
       1        0.000013025810     0.000014279425     0.000009628722
       2        0.000013759556     0.000009332880    -0.000033169671
       3        0.001482276039     0.001296058772     0.004640910678
       4        0.000002933750    -0.000009272278     0.000007284681
       5       -0.001575665012    -0.003435139255    -0.007116858241
       6       -0.000000863041     0.000023836762     0.000019488063
       7       -0.002350052219     0.007307497410     0.002860485365
       8       -0.000072336342     0.000055368968     0.000002087549
       9        0.002475634574    -0.005265142112    -0.000401034086
      10        0.000030538633     0.000035546352     0.000006484204
      11        0.000026804020    -0.000030169708     0.000013033322
      12       -0.000037027448     0.000012439548     0.000010388308
      13       -0.000009028316    -0.000014636760    -0.000018728890

  **** Optimization is complete! (in 13 steps) ****
    Final optimized geometry and variables:
    Molecular point group: c1

    Geometry (in Angstrom), charge = 0, multiplicity = 1:

    H           -3.601747624324    -0.492847791440     1.009404941201
    C           -2.681414432339    -1.036959697704     0.947131824743
    C           -1.817468194341    -0.742356576346     0.007530866582
    H           -2.493731482973    -1.819432405362     1.656083421345
    O           -0.671886140220    -1.449676554215    -0.154190819726
    H           -1.991105854047     0.039031745660    -0.708212807718
    C            0.456930458540    -0.851917156419    -0.694814913032
    C            0.835327172147     0.508351989241    -0.140089050566
    H            0.405537938265    -0.794474693776    -1.776779917411
    H            1.282435533638    -1.504626718639    -0.452577404850
    F            2.033060160312     0.823090844990    -0.589761347235
    F            0.016898851082     1.471229199723    -0.511496878691
    F            0.880547388113     0.509608160472     1.169862679917

  Mulliken Charges: (a.u.)
   Center  Symbol    Alpha    Beta     Spin     Total
       1     H     0.42535  0.42535  0.00000  0.14931
       2     C     3.18871  3.18871  0.00000 -0.37742
       3     C     2.96934  2.96934  0.00000  0.06132
       4     H     0.42428  0.42428  0.00000  0.15144
       5     O     4.14703  4.14703  0.00000 -0.29406
       6     H     0.42834  0.42834  0.00000  0.14331
       7     C     3.01503  3.01503  0.00000 -0.03006
       8     C     2.68266  2.68266  0.00000  0.63468
       9     H     0.45113  0.45113  0.00000  0.09773
      10     H     0.44021  0.44021  0.00000  0.11957
      11     F     4.60923  4.60923  0.00000 -0.21847
      12     F     4.61226  4.61226  0.00000 -0.22451
      13     F     4.60643  4.60643  0.00000 -0.21285

   Total alpha = 32.00000, Total beta = 32.00000, Total charge = -0.00000

*** Psi4 exiting successfully. Buy a developer a beer!
