  ==> Input File <==

--------------------------------------------------------------------------
set {
	reference rhf
	basis cc-pvtz
}

set_num_threads( 4 )
memory 2 gb

molecule MOL {
0 1

H	 -1.013113	 0.713927	 -0.722074
N	 -0.712187	 0.000026	 -0.093397
C	 0.734067	 -0.000020	 0.038424
H	 -1.037157	 -0.869609	 -0.458874
H	 1.140372	 -0.872115	 -0.458226
H	 1.140363	 0.872301	 -0.457869
H	 1.095085	 -0.000244	 1.065614

	symmetry c1
}
set optking {
	frozen_dihedral = ("
		1 2 3 7
	")
}

ee = optimize('scf')
oeprop('DIPOLE', 'QUADRUPOLE', 'MULLIKEN_CHARGES')
f=open( 'psi4out.xyz', 'w' )
f.write( "7  " )
f.write( str(ee) + "\n" )
f.write( MOL.save_string_xyz() )
f.close()
--------------------------------------------------------------------------

    Molecular point group: c1
  Charge       = 0
  Multiplicity = 1
  Basis Set: CC-PVTZ
  Basis Set:
  @DF-RHF Final Energy:   -95.24956181896138
    Total Energy =                        -95.2495618189614106
    Molecular point group: c1
  Basis Set: CC-PVTZ
  Basis Set:
  Basis Set: CC-PVTZ
  Basis Set:
  @DF-RHF Final Energy:   -95.25057676330096
    Total Energy =                        -95.2505767633009128
  Basis Set: CC-PVTZ
  Basis Set:
  Basis Set: CC-PVTZ
  Basis Set:
  @DF-RHF Final Energy:   -95.25069984820473
    Total Energy =                        -95.2506998482046754
  Basis Set: CC-PVTZ
  Basis Set:
  Basis Set: CC-PVTZ
  Basis Set:
  @DF-RHF Final Energy:   -95.25070439761568
    Total Energy =                        -95.2507043976156638
  Basis Set: CC-PVTZ
  Basis Set:
  Charge       = 0
  Multiplicity = 1
  Basis Set: CC-PVTZ
  Basis Set:

    Orbital Energies (a.u.)
    -----------------------

    Doubly Occupied:

       1A    -15.525564     2A    -11.235468     3A     -1.168698
       4A     -0.897854     5A     -0.667013     6A     -0.600058
       7A     -0.561614     8A     -0.517663     9A     -0.381786

  @DF-RHF Final Energy:   -95.25070523327827

   => Energetics <=

    Nuclear Repulsion Energy =             42.3229837719840774
    One-Electron Energy =                -212.0359397565853783
    Two-Electron Energy =                  74.4622507513230261
    DFT Exchange-Correlation Energy =       0.0000000000000000
    Empirical Dispersion Energy =           0.0000000000000000
    PCM Polarization Energy =               0.0000000000000000
    EFP Energy =                            0.0000000000000000
    Total Energy =                        -95.2507052332782820
    Molecular point group: c1
  Basis Set: CC-PVTZ
  Basis Set:

  -Total Gradient:
     Atom            X                  Y                   Z
    ------   -----------------  -----------------  -----------------
       1       -0.000110177740     0.001130307015     0.001342034400
       2        0.000054756884    -0.000974587062    -0.001696875539
       3        0.000066322871    -0.001806108312     0.000380459895
       4        0.000017331582     0.000010738702    -0.000000629762
       5       -0.000007844568     0.000021722320    -0.000000751933
       6       -0.000020804044     0.000003468068    -0.000004779130
       7        0.000000415015     0.001614459269    -0.000019457932

  **** Optimization is complete! (in 5 steps) ****
    Final optimized geometry and variables:
    Molecular point group: c1

    Geometry (in Angstrom), charge = 0, multiplicity = 1:

    H           -1.037119398180     0.718779681676    -0.651474903298
    N           -0.719048022923     0.010800105017    -0.029333324721
    C            0.733010370763    -0.002358110352     0.086850064998
    H           -1.081842448517    -0.862673259826    -0.338092192447
    H            1.187017140143    -0.860050082665    -0.398505938082
    H            1.159296211065     0.884821330283    -0.366168681745
    H            1.035524677679    -0.002860495540     1.127700358679

  Mulliken Charges: (a.u.)
   Center  Symbol    Alpha    Beta     Spin     Total
       1     H     0.42610  0.42610  0.00000  0.14781
       2     N     3.69048  3.69048  0.00000 -0.38096
       3     C     3.06836  3.06836  0.00000 -0.13672
       4     H     0.42670  0.42670  0.00000  0.14659
       5     H     0.46565  0.46565  0.00000  0.06869
       6     H     0.46148  0.46148  0.00000  0.07704
       7     H     0.46122  0.46122  0.00000  0.07755

   Total alpha =  9.00000, Total beta =  9.00000, Total charge = -0.00000
