  ==> Input File <==

--------------------------------------------------------------------------
set {
	reference rhf
	basis 6-31G*
}

set_num_threads( 4 )
memory 2 gb

molecule MOL {
0 1

H	 -2.646374	 -0.642757	 1.268656
C	 -2.083525	 -0.384536	 0.393091
O	 -0.807605	 -0.127164	 0.768327
F	 -2.118945	 -1.383102	 -0.486752
F	 -2.621877	 0.670592	 -0.209486
C	 0.084052	 0.273579	 -0.209957
C	 -0.303599	 1.690886	 -0.611364
Cl	 0.016543	 -0.811386	 -1.608351
H	 1.100328	 0.287999	 0.143243
F	 0.514595	 2.146675	 -1.536002
F	 -0.204126	 2.473244	 0.444789
F	 -1.531857	 1.758486	 -1.063896

	symmetry c1
}
set optking {
	frozen_dihedral = ("
		9 6 3 2
	")
}

ee = optimize('scf')
oeprop('DIPOLE', 'QUADRUPOLE', 'MULLIKEN_CHARGES')
f=open( 'psi4out.xyz', 'w' )
f.write( "12  " )
f.write( str(ee) + "\n" )
f.write( MOL.save_string_xyz() )
f.close()
--------------------------------------------------------------------------

    Molecular point group: c1
  Charge       = 0
  Multiplicity = 1
  Basis Set: 6-31G*
  Basis Set:
  @DF-RHF Final Energy: -1146.21940937994759
    Total Energy =                      -1146.2194093799475922
    Molecular point group: c1
  Basis Set: 6-31G*
  Basis Set:
  Basis Set: 6-31G*
  Basis Set:
  @DF-RHF Final Energy: -1146.26423997459142
    Total Energy =                      -1146.2642399745921011
  Basis Set: 6-31G*
  Basis Set:
  Basis Set: 6-31G*
  Basis Set:
  @DF-RHF Final Energy: -1146.28503708422659
    Total Energy =                      -1146.2850370842270422
  Basis Set: 6-31G*
  Basis Set:
  Basis Set: 6-31G*
  Basis Set:
  @DF-RHF Final Energy: -1146.29653325848108
    Total Energy =                      -1146.2965332584813041
  Basis Set: 6-31G*
  Basis Set:
  @DF-RHF Final Energy: -1146.30199150945145
    Total Energy =                      -1146.3019915094523640
  @DF-RHF Final Energy: -1146.30423206262731
    Total Energy =                      -1146.3042320626277615
  @DF-RHF Final Energy: -1146.30482293530599
    Total Energy =                      -1146.3048229353059924
  @DF-RHF Final Energy: -1146.30501935415805
    Total Energy =                      -1146.3050193541580484
  @DF-RHF Final Energy: -1146.30508827614040
    Total Energy =                      -1146.3050882761401681
  @DF-RHF Final Energy: -1146.30511737112147
    Total Energy =                      -1146.3051173711207866
  @DF-RHF Final Energy: -1146.30512763222850
    Total Energy =                      -1146.3051276322287322
  @DF-RHF Final Energy: -1146.30513090223758
    Total Energy =                      -1146.3051309022375790
  Basis Set: 6-31G*
  Basis Set:
  @DF-RHF Final Energy: -1146.30513190958436
    Total Energy =                      -1146.3051319095843610
  Basis Set: 6-31G*
  Basis Set:
  Basis Set: 6-31G*
  Basis Set:
  @DF-RHF Final Energy: -1146.30513327630297
    Total Energy =                      -1146.3051332763020582
  Basis Set: 6-31G*
  Basis Set:
  Basis Set: 6-31G*
  Basis Set:
  @DF-RHF Final Energy: -1146.30513494532829
    Total Energy =                      -1146.3051349453278362
  Basis Set: 6-31G*
  Basis Set:
  Charge       = 0
  Multiplicity = 1
  Basis Set: 6-31G*
  Basis Set:

    Orbital Energies (a.u.)
    -----------------------

    Doubly Occupied:

       1A   -104.845618     2A    -26.359423     3A    -26.357703
       4A    -26.356295     5A    -26.343725     6A    -26.335469
       7A    -20.645966     8A    -11.527701     9A    -11.485222
      10A    -11.402921    11A    -10.580452    12A     -8.049816
      13A     -8.046257    14A     -8.046134    15A     -1.760652
      16A     -1.711605    17A     -1.656934    18A     -1.654900
      19A     -1.633244    20A     -1.477515    21A     -1.179568
      22A     -1.051243    23A     -0.992423    24A     -0.914694
      25A     -0.854165    26A     -0.848882    27A     -0.844956
      28A     -0.831955    29A     -0.807854    30A     -0.757465
      31A     -0.728212    32A     -0.722606    33A     -0.705402
      34A     -0.690617    35A     -0.681308    36A     -0.670546
      37A     -0.665235    38A     -0.656697    39A     -0.650654
      40A     -0.632650    41A     -0.592697    42A     -0.560841
      43A     -0.524101    44A     -0.477715    45A     -0.468181

  @DF-RHF Final Energy: -1146.30513519361762

   => Energetics <=

    Nuclear Repulsion Energy =            754.0698260160072550
    One-Electron Energy =               -3091.1734819843181867
    Two-Electron Energy =                1190.7985207746930882
    DFT Exchange-Correlation Energy =       0.0000000000000000
    Empirical Dispersion Energy =           0.0000000000000000
    PCM Polarization Energy =               0.0000000000000000
    EFP Energy =                            0.0000000000000000
    Total Energy =                      -1146.3051351936176161
    Molecular point group: c1
  Basis Set: 6-31G*
  Basis Set:

  -Total Gradient:
     Atom            X                  Y                   Z
    ------   -----------------  -----------------  -----------------
       1        0.000000127760    -0.000005058888    -0.000002586695
       2       -0.000011172954     0.000245270845     0.000111602043
       3        0.000054971107    -0.000422147472    -0.000084780287
       4       -0.000009492776     0.000005195033     0.000013561850
       5        0.000002488025     0.000065790388    -0.000025686029
       6        0.000021315179    -0.000197247725    -0.000113389152
       7       -0.000084476789    -0.000023360572     0.000027183216
       8        0.000018496672     0.000001503888    -0.000013847289
       9       -0.000037000925     0.000312819990     0.000123483855
      10        0.000026059937     0.000008269511    -0.000010334596
      11        0.000009458659    -0.000004651724    -0.000016523870
      12        0.000009226130     0.000013616766    -0.000008682982

  **** Optimization is complete! (in 16 steps) ****
    Final optimized geometry and variables:
    Molecular point group: c1

    Geometry (in Angstrom), charge = 0, multiplicity = 1:

    H           -1.702757065888    -1.098420669413     2.088954560101
    C           -1.296020396600    -1.026156228590     1.098421710194
    O            0.024982997947    -0.728705730441     1.228446306393
    F           -1.468386725380    -2.177477053244     0.464752803088
    F           -1.940188093898    -0.094087829819     0.409576167256
    C            0.837858753037    -0.233147956232     0.226767168999
    C            0.608302290197     1.253422549175    -0.085109753797
    CL           0.846329670402    -1.180491944126    -1.271719155578
    H            1.830148830491    -0.293324408360     0.635465197525
    F            1.725598123899     1.735636362044    -0.599428654074
    F            0.361622809340     1.900002196157     1.034906716348
    F           -0.359042854480     1.499811744154    -0.931092148023

  Mulliken Charges: (a.u.)
   Center  Symbol    Alpha    Beta     Spin     Total
       1     H     0.40662  0.40662  0.00000  0.18676
       2     C     2.56035  2.56035  0.00000  0.87929
       3     O     4.31055  4.31055  0.00000 -0.62110
       4     F     4.67919  4.67919  0.00000 -0.35839
       5     F     4.68173  4.68173  0.00000 -0.36346
       6     C     3.03471  3.03471  0.00000 -0.06942
       7     C     2.44416  2.44416  0.00000  1.11168
       8    CL     8.50230  8.50230  0.00000 -0.00460
       9     H     0.36400  0.36400  0.00000  0.27200
      10     F     4.67762  4.67762  0.00000 -0.35523
      11     F     4.67488  4.67488  0.00000 -0.34976
      12     F     4.66389  4.66389  0.00000 -0.32778

   Total alpha = 45.00000, Total beta = 45.00000, Total charge =  0.00000
