  ==> Input File <==

--------------------------------------------------------------------------
set {
	reference rhf
	basis 6-31G*
}

set_num_threads( 1 )
memory 2 gb

molecule MOL {
0 1

H	 -3.135461	 -1.215070	 0.001379
O	 -2.310168	 -0.871793	 -0.309793
C	 -2.026376	 0.340750	 0.341611
C	 -0.673256	 0.843270	 -0.132153
H	 -2.792215	 1.080697	 0.115987
H	 -2.013526	 0.200402	 1.421792
C	 0.486613	 -0.083066	 0.235839
H	 -0.715586	 0.970948	 -1.210718
H	 -0.508072	 1.829858	 0.297090
C	 1.111905	 -0.767346	 -0.980955
H	 0.133895	 -0.833897	 0.935378
H	 1.252080	 0.490752	 0.757024
C	 2.274775	 -1.688548	 -0.613813
H	 0.348621	 -1.341490	 -1.501986
H	 1.458449	 -0.012477	 -1.684178
H	 1.951899	 -2.475503	 0.061718
H	 2.696758	 -2.161446	 -1.495426
H	 3.071021	 -1.137528	 -0.120984

	symmetry c1
}
set optking {
	frozen_dihedral = ("
		14 10 7 11,
		2 3 4 8,
		1 2 3 4
	")
}

ee = energy('scf')
oeprop('DIPOLE', 'QUADRUPOLE', 'MULLIKEN_CHARGES')
f=open( 'psi4out.xyz', 'w' )
f.write( "18  " )
f.write( str(ee) + "\n" )
f.write( MOL.save_string_xyz() )
f.close()
--------------------------------------------------------------------------

    Molecular point group: c1

    Geometry (in Angstrom), charge = 0, multiplicity = 1:

       Center              X                  Y                   Z               Mass
    ------------   -----------------  -----------------  -----------------  -----------------
           H         -2.895867950284    -0.819511029807     0.241939030711     1.007825032070
           O         -2.070574950284    -0.476234029807    -0.069232969289    15.994914619560
           C         -1.786782950284     0.736308970193     0.582171030711    12.000000000000
           C         -0.433662950284     1.238828970193     0.108407030711    12.000000000000
           H         -2.552621950284     1.476255970193     0.356547030711     1.007825032070
           H         -1.773932950284     0.595960970193     1.662352030711     1.007825032070
           C          0.726206049716     0.312492970193     0.476399030711    12.000000000000
           H         -0.475992950284     1.366506970193    -0.970157969289     1.007825032070
           H         -0.268478950284     2.225416970193     0.537650030711     1.007825032070
           C          1.351498049716    -0.371787029807    -0.740394969289    12.000000000000
           H          0.373488049716    -0.438338029807     1.175938030711     1.007825032070
           H          1.491673049716     0.886310970193     0.997584030711     1.007825032070
           C          2.514368049716    -1.292989029807    -0.373252969289    12.000000000000
           H          0.588214049716    -0.945931029807    -1.261425969289     1.007825032070
           H          1.698042049716     0.383081970193    -1.443617969289     1.007825032070
           H          2.191492049716    -2.079944029807     0.302278030711     1.007825032070
           H          2.936351049716    -1.765887029807    -1.254865969289     1.007825032070
           H          3.310614049716    -0.741969029807     0.119576030711     1.007825032070

  Charge       = 0
  Multiplicity = 1
  Basis Set: 6-31G*
  Basis Set:

    Orbital Energies (a.u.)
    -----------------------

    Doubly Occupied:

       1A    -20.554234     2A    -11.268261     3A    -11.210672
       4A    -11.206151     5A    -11.205108     6A    -11.200699
       7A     -1.360731     8A     -1.073097     9A     -1.006170
      10A     -0.911691    11A     -0.818267    12A     -0.781194
      13A     -0.705118    14A     -0.642990    15A     -0.618166
      16A     -0.579824    17A     -0.569485    18A     -0.558252
      19A     -0.521182    20A     -0.501874    21A     -0.485606
      22A     -0.465222    23A     -0.449303    24A     -0.447236
      25A     -0.429565

  @DF-RHF Final Energy:  -271.17515483715522

   => Energetics <=

    Nuclear Repulsion Energy =            252.9265902497685374
    One-Electron Energy =                -869.0631725396295906
    Two-Electron Energy =                 344.9614274527057205
    DFT Exchange-Correlation Energy =       0.0000000000000000
    Empirical Dispersion Energy =           0.0000000000000000
    PCM Polarization Energy =               0.0000000000000000
    EFP Energy =                            0.0000000000000000
    Total Energy =                       -271.1751548371553326

  Mulliken Charges: (a.u.)
   Center  Symbol    Alpha    Beta     Spin     Total
       1     H     0.28044  0.28044  0.00000  0.43912
       2     O     4.36947  4.36947  0.00000 -0.73895
       3     C     2.99991  2.99991  0.00000  0.00018
       4     C     3.16296  3.16296  0.00000 -0.32593
       5     H     0.42991  0.42991  0.00000  0.14018
       6     H     0.43230  0.43230  0.00000  0.13539
       7     C     3.15113  3.15113  0.00000 -0.30225
       8     H     0.41238  0.41238  0.00000  0.17525
       9     H     0.42138  0.42138  0.00000  0.15723
      10     C     3.15508  3.15508  0.00000 -0.31016
      11     H     0.41674  0.41674  0.00000  0.16651
      12     H     0.42472  0.42472  0.00000  0.15056
      13     C     3.24008  3.24008  0.00000 -0.48015
      14     H     0.41083  0.41083  0.00000  0.17834
      15     H     0.42582  0.42582  0.00000  0.14837
      16     H     0.42185  0.42185  0.00000  0.15630
      17     H     0.42071  0.42071  0.00000  0.15857
      18     H     0.42428  0.42428  0.00000  0.15144

   Total alpha = 25.00000, Total beta = 25.00000, Total charge = -0.00000
