  ==> Input File <==

--------------------------------------------------------------------------
set {
	reference rhf
	basis 6-31G*
}

set_num_threads( 4 )
memory 2 gb

molecule MOL {
0 1

O	 1.235705	 1.271963	 0.277771
C	 1.122059	 0.121804	 -0.000188
C	 -0.170150	 -0.657997	 -0.000612
O	 2.145800	 -0.644285	 -0.355205
C	 -1.412532	 0.227344	 -0.000452
H	 -0.153702	 -1.313099	 -0.867402
H	 -0.153924	 -1.313811	 0.865644
C	 -2.706999	 -0.587347	 -0.000541
H	 -1.388000	 0.879466	 -0.868000
H	 -1.387972	 0.879138	 0.867341
C	 -3.956778	 0.291888	 0.000910
H	 -2.726114	 -1.239230	 -0.871609
H	 -2.725217	 -1.240844	 0.869333
H	 -3.985213	 0.933254	 -0.875158
H	 -4.860123	 -0.309979	 0.000519
H	 -3.984618	 0.931166	 0.878514
C	 3.422358	 -0.032812	 -0.395698
H	 3.432263	 0.779347	 -1.108291
H	 4.110391	 -0.805970	 -0.700307
H	 3.693059	 0.346639	 0.579107

	symmetry c1
}
set optking {
	frozen_dihedral = ("
		1 2 3 6
	")
}

ee = optimize('scf')
oeprop('DIPOLE', 'QUADRUPOLE', 'MULLIKEN_CHARGES')
f=open( 'psi4out.xyz', 'w' )
f.write( "20  " )
f.write( str(ee) + "\n" )
f.write( MOL.save_string_xyz() )
f.close()
--------------------------------------------------------------------------

    Molecular point group: c1
  Charge       = 0
  Multiplicity = 1
  Basis Set: 6-31G*
  Basis Set:
  @DF-RHF Final Energy:  -383.94130394173322
    Total Energy =                       -383.9413039417325990
    Molecular point group: c1
  Basis Set: 6-31G*
  Basis Set:
  Basis Set: 6-31G*
  Basis Set:
  @DF-RHF Final Energy:  -383.94058254436362
    Total Energy =                       -383.9405825443636786
  Basis Set: 6-31G*
  Basis Set:
  Basis Set: 6-31G*
  Basis Set:
  @DF-RHF Final Energy:  -383.94138789220057
    Total Energy =                       -383.9413878922006234
  Basis Set: 6-31G*
  Basis Set:
  Basis Set: 6-31G*
  Basis Set:
  @DF-RHF Final Energy:  -383.94141150626268
    Total Energy =                       -383.9414115062625115
  Basis Set: 6-31G*
  Basis Set:
  Charge       = 0
  Multiplicity = 1
  Basis Set: 6-31G*
  Basis Set:

    Orbital Energies (a.u.)
    -----------------------

    Doubly Occupied:

       1A    -20.604174     2A    -20.545114     3A    -11.372419
       4A    -11.280954     5A    -11.235596     6A    -11.220580
       7A    -11.219836     8A    -11.210836     9A     -1.469581
      10A     -1.362748    11A     -1.088880    12A     -1.024423
      13A     -0.969259    14A     -0.886108    15A     -0.804200
      16A     -0.768066    17A     -0.696688    18A     -0.683496
      19A     -0.672050    20A     -0.646217    21A     -0.597562
      22A     -0.592170    23A     -0.578438    24A     -0.541730
      25A     -0.535982    26A     -0.523000    27A     -0.500626
      28A     -0.478292    29A     -0.474064    30A     -0.470385
      31A     -0.456056    32A     -0.436488

  @DF-RHF Final Energy:  -383.94141179897576

   => Energetics <=

    Nuclear Repulsion Energy =            381.0630947961147967
    One-Electron Energy =               -1278.1169767841995508
    Two-Electron Energy =                 513.1124701891089899
    DFT Exchange-Correlation Energy =       0.0000000000000000
    Empirical Dispersion Energy =           0.0000000000000000
    PCM Polarization Energy =               0.0000000000000000
    EFP Energy =                            0.0000000000000000
    Total Energy =                       -383.9414117989757642
    Molecular point group: c1
  Basis Set: 6-31G*
  Basis Set:

  -Total Gradient:
     Atom            X                  Y                   Z
    ------   -----------------  -----------------  -----------------
       1        0.000108424714    -0.000195546942     0.000609815571
       2       -0.000104298295     0.000179093399    -0.000878062615
       3       -0.000278534199     0.000491243804    -0.000043008237
       4       -0.000010190161     0.000013587162    -0.000078146785
       5        0.000000028574    -0.000001700927    -0.000045263544
       6        0.000290410094    -0.000427643490     0.000327171137
       7       -0.000016822096    -0.000029680386     0.000002024782
       8        0.000003780444    -0.000003088571     0.000017159508
       9        0.000003474909    -0.000002874213     0.000015728914
      10       -0.000001074864    -0.000002847203     0.000005485061
      11        0.000001272469     0.000002032095    -0.000013265540
      12        0.000003637858    -0.000001909091     0.000003093583
      13       -0.000003985303    -0.000000232558     0.000003427674
      14       -0.000000368430     0.000004146807     0.000001876371
      15        0.000000003761    -0.000000508617    -0.000004487678
      16       -0.000000432081    -0.000003280087     0.000000800333
      17        0.000003131380    -0.000049419371     0.000160502260
      18       -0.000037279654     0.000008488931    -0.000026440619
      19        0.000003475320     0.000009708796    -0.000025277435
      20        0.000035345557     0.000010430459    -0.000033132742

  **** Optimization is complete! (in 5 steps) ****
    Final optimized geometry and variables:
    Molecular point group: c1

    Geometry (in Angstrom), charge = 0, multiplicity = 1:

    O            1.232064064066     1.268166595664     0.306064691152
    C            1.124476410800     0.117231675422     0.028167992211
    C           -0.166485199042    -0.664854889787     0.024450929682
    O            2.156763568305    -0.651122001791    -0.294595464757
    C           -1.410056207103     0.219168397036     0.050608279522
    H           -0.160130523794    -1.325023404261    -0.836507227227
    H           -0.138508101619    -1.315277464859     0.896344799966
    C           -2.703363119998    -0.596638965282     0.081512639279
    H           -1.407636417057     0.867761757757    -0.821083406384
    H           -1.364457041925     0.873567173335     0.914530630299
    C           -3.953706787943     0.281529559007     0.102809642516
    H           -2.739708409645    -1.254660239591    -0.784290313652
    H           -2.702693811805    -1.243807849053     0.956308869920
    H           -4.001282627807     0.916522941154    -0.777111186549
    H           -4.856225211162    -0.321143886749     0.125538922813
    H           -3.963704628130     0.927040351809     0.976192195183
    C            3.436513785429    -0.044932263162    -0.285125899424
    H            3.474649403284     0.771765858842    -0.991497223610
    H            4.131778144629    -0.818978796558    -0.570447355539
    H            3.674035958121     0.327097792416     0.701139151948

  Mulliken Charges: (a.u.)
   Center  Symbol    Alpha    Beta     Spin     Total
       1     O     4.28620  4.28620  0.00000 -0.57240
       2     C     2.60464  2.60464  0.00000  0.79073
       3     C     3.20868  3.20868  0.00000 -0.41736
       4     O     4.30705  4.30705  0.00000 -0.61410
       5     C     3.15218  3.15218  0.00000 -0.30436
       6     H     0.40088  0.40088  0.00000  0.19825
       7     H     0.40034  0.40034  0.00000  0.19932
       8     C     3.15414  3.15414  0.00000 -0.30828
       9     H     0.41521  0.41521  0.00000  0.16957
      10     H     0.40815  0.40815  0.00000  0.18370
      11     C     3.23938  3.23938  0.00000 -0.47876
      12     H     0.42287  0.42287  0.00000  0.15426
      13     H     0.42273  0.42273  0.00000  0.15453
      14     H     0.42024  0.42024  0.00000  0.15952
      15     H     0.41867  0.41867  0.00000  0.16265
      16     H     0.41965  0.41965  0.00000  0.16069
      17     C     3.09267  3.09267  0.00000 -0.18534
      18     H     0.40868  0.40868  0.00000  0.18264
      19     H     0.40839  0.40839  0.00000  0.18322
      20     H     0.40924  0.40924  0.00000  0.18152

   Total alpha = 32.00000, Total beta = 32.00000, Total charge = -0.00000
