  ==> Input File <==

--------------------------------------------------------------------------
set {
	reference rhf
	basis 6-31G*
}

set_num_threads( 4 )
memory 2 gb

molecule MOL {
0 1

H	 2.573047	 -0.848604	 -1.094674
N	 1.591350	 -0.656103	 -1.118669
C	 1.289347	 0.537751	 -0.350412
C	 0.837922	 -1.800401	 -0.639462
H	 1.858550	 1.368760	 -0.753152
H	 1.548491	 0.431695	 0.705636
C	 -0.198102	 0.837691	 -0.459793
H	 1.080215	 -2.662631	 -1.251526
H	 1.069725	 -2.048071	 0.399080
C	 -0.649246	 -1.499013	 -0.748664
H	 -0.435150	 1.094033	 -1.496709
H	 -0.441669	 1.696539	 0.157136
N	 -0.975995	 -0.298722	 0.000000
H	 -1.218614	 -2.327653	 -0.340348
H	 -0.916519	 -1.399221	 -1.804933
C	 -2.393863	 -0.024976	 0.000000
H	 -2.854032	 -0.467193	 -0.876721
H	 -2.854032	 -0.467193	 0.876721
H	 -2.623281	 1.044943	 0.000000

	symmetry c1
}
set optking {
	frozen_dihedral = ("
		7 13 16 19
	")
}

ee = optimize('scf')
oeprop('DIPOLE', 'QUADRUPOLE', 'MULLIKEN_CHARGES')
f=open( 'psi4out.xyz', 'w' )
f.write( "19  " )
f.write( str(ee) + "\n" )
f.write( MOL.save_string_xyz() )
f.close()
--------------------------------------------------------------------------

    Molecular point group: c1
  Charge       = 0
  Multiplicity = 1
  Basis Set: 6-31G*
  Basis Set:
  @DF-RHF Final Energy:  -305.19445667415965
    Total Energy =                       -305.1944566741597669
    Molecular point group: c1
  Basis Set: 6-31G*
  Basis Set:
  Basis Set: 6-31G*
  Basis Set:
  @DF-RHF Final Energy:  -305.19549061644722
    Total Energy =                       -305.1954906164473869
  Basis Set: 6-31G*
  Basis Set:
  Basis Set: 6-31G*
  Basis Set:
  @DF-RHF Final Energy:  -305.19564868651531
    Total Energy =                       -305.1956486865150282
  Basis Set: 6-31G*
  Basis Set:
  Basis Set: 6-31G*
  Basis Set:
  @DF-RHF Final Energy:  -305.19565900752298
    Total Energy =                       -305.1956590075230338
  Basis Set: 6-31G*
  Basis Set:
  Charge       = 0
  Multiplicity = 1
  Basis Set: 6-31G*
  Basis Set:

    Orbital Energies (a.u.)
    -----------------------

    Doubly Occupied:

       1A    -15.537301     2A    -15.536205     3A    -11.237993
       4A    -11.237962     5A    -11.237237     6A    -11.236917
       7A    -11.234955     8A     -1.244941     9A     -1.183566
      10A     -1.022925    11A     -0.964182    12A     -0.860868
      13A     -0.857434    14A     -0.755605    15A     -0.690482
      16A     -0.631996    17A     -0.624904    18A     -0.604883
      19A     -0.603683    20A     -0.580523    21A     -0.544230
      22A     -0.532596    23A     -0.511371    24A     -0.488651
      25A     -0.467247    26A     -0.456901    27A     -0.363012
      28A     -0.337318

  @DF-RHF Final Energy:  -305.19566015513129

   => Energetics <=

    Nuclear Repulsion Energy =            339.4194749248574112
    One-Electron Energy =               -1086.0584923497428917
    Two-Electron Energy =                 441.4433572697541308
    DFT Exchange-Correlation Energy =       0.0000000000000000
    Empirical Dispersion Energy =           0.0000000000000000
    PCM Polarization Energy =               0.0000000000000000
    EFP Energy =                            0.0000000000000000
    Total Energy =                       -305.1956601551312929
    Molecular point group: c1
  Basis Set: 6-31G*
  Basis Set:

  -Total Gradient:
     Atom            X                  Y                   Z
    ------   -----------------  -----------------  -----------------
       1        0.000000772690     0.000010957357     0.000000736290
       2       -0.000020760605     0.000015692500     0.000006867143
       3        0.000027264822     0.000002465333     0.000021232383
       4       -0.000006649433    -0.000031594450    -0.000045864979
       5        0.000012147711    -0.000000154698     0.000000168101
       6        0.000000898048     0.000001575821     0.000005875865
       7        0.000326609420     0.001035490139     0.003316592354
       8        0.000028248639    -0.000010069618    -0.000002865191
       9       -0.000019265717     0.000006484099    -0.000013070197
      10        0.000002920816    -0.000008866525     0.000049280271
      11       -0.000019794445    -0.000009335401     0.000005603471
      12        0.000004949430    -0.000006588049    -0.000001867896
      13       -0.000468025442    -0.001414780063    -0.005910350365
      14       -0.000008798531     0.000001675107    -0.000003671069
      15        0.000010981661     0.000000858367     0.000014084680
      16        0.000308326530     0.000203849409     0.007184615800
      17       -0.000024558250    -0.000001661946    -0.000002959169
      18        0.000031398512    -0.000003660599    -0.000048662361
      19       -0.000186665863     0.000207663215    -0.004575745130

  **** Optimization is complete! (in 5 steps) ****
    Final optimized geometry and variables:
    Molecular point group: c1

    Geometry (in Angstrom), charge = 0, multiplicity = 1:

    H            2.657320631828    -0.438638356993    -0.599398185955
    N            1.675767104941    -0.246475758276    -0.630261793404
    C            1.370136541353     0.951743318204     0.129907061148
    C            0.920296420663    -1.388271397564    -0.148138653501
    H            1.952923634234     1.777285371835    -0.264820404247
    H            1.610981441079     0.844896442449     1.190326721971
    C           -0.113015949158     1.264434524811    -0.003037425541
    H            1.171957836825    -2.256135391273    -0.748512215970
    H            1.141904043122    -1.624127371398     0.895404682130
    C           -0.565991599011    -1.090940027340    -0.276775129305
    H           -0.324697847483     1.540128620891    -1.040859935982
    H           -0.358291906393     2.115325782040     0.622870493846
    N           -0.900551098116     0.127157084624     0.431134897437
    H           -1.138013689617    -1.908442836518     0.150928961783
    H           -0.826995975999    -1.023412645829    -1.337355736743
    C           -2.326876673288     0.372095710240     0.497609436420
    H           -2.848494583770     0.011222760556    -0.391496187550
    H           -2.765620495093    -0.114657064802     1.362705298061
    H           -2.525340243486     1.435826056149     0.550755639091

  Mulliken Charges: (a.u.)
   Center  Symbol    Alpha    Beta     Spin     Total
       1     H     0.32948  0.32948  0.00000  0.34103
       2     N     3.85436  3.85436  0.00000 -0.70873
       3     C     3.06400  3.06400  0.00000 -0.12801
       4     C     3.06361  3.06361  0.00000 -0.12723
       5     H     0.41796  0.41796  0.00000  0.16409
       6     H     0.42813  0.42813  0.00000  0.14374
       7     C     3.05117  3.05117  0.00000 -0.10234
       8     H     0.41789  0.41789  0.00000  0.16423
       9     H     0.42817  0.42817  0.00000  0.14366
      10     C     3.05177  3.05177  0.00000 -0.10354
      11     H     0.42914  0.42914  0.00000  0.14172
      12     H     0.41879  0.41879  0.00000  0.16242
      13     N     3.79447  3.79447  0.00000 -0.58894
      14     H     0.41878  0.41878  0.00000  0.16243
      15     H     0.42845  0.42845  0.00000  0.14310
      16     C     3.13760  3.13760  0.00000 -0.27520
      17     H     0.43005  0.43005  0.00000  0.13989
      18     H     0.41641  0.41641  0.00000  0.16718
      19     H     0.41975  0.41975  0.00000  0.16049

   Total alpha = 28.00000, Total beta = 28.00000, Total charge = -0.00000
