  ==> Input File <==

--------------------------------------------------------------------------
set {
	reference rhf
	basis cc-pvtz
}

set_num_threads( 4 )
memory 2 gb

molecule MOL {
0 1

H	 2.761116	 1.599075	 -1.056142
C	 2.046223	 1.423237	 -0.262865
C	 1.322304	 0.099773	 -0.484271
H	 2.586612	 1.424503	 0.677001
H	 1.351566	 2.255504	 -0.251779
C	 0.308557	 -0.162619	 0.622645
H	 2.034690	 -0.715494	 -0.508366
H	 0.806868	 0.111488	 -1.436703
N	 -1.069352	 -0.004081	 0.085342
H	 0.371632	 -1.172932	 0.991288
H	 0.400391	 0.548875	 1.426218
O	 -1.584901	 -0.965470	 -0.377818
O	 -1.548033	 1.079343	 0.130056

	symmetry c1
}
set optking {
	frozen_dihedral = ("
		7 3 6 9
	")
}

ee = optimize('scf')
oeprop('DIPOLE', 'QUADRUPOLE', 'MULLIKEN_CHARGES')
f=open( 'psi4out.xyz', 'w' )
f.write( "13  " )
f.write( str(ee) + "\n" )
f.write( MOL.save_string_xyz() )
f.close()
--------------------------------------------------------------------------

    Molecular point group: c1
  Charge       = 0
  Multiplicity = 1
  Basis Set: CC-PVTZ
  Basis Set:
  @DF-RHF Final Energy:  -321.85603872068066
    Total Energy =                       -321.8560387206806581
    Molecular point group: c1
  Basis Set: CC-PVTZ
  Basis Set:
  Basis Set: CC-PVTZ
  Basis Set:
  @DF-RHF Final Energy:  -321.85454451703276
    Total Energy =                       -321.8545445170327639
  Basis Set: CC-PVTZ
  Basis Set:
  Basis Set: CC-PVTZ
  Basis Set:
  @DF-RHF Final Energy:  -321.84988080557997
    Total Energy =                       -321.8498808055803693
  Basis Set: CC-PVTZ
  Basis Set:
  Basis Set: CC-PVTZ
  Basis Set:
  @DF-RHF Final Energy:  -321.85649532885009
    Total Energy =                       -321.8564953288497463
  Basis Set: CC-PVTZ
  Basis Set:
  @DF-RHF Final Energy:  -321.85661192312494
    Total Energy =                       -321.8566119231250013
  @DF-RHF Final Energy:  -321.85667898610615
    Total Energy =                       -321.8566789861064308
  Basis Set: CC-PVTZ
  Basis Set:
  @DF-RHF Final Energy:  -321.85668610708404
    Total Energy =                       -321.8566861070839877
  Basis Set: CC-PVTZ
  Basis Set:
  Basis Set: CC-PVTZ
  Basis Set:
  @DF-RHF Final Energy:  -321.85669329647948
    Total Energy =                       -321.8566932964794773
  Basis Set: CC-PVTZ
  Basis Set:
  Basis Set: CC-PVTZ
  Basis Set:
  @DF-RHF Final Energy:  -321.85669580269166
    Total Energy =                       -321.8566958026914335
  Basis Set: CC-PVTZ
  Basis Set:
  Charge       = 0
  Multiplicity = 1
  Basis Set: CC-PVTZ
  Basis Set:

    Orbital Energies (a.u.)
    -----------------------

    Doubly Occupied:

       1A    -20.591944     2A    -20.589410     3A    -15.837090
       4A    -11.297558     5A    -11.255284     6A    -11.230684
       7A     -1.636255     8A     -1.420440     9A     -1.131359
      10A     -1.025082    11A     -0.886321    12A     -0.832998
      13A     -0.763424    14A     -0.737612    15A     -0.727027
      16A     -0.653696    17A     -0.620306    18A     -0.591675
      19A     -0.534254    20A     -0.522120    21A     -0.515044
      22A     -0.484023    23A     -0.473649    24A     -0.454508

  @DF-RHF Final Energy:  -321.85669608754051

   => Energetics <=

    Nuclear Repulsion Energy =            250.1172109827128054
    One-Electron Energy =                -934.3242908637372466
    Two-Electron Energy =                 362.3503837934838998
    DFT Exchange-Correlation Energy =       0.0000000000000000
    Empirical Dispersion Energy =           0.0000000000000000
    PCM Polarization Energy =               0.0000000000000000
    EFP Energy =                            0.0000000000000000
    Total Energy =                       -321.8566960875405698
    Molecular point group: c1
  Basis Set: CC-PVTZ
  Basis Set:

  -Total Gradient:
     Atom            X                  Y                   Z
    ------   -----------------  -----------------  -----------------
       1       -0.000000663505    -0.000000099071    -0.000000266074
       2       -0.000012501200    -0.000005287460    -0.000003023862
       3        0.001916037239     0.000900780830     0.001999746116
       4        0.000002166750    -0.000002634655    -0.000003368233
       5       -0.000000120649     0.000000919028     0.000004401954
       6       -0.000372362151     0.002236619726     0.000375753266
       7       -0.001541428043    -0.001243553159    -0.001811314807
       8        0.000000602624    -0.000003155321     0.000000339558
       9       -0.000007601229    -0.001888620435    -0.000542441401
      10        0.000008728401    -0.000000434621    -0.000006222651
      11       -0.000001054138     0.000000511851    -0.000010923189
      12        0.000009707665    -0.000004597267    -0.000001004629
      13       -0.000001511765     0.000009550550    -0.000001676048

  **** Optimization is complete! (in 10 steps) ****
    Final optimized geometry and variables:
    Molecular point group: c1

    Geometry (in Angstrom), charge = 0, multiplicity = 1:

    H            2.885283706886     1.368694224139    -1.020881760404
    C            2.177041146298     1.194581826347    -0.220470400691
    C            1.454444296972    -0.130910110691    -0.424744144524
    H            2.725076774573     1.200835795091     0.715344346643
    H            1.474614072045     2.018495353259    -0.205778676846
    C            0.419332175288    -0.441276947247     0.671141881275
    H            2.158499633924    -0.951955588770    -0.464754663511
    H            0.955370114880    -0.131289376534    -1.386123475647
    N           -0.956123001103    -0.261089286757     0.135755134212
    H            0.466995643132    -1.464448544745     0.998646355924
    H            0.500830648307     0.229706792968     1.510064956461
    O           -1.537888343123    -1.231074229798    -0.215735067748
    O           -1.367735196311     0.849672606696     0.068201875903

  Mulliken Charges: (a.u.)
   Center  Symbol    Alpha    Beta     Spin     Total
       1     H     0.44594  0.44594  0.00000  0.10811
       2     C     3.14708  3.14708  0.00000 -0.29416
       3     C     3.09073  3.09073  0.00000 -0.18146
       4     H     0.45481  0.45481  0.00000  0.09038
       5     H     0.44264  0.44264  0.00000  0.11472
       6     C     3.04615  3.04615  0.00000 -0.09230
       7     H     0.44327  0.44327  0.00000  0.11347
       8     H     0.44120  0.44120  0.00000  0.11759
       9     N     3.27826  3.27826  0.00000  0.44347
      10     H     0.42793  0.42793  0.00000  0.14414
      11     H     0.43639  0.43639  0.00000  0.12721
      12     O     4.17012  4.17012  0.00000 -0.34024
      13     O     4.17546  4.17546  0.00000 -0.35093

   Total alpha = 24.00000, Total beta = 24.00000, Total charge =  0.00000
