  ==> Input File <==

--------------------------------------------------------------------------
set {
	reference rhf
	basis 6-31G*
}

set_num_threads( 4 )
memory 2 gb

molecule MOL {
0 1

H	 -2.095996	 -1.121076	 0.384808
C	 -1.685709	 -1.045777	 -0.617766
O	 -0.774054	 0.001095	 -0.743181
H	 -2.496797	 -0.830973	 -1.300646
H	 -1.256171	 -2.005054	 -0.890672
C	 0.406953	 0.000033	 0.038965
C	 1.527284	 -0.003667	 -0.998752
C	 0.498933	 1.262172	 0.902524
C	 0.494271	 -1.259566	 0.906664
H	 1.452513	 0.873252	 -1.631882
H	 1.448863	 -0.881882	 -1.629595
H	 2.502020	 -0.005104	 -0.521731
H	 0.364280	 2.147110	 0.289513
H	 1.472180	 1.321775	 1.378800
H	 -0.247853	 1.275162	 1.689097
H	 0.356778	 -2.146106	 0.296587
H	 1.467182	 -1.320941	 1.383330
H	 -0.252763	 -1.267328	 1.693119

	symmetry c1
}
set optking {
	frozen_dihedral = ("
		2 3 6 7
	")
}

ee = optimize('scf')
oeprop('DIPOLE', 'QUADRUPOLE', 'MULLIKEN_CHARGES')
f=open( 'psi4out.xyz', 'w' )
f.write( "18  " )
f.write( str(ee) + "\n" )
f.write( MOL.save_string_xyz() )
f.close()
--------------------------------------------------------------------------

    Molecular point group: c1
  Charge       = 0
  Multiplicity = 1
  Basis Set: 6-31G*
  Basis Set:
  @DF-RHF Final Energy:  -271.16700067041813
    Total Energy =                       -271.1670006704181901
    Molecular point group: c1
  Basis Set: 6-31G*
  Basis Set:
  Basis Set: 6-31G*
  Basis Set:
  @DF-RHF Final Energy:  -271.16751064239077
    Total Energy =                       -271.1675106423907664
  Basis Set: 6-31G*
  Basis Set:
  Basis Set: 6-31G*
  Basis Set:
  @DF-RHF Final Energy:  -271.17063368093397
    Total Energy =                       -271.1706336809339746
  Basis Set: 6-31G*
  Basis Set:
  Basis Set: 6-31G*
  Basis Set:
  @DF-RHF Final Energy:  -271.17093964287568
    Total Energy =                       -271.1709396428756236
  Basis Set: 6-31G*
  Basis Set:
  @DF-RHF Final Energy:  -271.17104430549296
    Total Energy =                       -271.1710443054932966
  @DF-RHF Final Energy:  -271.17108454578448
    Total Energy =                       -271.1710845457843106
  Basis Set: 6-31G*
  Basis Set:
  @DF-RHF Final Energy:  -271.17107911472539
    Total Energy =                       -271.1710791147252735
  Basis Set: 6-31G*
  Basis Set:
  Basis Set: 6-31G*
  Basis Set:
  @DF-RHF Final Energy:  -271.17108588798811
    Total Energy =                       -271.1710858879879424
  Basis Set: 6-31G*
  Basis Set:
  Basis Set: 6-31G*
  Basis Set:
  @DF-RHF Final Energy:  -271.17108813193505
    Total Energy =                       -271.1710881319351643
  Basis Set: 6-31G*
  Basis Set:
  Charge       = 0
  Multiplicity = 1
  Basis Set: 6-31G*
  Basis Set:

    Orbital Energies (a.u.)
    -----------------------

    Doubly Occupied:

       1A    -20.543320     2A    -11.281845     3A    -11.262238
       4A    -11.213909     5A    -11.203366     6A    -11.203282
       7A     -1.365765     8A     -1.074027     9A     -0.950840
      10A     -0.934175    11A     -0.911604    12A     -0.751147
      13A     -0.656288    14A     -0.645958    15A     -0.636409
      16A     -0.581070    17A     -0.577627    18A     -0.546784
      19A     -0.544005    20A     -0.525959    21A     -0.514822
      22A     -0.490394    23A     -0.482391    24A     -0.441573
      25A     -0.395454

  @DF-RHF Final Energy:  -271.17108812623542

   => Energetics <=

    Nuclear Repulsion Energy =            271.6347578040322333
    One-Electron Energy =                -906.1431897701984326
    Two-Electron Energy =                 363.3373438399309521
    DFT Exchange-Correlation Energy =       0.0000000000000000
    Empirical Dispersion Energy =           0.0000000000000000
    PCM Polarization Energy =               0.0000000000000000
    EFP Energy =                            0.0000000000000000
    Total Energy =                       -271.1710881262352473
    Molecular point group: c1
  Basis Set: 6-31G*
  Basis Set:

  -Total Gradient:
     Atom            X                  Y                   Z
    ------   -----------------  -----------------  -----------------
       1        0.000004593785     0.000004994079    -0.000000726793
       2       -0.000112238120     0.000120373978     0.000188142030
       3        0.000168877678    -0.000139424616    -0.000297076257
       4       -0.000002814241    -0.000000376403     0.000002689036
       5       -0.000004565526    -0.000005507552     0.000000918380
       6       -0.000059944904    -0.000190003755     0.000092095712
       7        0.000002802335     0.000202735946     0.000000644448
       8        0.000008758917    -0.000000845579     0.000011626132
       9       -0.000005720065     0.000006752244     0.000002412616
      10       -0.000001276506     0.000002057695     0.000009214906
      11        0.000005905033     0.000000361214    -0.000011133564
      12       -0.000002047602    -0.000007892065     0.000000523157
      13       -0.000000574182    -0.000002055507    -0.000000185747
      14        0.000000127815     0.000004638912     0.000002514107
      15       -0.000001319618     0.000000016787    -0.000001757489
      16        0.000001229914     0.000004317637    -0.000001559920
      17        0.000000443662     0.000002817102     0.000000009603
      18       -0.000002238374    -0.000002960117     0.000001649644

  **** Optimization is complete! (in 10 steps) ****
    Final optimized geometry and variables:
    Molecular point group: c1

    Geometry (in Angstrom), charge = 0, multiplicity = 1:

    H           -2.207283823916    -0.913212517373     0.471119416259
    C           -1.808008485408    -0.798753489759    -0.532536446773
    O           -0.848683870848     0.206667749987    -0.617631977096
    H           -2.617434869203    -0.501185646250    -1.186038956109
    H           -1.436586604090    -1.762183767496    -0.870363643822
    C            0.369813265282     0.151539640861     0.116108511247
    C            1.492339204330     0.167009362931    -0.921896299531
    C            0.406687117021     1.420972746924     0.967405193373
    C            0.506913256682    -1.081196923172     1.014915456387
    H            1.388238589110     1.031537297485    -1.567535315871
    H            1.446479451502    -0.722333530894    -1.542455389408
    H            2.469087253374     0.204385291451    -0.448904603795
    H            0.291507154070     2.294485410101     0.335866012119
    H            1.343686251833     1.507485727904     1.509342801557
    H           -0.406162225908     1.417667726940     1.686543595100
    H            0.488137803197    -2.004176801878     0.446392835563
    H            1.458915859873    -1.036228890236     1.532593441011
    H           -0.272122213974    -1.124147443879     1.767752505622

  Mulliken Charges: (a.u.)
   Center  Symbol    Alpha    Beta     Spin     Total
       1     H     0.43064  0.43064  0.00000  0.13872
       2     C     3.07454  3.07454  0.00000 -0.14907
       3     O     4.32621  4.32621  0.00000 -0.65242
       4     H     0.41245  0.41245  0.00000  0.17509
       5     H     0.43085  0.43085  0.00000  0.13830
       6     C     2.83894  2.83894  0.00000  0.32212
       7     C     3.23153  3.23153  0.00000 -0.46307
       8     C     3.23144  3.23144  0.00000 -0.46288
       9     C     3.25849  3.25849  0.00000 -0.51698
      10     H     0.41332  0.41332  0.00000  0.17336
      11     H     0.42036  0.42036  0.00000  0.15927
      12     H     0.42617  0.42617  0.00000  0.14765
      13     H     0.41329  0.41329  0.00000  0.17341
      14     H     0.42620  0.42620  0.00000  0.14760
      15     H     0.42016  0.42016  0.00000  0.15967
      16     H     0.41573  0.41573  0.00000  0.16854
      17     H     0.41406  0.41406  0.00000  0.17188
      18     H     0.41559  0.41559  0.00000  0.16882

   Total alpha = 25.00000, Total beta = 25.00000, Total charge =  0.00000
