  ==> Input File <==

--------------------------------------------------------------------------
set {
	reference rhf
	basis 6-31G*
}

set_num_threads( 4 )
memory 2 gb

molecule MOL {
0 1

H	 1.249935	 -1.972232	 -2.438460
C	 1.254847	 -1.107127	 -1.781340
C	 0.064120	 -1.156619	 -0.829058
H	 1.208089	 -0.211030	 -2.390098
H	 2.202866	 -1.102457	 -1.254299
N	 -0.000257	 -0.000071	 0.054619
H	 -0.840219	 -1.182662	 -1.423927
H	 0.078556	 -2.089398	 -0.257743
C	 -1.363055	 0.315058	 0.462241
C	 0.908831	 -0.112776	 1.187542
C	 -2.412078	 -0.285320	 -0.468531
H	 -1.482241	 1.391144	 0.451970
H	 -1.549931	 -0.001174	 1.492681
C	 1.380494	 1.242933	 1.704097
H	 1.780003	 -0.672639	 0.871684
H	 0.456695	 -0.688141	 2.000755
H	 -2.262839	 0.075384	 -1.480151
H	 -2.369300	 -1.368867	 -0.491760
H	 -3.410332	 -0.003975	 -0.144961
H	 1.881785	 1.789291	 0.912999
H	 0.559640	 1.854663	 2.062615
H	 2.075922	 1.112589	 2.528546

	symmetry c1
}
set optking {
	frozen_dihedral = ("
		3 6 9 11
	")
}

ee = optimize('scf')
oeprop('DIPOLE', 'QUADRUPOLE', 'MULLIKEN_CHARGES')
f=open( 'psi4out.xyz', 'w' )
f.write( "22  " )
f.write( str(ee) + "\n" )
f.write( MOL.save_string_xyz() )
f.close()
--------------------------------------------------------------------------

    Molecular point group: c1
  Charge       = 0
  Multiplicity = 1
  Basis Set: 6-31G*
  Basis Set:
  @DF-RHF Final Energy:  -290.35462504103612
    Total Energy =                       -290.3546250410359448
    Molecular point group: c1
  Basis Set: 6-31G*
  Basis Set:
  Basis Set: 6-31G*
  Basis Set:
  @DF-RHF Final Energy:  -290.35059527061844
    Total Energy =                       -290.3505952706192943
  Basis Set: 6-31G*
  Basis Set:
  Basis Set: 6-31G*
  Basis Set:
  @DF-RHF Final Energy:  -290.36198379071931
    Total Energy =                       -290.3619837907187389
  Basis Set: 6-31G*
  Basis Set:
  Basis Set: 6-31G*
  Basis Set:
  @DF-RHF Final Energy:  -290.36445809139855
    Total Energy =                       -290.3644580913983191
  Basis Set: 6-31G*
  Basis Set:
  @DF-RHF Final Energy:  -290.36463526639858
    Total Energy =                       -290.3646352663984658
  Basis Set: 6-31G*
  Basis Set:
  @DF-RHF Final Energy:  -290.36488728222565
    Total Energy =                       -290.3648872822255385
  Basis Set: 6-31G*
  Basis Set:
  Basis Set: 6-31G*
  Basis Set:
  @DF-RHF Final Energy:  -290.36486364463678
    Total Energy =                       -290.3648636446372961
  Basis Set: 6-31G*
  Basis Set:
  Basis Set: 6-31G*
  Basis Set:
  @DF-RHF Final Energy:  -290.36494082381427
    Total Energy =                       -290.3649408238142655
  Basis Set: 6-31G*
  Basis Set:
  Charge       = 0
  Multiplicity = 1
  Basis Set: 6-31G*
  Basis Set:

    Orbital Energies (a.u.)
    -----------------------

    Doubly Occupied:

       1A    -15.533482     2A    -11.241443     3A    -11.239046
       4A    -11.238217     5A    -11.213011     6A    -11.204248
       7A    -11.203518     8A     -1.218855     9A     -1.024643
      10A     -1.022598    11A     -0.956507    12A     -0.856890
      13A     -0.843469    14A     -0.759052    15A     -0.650711
      16A     -0.640881    17A     -0.627466    18A     -0.593549
      19A     -0.591150    20A     -0.546763    21A     -0.531585
      22A     -0.519306    23A     -0.514680    24A     -0.501879
      25A     -0.491258    26A     -0.486886    27A     -0.466132
      28A     -0.459908    29A     -0.329661

  @DF-RHF Final Energy:  -290.36494023653739

   => Energetics <=

    Nuclear Repulsion Energy =            337.4123407092437787
    One-Electron Energy =               -1060.5409683924185629
    Two-Electron Energy =                 432.7636874466374479
    DFT Exchange-Correlation Energy =       0.0000000000000000
    Empirical Dispersion Energy =           0.0000000000000000
    PCM Polarization Energy =               0.0000000000000000
    EFP Energy =                            0.0000000000000000
    Total Energy =                       -290.3649402365372794
    Molecular point group: c1
  Basis Set: 6-31G*
  Basis Set:

  -Total Gradient:
     Atom            X                  Y                   Z
    ------   -----------------  -----------------  -----------------
       1        0.000004609109    -0.000016007782     0.000012768057
       2        0.000033826542     0.000019391285     0.000059764564
       3       -0.000349429215     0.002253900707    -0.002894519115
       4       -0.000021029463    -0.000012726070     0.000005828513
       5        0.000048796993     0.000041008180     0.000090839888
       6        0.000089905923    -0.004674218785     0.005172431842
       7       -0.000117720422    -0.000052613054     0.000013084631
       8        0.000017354870     0.000084505438     0.000013590134
       9        0.000319742669     0.005120132153    -0.004101048910
      10        0.000037695915     0.000051111102    -0.000052254370
      11       -0.000187290313    -0.002727686445     0.001781568707
      12        0.000022978682    -0.000010027348     0.000000189842
      13        0.000003157706     0.000017191039     0.000002933009
      14       -0.000003654617     0.000007792898     0.000027365276
      15        0.000067640858    -0.000057144026    -0.000113066723
      16        0.000001230573     0.000005126905    -0.000007938154
      17       -0.000030924397     0.000024808504     0.000005928523
      18        0.000051795509    -0.000051875511    -0.000033076308
      19        0.000011265935    -0.000015737674     0.000010921879
      20        0.000008351901    -0.000017048057    -0.000002729562
      21       -0.000002290221     0.000009167510     0.000003453265
      22       -0.000006014535     0.000000949035     0.000003965011

  **** Optimization is complete! (in 9 steps) ****
    Final optimized geometry and variables:
    Molecular point group: c1

    Geometry (in Angstrom), charge = 0, multiplicity = 1:

    H            1.404800042433    -1.821455948436    -2.495930360868
    C            1.383416520811    -0.980640182478    -1.807973382296
    C            0.157762896130    -1.079253778748    -0.900808540985
    H            1.345430402615    -0.063398467787    -2.385298356725
    H            2.316518609028    -0.990480544500    -1.256186098967
    N            0.029635905258     0.063485518334    -0.012553879257
    H           -0.708603800738    -1.125992365759    -1.541120141537
    H            0.185596211614    -2.025577058188    -0.350474925680
    C           -1.304345425577     0.484631489159     0.412161934877
    C            0.970666722238     0.051995001272     1.091248065286
    C           -2.482945114910     0.023587454499    -0.440199153396
    H           -1.321199362229     1.568771448622     0.455961793471
    H           -1.495278552966     0.137262776212     1.431421642688
    C            1.252522501534     1.439549344404     1.661884562646
    H            1.906642397065    -0.361614018114     0.739816860860
    H            0.623420662923    -0.607523525575     1.894309558734
    H           -2.391606717354     0.343121409400    -1.473138578858
    H           -2.609898324440    -1.052695842075    -0.422498806296
    H           -3.389427447984     0.466818064282    -0.039841354878
    H            1.592194412129     2.106857127606     0.876941298465
    H            0.376344242591     1.880135997420     2.124478517955
    H            2.026222710847     1.379646527043     2.421745062652

  Mulliken Charges: (a.u.)
   Center  Symbol    Alpha    Beta     Spin     Total
       1     H     0.42404  0.42404  0.00000  0.15193
       2     C     3.23598  3.23598  0.00000 -0.47196
       3     C     3.05317  3.05317  0.00000 -0.10635
       4     H     0.41616  0.41616  0.00000  0.16769
       5     H     0.42160  0.42160  0.00000  0.15680
       6     N     3.79793  3.79793  0.00000 -0.59586
       7     H     0.41391  0.41391  0.00000  0.17218
       8     H     0.43527  0.43527  0.00000  0.12947
       9     C     3.03866  3.03866  0.00000 -0.07733
      10     C     3.05349  3.05349  0.00000 -0.10697
      11     C     3.25755  3.25755  0.00000 -0.51510
      12     H     0.41813  0.41813  0.00000  0.16374
      13     H     0.43402  0.43402  0.00000  0.13197
      14     C     3.24107  3.24107  0.00000 -0.48214
      15     H     0.41852  0.41852  0.00000  0.16296
      16     H     0.43450  0.43450  0.00000  0.13100
      17     H     0.41568  0.41568  0.00000  0.16864
      18     H     0.41698  0.41698  0.00000  0.16604
      19     H     0.41607  0.41607  0.00000  0.16786
      20     H     0.41532  0.41532  0.00000  0.16937
      21     H     0.41975  0.41975  0.00000  0.16050
      22     H     0.42222  0.42222  0.00000  0.15556

   Total alpha = 29.00000, Total beta = 29.00000, Total charge = -0.00000
