                              Psi4 1.0.54 Driver

  ==> Input File <==

--------------------------------------------------------------------------
set {
	reference rhf
	basis cc-pvtz
}

set_num_threads( 4 )
memory 2 gb

molecule MOL {
0 1

H	 4.528161	 0.159298	 -0.886905
C	 3.700551	 -0.416115	 -0.489326
C	 2.406131	 0.388834	 -0.523786
H	 3.614473	 -1.321467	 -1.080907
H	 3.957884	 -0.707330	 0.523586
C	 1.215950	 -0.382441	 0.027187
H	 2.182535	 0.692056	 -1.540558
H	 2.535776	 1.303403	 0.050089
N	 0.000002	 0.398953	 -0.040851
H	 1.069941	 -1.283799	 -0.560524
H	 1.438254	 -0.711990	 1.046531
C	 -1.215959	 -0.382435	 0.027143
H	 -0.000012	 1.086078	 0.683841
C	 -2.451944	 0.502410	 -0.038737
H	 -1.221867	 -1.069392	 -0.813828
H	 -1.259993	 -0.999709	 0.929424
C	 -3.752217	 -0.292550	 0.005776
H	 -2.407325	 1.093801	 -0.946480
H	 -2.431979	 1.206234	 0.790023
H	 -3.817783	 -0.982946	 -0.828547
H	 -4.612613	 0.364348	 -0.042306
H	 -3.830160	 -0.871666	 0.919868

	symmetry c1
}
set optking {
	frozen_dihedral = ("
		10 6 9 12
	")
}

ee,wfn = optimize('scf', return_wfn=True)
oeprop( wfn, 'DIPOLE', 'QUADRUPOLE', 'MULLIKEN_CHARGES')
f=open( 'psi4out.xyz', 'w' )
f.write( "22  " )
f.write( str(ee) + "\n" )
f.write( MOL.save_string_xyz() )
f.close()
--------------------------------------------------------------------------

    Molecular point group: c1
  Charge       = 0
  Multiplicity = 1
  Basis Set: CC-PVTZ
  Basis Set:
  @DF-RHF Final Energy:  -290.48886351106785
    Total Energy =                       -290.4888635110677342
    Molecular point group: c1
  Basis Set: CC-PVTZ
  Basis Set:
  Basis Set: CC-PVTZ
  Basis Set:
  @DF-RHF Final Energy:  -290.48898971633906
    Total Energy =                       -290.4889897163388355
  Basis Set: CC-PVTZ
  Basis Set:
  Basis Set: CC-PVTZ
  Basis Set:
  @DF-RHF Final Energy:  -290.48900961445457
    Total Energy =                       -290.4890096144542326
  Basis Set: CC-PVTZ
  Basis Set:
  Basis Set: CC-PVTZ
  Basis Set:
  @DF-RHF Final Energy:  -290.48901099184269
    Total Energy =                       -290.4890109918425196
  Basis Set: CC-PVTZ
  Basis Set:
  Charge       = 0
  Multiplicity = 1
  Basis Set: CC-PVTZ
  Basis Set:

    Orbital Energies (a.u.)
    -----------------------

    Doubly Occupied:

       1A    -15.527074     2A    -11.236667     3A    -11.236294
       4A    -11.211952     5A    -11.209026     6A    -11.207670
       7A    -11.206124     8A     -1.205919     9A     -1.059625
      10A     -1.026569    11A     -0.928583    12A     -0.869598
      13A     -0.810266    14A     -0.794029    15A     -0.670517
      16A     -0.628079    17A     -0.616531    18A     -0.609405
      19A     -0.575853    20A     -0.562333    21A     -0.532426
      22A     -0.522798    23A     -0.517459    24A     -0.485133
      25A     -0.484664    26A     -0.473953    27A     -0.465412
      28A     -0.453000    29A     -0.357797

  @DF-RHF Final Energy:  -290.48901111637798

   => Energetics <=

    Nuclear Repulsion Energy =            313.5476971671133128
    One-Electron Energy =               -1013.1039015868067281
    Two-Electron Energy =                 409.0671933033155483
    DFT Exchange-Correlation Energy =       0.0000000000000000
    Empirical Dispersion Energy =           0.0000000000000000
    PCM Polarization Energy =               0.0000000000000000
    EFP Energy =                            0.0000000000000000
    Total Energy =                       -290.4890111163778101
    Molecular point group: c1
  Basis Set: CC-PVTZ
  Basis Set:

  -Total Gradient:
     Atom            X                  Y                   Z
    ------   -----------------  -----------------  -----------------
       1        0.000011357853    -0.000009179475    -0.000001324952
       2        0.000016725329     0.000012228018    -0.000015906843
       3       -0.000022975489    -0.000027184134     0.000027465129
       4       -0.000001467858     0.000002484574     0.000001709462
       5       -0.000004434097     0.000005212503    -0.000003417295
       6        0.001187809943     0.001616954196    -0.003813634666
       7        0.000003156933    -0.000004413283     0.000006458607
       8       -0.000002053181     0.000003337087     0.000003205864
       9       -0.000200076930    -0.000050613690     0.003723992925
      10       -0.000970728066    -0.001370344293     0.002298467826
      11        0.000004943825     0.000007800083     0.000014024247
      12       -0.000007827063    -0.000176899470    -0.002237562483
      13        0.000002888444    -0.000004607359    -0.000000478709
      14       -0.000010599950    -0.000006248695    -0.000001385202
      15       -0.000004189390     0.000001134565     0.000001396026
      16       -0.000000386627     0.000007446112    -0.000006439509
      17       -0.000007029641     0.000004864859     0.000000880424
      18        0.000003714581    -0.000006944712     0.000000233378
      19        0.000003190424    -0.000004068939     0.000001215484
      20        0.000000264683     0.000000850691    -0.000000619233
      21       -0.000002480338    -0.000001251694     0.000001115183
      22        0.000000196610    -0.000000556943     0.000000604335

  **** Optimization is complete! (in 5 steps) ****
    Final optimized geometry and variables:
    Molecular point group: c1

    Geometry (in Angstrom), charge = 0, multiplicity = 1:

    H            4.556651979400     0.213128075074    -0.709659984276
    C            3.727976778048    -0.368905763446    -0.323987463134
    C            2.425556202808     0.421374301712    -0.386312056572
    H            3.663021718301    -1.278781662048    -0.911775630508
    H            3.970263191741    -0.652085737491     0.695027530578
    C            1.232332844257    -0.361177893991     0.141077372918
    H            2.217902345597     0.722285034821    -1.406960311460
    H            2.529846614733     1.338117461842     0.188450892795
    N            0.010691966694     0.414736182752     0.085944108154
    H            1.086432304920    -1.260514682946    -0.448400297517
    H            1.449416991882    -0.710793408847     1.154626612184
    C           -1.210855322185    -0.356270441920     0.159625841270
    H            0.017816192629     1.123538166516     0.787994238840
    C           -2.437750913793     0.542721710013     0.118743741111
    H           -1.233563967988    -1.031212653242    -0.690181278172
    H           -1.255457459183    -0.984286019029     1.054830924538
    C           -3.746079846612    -0.239131288522     0.157379191081
    H           -2.392595049589     1.150053120153    -0.778487237034
    H           -2.405024647865     1.230656775494     0.960319421663
    H           -3.824304140463    -0.913434044414    -0.688913953525
    H           -4.599657497035     0.427659162938     0.126864704340
    H           -3.824285212646    -0.833817990958     1.061371415376

  Mulliken Charges: (a.u.)
   Center  Symbol    Alpha    Beta     Spin     Total
       1     H     0.44778  0.44778  0.00000  0.10445
       2     C     3.15438  3.15438  0.00000 -0.30877
       3     C     3.07487  3.07487  0.00000 -0.14975
       4     H     0.45552  0.45552  0.00000  0.08897
       5     H     0.45660  0.45660  0.00000  0.08681
       6     C     3.03046  3.03046  0.00000 -0.06092
       7     H     0.45130  0.45130  0.00000  0.09740
       8     H     0.45869  0.45869  0.00000  0.08261
       9     N     3.64152  3.64152  0.00000 -0.28303
      10     H     0.45741  0.45741  0.00000  0.08519
      11     H     0.46900  0.46900  0.00000  0.06199
      12     C     3.02149  3.02149  0.00000 -0.04299
      13     H     0.44310  0.44310  0.00000  0.11379
      14     C     3.08148  3.08148  0.00000 -0.16296
      15     H     0.45956  0.45956  0.00000  0.08088
      16     H     0.47601  0.47601  0.00000  0.04797
      17     C     3.15357  3.15357  0.00000 -0.30713
      18     H     0.44925  0.44925  0.00000  0.10151
      19     H     0.45947  0.45947  0.00000  0.08107
      20     H     0.45481  0.45481  0.00000  0.09038
      21     H     0.44767  0.44767  0.00000  0.10466
      22     H     0.45607  0.45607  0.00000  0.08786

   Total alpha = 29.00000, Total beta = 29.00000, Total charge = -0.00000

*** Psi4 exiting successfully. Buy a developer a beer!
