                              Psi4 1.0.54 Driver

  ==> Input File <==

--------------------------------------------------------------------------
set {
	reference rhf
	basis cc-pvtz
}

set_num_threads( 4 )
memory 2 gb

molecule MOL {
0 1

H	 2.612359	 -2.538079	 2.373047
C	 2.582495	 -1.987961	 1.439994
C	 1.299893	 -1.171606	 1.325317
H	 3.458089	 -1.348232	 1.406540
H	 2.667566	 -2.705871	 0.631053
C	 1.215950	 -0.382441	 0.027187
H	 1.222137	 -0.480471	 2.157213
H	 0.442503	 -1.836891	 1.394993
N	 0.000002	 0.398953	 -0.040851
H	 2.058318	 0.300242	 -0.032222
H	 1.314267	 -1.067475	 -0.820248
C	 -1.215959	 -0.382435	 0.027143
H	 -0.000012	 1.086078	 0.683841
C	 -2.451944	 0.502410	 -0.038737
H	 -1.221867	 -1.069392	 -0.813828
H	 -1.259993	 -0.999709	 0.929424
C	 -3.752217	 -0.292550	 0.005776
H	 -2.407325	 1.093801	 -0.946480
H	 -2.431979	 1.206234	 0.790023
H	 -3.817783	 -0.982946	 -0.828547
H	 -4.612613	 0.364348	 -0.042306
H	 -3.830160	 -0.871666	 0.919868

	symmetry c1
}
set optking {
	frozen_dihedral = ("
		10 6 9 12
	")
}

ee,wfn = optimize('scf', return_wfn=True)
oeprop( wfn, 'DIPOLE', 'QUADRUPOLE', 'MULLIKEN_CHARGES')
f=open( 'psi4out.xyz', 'w' )
f.write( "22  " )
f.write( str(ee) + "\n" )
f.write( MOL.save_string_xyz() )
f.close()
--------------------------------------------------------------------------

    Molecular point group: c1
  Charge       = 0
  Multiplicity = 1
  Basis Set: CC-PVTZ
  Basis Set:
  @DF-RHF Final Energy:  -290.48357225977361
    Total Energy =                       -290.4835722597737231
    Molecular point group: c1
  Basis Set: CC-PVTZ
  Basis Set:
  Basis Set: CC-PVTZ
  Basis Set:
  @DF-RHF Final Energy:  -290.12810686356607
    Total Energy =                       -290.1281068635663587
  Basis Set: CC-PVTZ
  Basis Set:
  Basis Set: CC-PVTZ
  Basis Set:
  @DF-RHF Final Energy:  -290.28904766635924
    Total Energy =                       -290.2890476663592949
  Basis Set: CC-PVTZ
  Basis Set:
  Basis Set: CC-PVTZ
  Basis Set:
  @DF-RHF Final Energy:  -290.43894630052074
    Total Energy =                       -290.4389463005206835
  Basis Set: CC-PVTZ
  Basis Set:
  @DF-RHF Final Energy:  -290.48325530931743
    Total Energy =                       -290.4832553093169736
  @DF-RHF Final Energy:  -290.48658562358565
    Total Energy =                       -290.4865856235857109
  Basis Set: CC-PVTZ
  Basis Set:
  @DF-RHF Final Energy:  -290.48722922810225
    Total Energy =                       -290.4872292281019668
  Basis Set: CC-PVTZ
  Basis Set:
  Basis Set: CC-PVTZ
  Basis Set:
  @DF-RHF Final Energy:  -290.48729995965277
    Total Energy =                       -290.4872999596531145
  Basis Set: CC-PVTZ
  Basis Set:
  Basis Set: CC-PVTZ
  Basis Set:
  @DF-RHF Final Energy:  -290.48730568641867
    Total Energy =                       -290.4873056864184377
  Basis Set: CC-PVTZ
  Basis Set:
  Charge       = 0
  Multiplicity = 1
  Basis Set: CC-PVTZ
  Basis Set:

    Orbital Energies (a.u.)
    -----------------------

    Doubly Occupied:

       1A    -15.527049     2A    -11.236701     3A    -11.235650
       4A    -11.211144     5A    -11.209973     6A    -11.208455
       7A    -11.206596     8A     -1.204285     9A     -1.057707
      10A     -1.027668    11A     -0.929742    12A     -0.872654
      13A     -0.809667    14A     -0.795104    15A     -0.668014
      16A     -0.632791    17A     -0.616467    18A     -0.601557
      19A     -0.580307    20A     -0.556454    21A     -0.542097
      22A     -0.522112    23A     -0.504433    24A     -0.495962
      25A     -0.484459    26A     -0.469635    27A     -0.467643
      28A     -0.462077    29A     -0.354195

  @DF-RHF Final Energy:  -290.48730633380978

   => Energetics <=

    Nuclear Repulsion Energy =            317.4680423898192885
    One-Electron Energy =               -1020.9294981451095055
    Two-Electron Energy =                 412.9741494214803197
    DFT Exchange-Correlation Energy =       0.0000000000000000
    Empirical Dispersion Energy =           0.0000000000000000
    PCM Polarization Energy =               0.0000000000000000
    EFP Energy =                            0.0000000000000000
    Total Energy =                       -290.4873063338098973
    Molecular point group: c1
  Basis Set: CC-PVTZ
  Basis Set:

  -Total Gradient:
     Atom            X                  Y                   Z
    ------   -----------------  -----------------  -----------------
       1        0.000004107884     0.000006241941    -0.000001638996
       2       -0.000020586733     0.000026022792     0.000022122648
       3        0.000034705271    -0.000036639493    -0.000048640404
       4        0.000014184489     0.000002245161    -0.000005407497
       5       -0.000007870522    -0.000003170757     0.000003868903
       6        0.000117264213    -0.000230737557    -0.001343303681
       7        0.000005973777    -0.000000152167    -0.000002117377
       8       -0.000009453443    -0.000011097262     0.000005992405
       9        0.000124778569    -0.000182576667    -0.001481171122
      10       -0.000157295734     0.000247344162     0.001553949094
      11        0.000035122327    -0.000006311831     0.000013337124
      12       -0.000121339113     0.000133702280     0.001285169700
      13       -0.000033174335     0.000006933571     0.000015266035
      14       -0.000025734045     0.000042145020    -0.000009341950
      15       -0.000008724983     0.000002196470    -0.000003692736
      16       -0.000013891653     0.000009051223    -0.000006621408
      17        0.000031279744    -0.000014700088    -0.000001239971
      18        0.000000191635    -0.000008900279     0.000009146584
      19        0.000014464492    -0.000010657141    -0.000001059889
      20       -0.000002871339     0.000004130451     0.000005545836
      21        0.000016869734     0.000013694848    -0.000001596103
      22        0.000001999763     0.000011235323    -0.000008567194

  **** Optimization is complete! (in 10 steps) ****
    Final optimized geometry and variables:
    Molecular point group: c1

    Geometry (in Angstrom), charge = 0, multiplicity = 1:

    H            3.707267396724     0.037882564812     2.082853380012
    C            3.331722266513     0.425428137471     1.143155574865
    C            1.814392663656     0.294696533794     1.057081176638
    H            3.642134156252     1.462222197805     1.065693040818
    H            3.817511210280    -0.123456343147     0.343039993138
    C            1.263045990231     0.835316031147    -0.264297655419
    H            1.354835326826     0.834951995018     1.881524044216
    H            1.538687622022    -0.747131603729     1.179183934537
    N           -0.177673262835     0.847222379764    -0.420062018072
    H            1.606715881255     1.858017389650    -0.381419281076
    H            1.688707609945     0.268016682140    -1.087087544308
    C           -0.855924068908    -0.426655123826    -0.300897881228
    H           -0.584420821932     1.510652981676     0.204934006486
    C           -2.322817452344    -0.302748035459    -0.688358305243
    H           -0.367228800824    -1.128874163478    -0.970607581168
    H           -0.789098177943    -0.856291254982     0.699708213192
    C           -3.075515743549    -1.624923582315    -0.589307943664
    H           -2.383141670350     0.087860155093    -1.697796429175
    H           -2.799497681470     0.432436190446    -0.044347576986
    H           -2.640544932044    -2.373399376870    -1.243454124232
    H           -4.114431745434    -1.504364302970    -0.872684554475
    H           -3.053252115851    -2.017928404677     0.421746797147

  Mulliken Charges: (a.u.)
   Center  Symbol    Alpha    Beta     Spin     Total
       1     H     0.44751  0.44751  0.00000  0.10498
       2     C     3.15179  3.15179  0.00000 -0.30357
       3     C     3.08711  3.08711  0.00000 -0.17423
       4     H     0.45478  0.45478  0.00000  0.09045
       5     H     0.45478  0.45478  0.00000  0.09044
       6     C     3.04593  3.04593  0.00000 -0.09187
       7     H     0.45823  0.45823  0.00000  0.08355
       8     H     0.45299  0.45299  0.00000  0.09401
       9     N     3.64262  3.64262  0.00000 -0.28523
      10     H     0.44961  0.44961  0.00000  0.10078
      11     H     0.45428  0.45428  0.00000  0.09144
      12     C     3.02459  3.02459  0.00000 -0.04917
      13     H     0.44561  0.44561  0.00000  0.10879
      14     C     3.07906  3.07906  0.00000 -0.15813
      15     H     0.45915  0.45915  0.00000  0.08171
      16     H     0.47018  0.47018  0.00000  0.05963
      17     C     3.15386  3.15386  0.00000 -0.30771
      18     H     0.44921  0.44921  0.00000  0.10158
      19     H     0.45933  0.45933  0.00000  0.08135
      20     H     0.45515  0.45515  0.00000  0.08971
      21     H     0.44768  0.44768  0.00000  0.10464
      22     H     0.45656  0.45656  0.00000  0.08688

   Total alpha = 29.00000, Total beta = 29.00000, Total charge = -0.00000

*** Psi4 exiting successfully. Buy a developer a beer!
