  ==> Input File <==

--------------------------------------------------------------------------
set {
	reference rhf
	basis 6-31G*
}

set_num_threads( 4 )
memory 2 gb

molecule MOL {
0 1

H	 -2.241650	 0.978039	 2.125215
C	 -1.617589	 0.722103	 2.979138
O	 -0.366335	 0.266357	 2.576649
H	 -1.464326	 1.608640	 3.578892
H	 -2.141175	 -0.021547	 3.578530
C	 -0.403392	 -0.885118	 1.794356
C	 0.994968	 -1.218684	 1.330108
H	 -0.798571	 -1.721899	 2.371701
H	 -1.044902	 -0.743319	 0.926968
O	 1.392611	 -0.295398	 0.366430
H	 1.669645	 -1.202188	 2.183657
H	 1.003585	 -2.226914	 0.914066
C	 2.706965	 -0.449871	 -0.062409
H	 2.756559	 -0.644779	 -1.131878
H	 3.305899	 0.433456	 0.155466
H	 3.125548	 -1.294566	 0.467107

	symmetry c1
}
set optking {
	frozen_dihedral = ("
		7 10 13 14
	")
}

ee = optimize('scf')
oeprop('DIPOLE', 'QUADRUPOLE', 'MULLIKEN_CHARGES')
f=open( 'psi4out.xyz', 'w' )
f.write( "16  " )
f.write( str(ee) + "\n" )
f.write( MOL.save_string_xyz() )
f.close()
--------------------------------------------------------------------------

    Molecular point group: c1
  Charge       = 0
  Multiplicity = 1
  Basis Set: 6-31G*
  Basis Set:
  @DF-RHF Final Energy:  -306.97243056540128
    Total Energy =                       -306.9724305654012824
    Molecular point group: c1
  Basis Set: 6-31G*
  Basis Set:
  Basis Set: 6-31G*
  Basis Set:
  @DF-RHF Final Energy:  -306.97340106508210
    Total Energy =                       -306.9734010650821574
  Basis Set: 6-31G*
  Basis Set:
  Basis Set: 6-31G*
  Basis Set:
  @DF-RHF Final Energy:  -306.97375123404998
    Total Energy =                       -306.9737512340500416
  Basis Set: 6-31G*
  Basis Set:
  Charge       = 0
  Multiplicity = 1
  Basis Set: 6-31G*
  Basis Set:

    Orbital Energies (a.u.)
    -----------------------

    Doubly Occupied:

       1A    -20.553091     2A    -20.549368     3A    -11.269292
       4A    -11.267985     5A    -11.263193     6A    -11.262917
       7A     -1.385756     8A     -1.367187     9A     -1.030403
      10A     -0.936122    11A     -0.891892    12A     -0.823493
      13A     -0.682363    14A     -0.678616    15A     -0.655953
      16A     -0.633653    17A     -0.627793    18A     -0.595896
      19A     -0.554335    20A     -0.537515    21A     -0.507971
      22A     -0.476717    23A     -0.461450    24A     -0.417216
      25A     -0.406572

  @DF-RHF Final Energy:  -306.97375459751379

   => Energetics <=

    Nuclear Repulsion Energy =            258.5369360624504225
    One-Electron Energy =                -931.3478840981769054
    Two-Electron Energy =                 365.8371934382128643
    DFT Exchange-Correlation Energy =       0.0000000000000000
    Empirical Dispersion Energy =           0.0000000000000000
    PCM Polarization Energy =               0.0000000000000000
    EFP Energy =                            0.0000000000000000
    Total Energy =                       -306.9737545975136186
    Molecular point group: c1
  Basis Set: 6-31G*
  Basis Set:

  -Total Gradient:
     Atom            X                  Y                   Z
    ------   -----------------  -----------------  -----------------
       1        0.000000455515     0.000000221684    -0.000000452226
       2       -0.000005602548    -0.000009592964    -0.000003503959
       3        0.000003558151    -0.000003778674    -0.000004544827
       4        0.000005517366    -0.000002204059    -0.000002898162
       5        0.000000585363     0.000000015774    -0.000000454294
       6       -0.000018782475     0.000019940848    -0.000005868985
       7        0.000007786558    -0.000035148362     0.000021950951
       8       -0.000011794560    -0.000006690938     0.000017059619
       9        0.000014274972     0.000000006285     0.000007632017
      10        0.000105369843     0.000016989690    -0.000209568557
      11        0.000018062275     0.000017766558    -0.000014919826
      12        0.000011380632     0.000037622112    -0.000003124482
      13       -0.000081945033    -0.000100537171     0.000212563913
      14       -0.000107638873     0.000082411797     0.000013473449
      15       -0.000001003736     0.000016325331    -0.000028512543
      16        0.000059776549    -0.000033347912     0.000001167913

  **** Optimization is complete! (in 4 steps) ****
    Final optimized geometry and variables:
    Molecular point group: c1

    Geometry (in Angstrom), charge = 0, multiplicity = 1:

    H           -2.679672412146     1.308283176003     0.611361511345
    C           -2.066346059850     1.043247006444     1.470277668359
    O           -0.818456488796     0.569737021141     1.078069004536
    H           -1.905605865275     1.927314627820     2.071727562250
    H           -2.605249759095     0.306717683375     2.064802012190
    C           -0.865550249130    -0.581037824486     0.295209392707
    C            0.531059726662    -0.933992923176    -0.159886404515
    H           -1.275795349773    -1.412569447287     0.869847411800
    H           -1.499352918992    -0.430517667851    -0.576224036383
    O            0.945276083175    -0.009992578094    -1.117358254162
    H            1.196962971901    -0.929440873213     0.699676351647
    H            0.524843481249    -1.940958853004    -0.577629664512
    C            2.264015242223    -0.135090355535    -1.561675095668
    H            2.272555216797    -0.313964952670    -2.631738351158
    H            2.804800035824     0.782404574683    -1.357487589223
    H            2.782903862788    -0.954872872928    -1.073800433165

  Mulliken Charges: (a.u.)
   Center  Symbol    Alpha    Beta     Spin     Total
       1     H     0.42808  0.42808  0.00000  0.14383
       2     C     3.07941  3.07941  0.00000 -0.15882
       3     O     4.30085  4.30085  0.00000 -0.60169
       4     H     0.41142  0.41142  0.00000  0.17716
       5     H     0.43199  0.43199  0.00000  0.13601
       6     C     2.99355  2.99355  0.00000  0.01290
       7     C     2.99305  2.99305  0.00000  0.01389
       8     H     0.43252  0.43252  0.00000  0.13496
       9     H     0.42280  0.42280  0.00000  0.15441
      10     O     4.30601  4.30601  0.00000 -0.61202
      11     H     0.42236  0.42236  0.00000  0.15527
      12     H     0.43233  0.43233  0.00000  0.13534
      13     C     3.07577  3.07577  0.00000 -0.15155
      14     H     0.42147  0.42147  0.00000  0.15705
      15     H     0.41811  0.41811  0.00000  0.16378
      16     H     0.43026  0.43026  0.00000  0.13947

   Total alpha = 25.00000, Total beta = 25.00000, Total charge = -0.00000
