                              Psi4 1.0.54 Driver

  ==> Input File <==

--------------------------------------------------------------------------
set {
	reference rhf
	basis cc-pvtz
}

set_num_threads( 4 )
memory 2 gb

molecule MOL {
0 1

H	 -3.091675	 0.208959	 -0.200839
O	 -2.346257	 -0.289210	 0.080372
C	 -1.183935	 0.486039	 -0.009831
C	 0.062853	 -0.375310	 0.027457
H	 -1.178881	 1.094526	 -0.908634
H	 -1.184406	 1.155156	 0.838676
O	 1.172093	 0.457955	 -0.054438
H	 0.052476	 -1.081302	 -0.804627
H	 0.076323	 -0.955658	 0.947560
C	 2.395478	 -0.199028	 -0.000366
H	 2.505946	 -0.901710	 -0.823354
H	 3.174616	 0.545641	 -0.071768
H	 2.513730	 -0.742241	 0.934223

	symmetry c1
}
set optking {
	frozen_dihedral = ("
		1 2 3 5
	")
}

ee,wfn = optimize('scf', return_wfn=True)
oeprop( wfn, 'DIPOLE', 'QUADRUPOLE', 'MULLIKEN_CHARGES')
f=open( 'psi4out.xyz', 'w' )
f.write( "13  " )
f.write( str(ee) + "\n" )
f.write( MOL.save_string_xyz() )
f.close()
--------------------------------------------------------------------------

    Molecular point group: c1
  Charge       = 0
  Multiplicity = 1
  Basis Set: CC-PVTZ
  Basis Set:
  @DF-RHF Final Energy:  -268.06113344808148
    Total Energy =                       -268.0611334480814776
    Molecular point group: c1
  Basis Set: CC-PVTZ
  Basis Set:
  Basis Set: CC-PVTZ
  Basis Set:
  @DF-RHF Final Energy:  -268.06221453495408
    Total Energy =                       -268.0622145349542507
  Basis Set: CC-PVTZ
  Basis Set:
  Basis Set: CC-PVTZ
  Basis Set:
  @DF-RHF Final Energy:  -268.06249083915134
    Total Energy =                       -268.0624908391515646
  Basis Set: CC-PVTZ
  Basis Set:
  Basis Set: CC-PVTZ
  Basis Set:
  @DF-RHF Final Energy:  -268.06249960807304
    Total Energy =                       -268.0624996080730398
  Basis Set: CC-PVTZ
  Basis Set:
  Charge       = 0
  Multiplicity = 1
  Basis Set: CC-PVTZ
  Basis Set:

    Orbital Energies (a.u.)
    -----------------------

    Doubly Occupied:

       1A    -20.552568     2A    -20.551740     3A    -11.267455
       4A    -11.265171     5A    -11.264791     6A     -1.388742
       7A     -1.368072     8A     -1.019665     9A     -0.911873
      10A     -0.832183    11A     -0.712983    12A     -0.685168
      13A     -0.644133    14A     -0.637538    15A     -0.618609
      16A     -0.554934    17A     -0.540058    18A     -0.497176
      19A     -0.472593    20A     -0.443930    21A     -0.421116

  @DF-RHF Final Energy:  -268.06250062385163

   => Energetics <=

    Nuclear Repulsion Energy =            190.6796031001103700
    One-Electron Energy =                -744.1832091794482267
    Two-Electron Energy =                 285.4411054554860812
    DFT Exchange-Correlation Energy =       0.0000000000000000
    Empirical Dispersion Energy =           0.0000000000000000
    PCM Polarization Energy =               0.0000000000000000
    EFP Energy =                            0.0000000000000000
    Total Energy =                       -268.0625006238517472
    Molecular point group: c1
  Basis Set: CC-PVTZ
  Basis Set:

  -Total Gradient:
     Atom            X                  Y                   Z
    ------   -----------------  -----------------  -----------------
       1        0.000176463989    -0.000377310265    -0.000941651813
       2       -0.000376569157     0.000649330135     0.001267189386
       3        0.000675704518    -0.000928896270    -0.000713878370
       4       -0.000042541593    -0.000022025925     0.000015450164
       5       -0.000444282120     0.000633762884     0.000420151614
       6       -0.000004800404    -0.000022549148    -0.000015203222
       7        0.000043348764     0.000025689481    -0.000017587820
       8       -0.000006684682     0.000012584820    -0.000006508664
       9       -0.000017642052     0.000022519174    -0.000011420797
      10        0.000003503934     0.000007949003     0.000008305293
      11       -0.000004967845     0.000003321661     0.000003915515
      12        0.000003523425    -0.000004929585    -0.000003214400
      13       -0.000005056775     0.000000554036    -0.000005546886

  **** Optimization is complete! (in 5 steps) ****
    Final optimized geometry and variables:
    Molecular point group: c1

    Geometry (in Angstrom), charge = 0, multiplicity = 1:

    H           -3.065490860335     0.109232927564    -0.227179889617
    O           -2.298416470688    -0.332879848189     0.083842078375
    C           -1.178321257000     0.503169343196    -0.022354028417
    C            0.053529381935    -0.371736645586     0.010577142363
    H           -1.194310677584     1.073306839475    -0.945601325332
    H           -1.139102108599     1.208660140921     0.801783526113
    O            1.172487802985     0.452703137498    -0.045821242501
    H            0.035095530102    -1.060961991321    -0.830881311732
    H            0.052089647822    -0.964086661823     0.923166721438
    C            2.386322606079    -0.222457756797    -0.013975733488
    H            2.486276594354    -0.900869177832    -0.858219254781
    H            3.175955143434     0.513071136998    -0.063027495412
    H            2.497961460159    -0.796215983269     0.903172801992

  Mulliken Charges: (a.u.)
   Center  Symbol    Alpha    Beta     Spin     Total
       1     H     0.39258  0.39258  0.00000  0.21484
       2     O     4.20035  4.20035  0.00000 -0.40071
       3     C     2.96527  2.96527  0.00000  0.06946
       4     C     2.96353  2.96353  0.00000  0.07293
       5     H     0.47088  0.47088  0.00000  0.05823
       6     H     0.46997  0.46997  0.00000  0.06006
       7     O     4.17636  4.17636  0.00000 -0.35272
       8     H     0.47159  0.47159  0.00000  0.05681
       9     H     0.47022  0.47022  0.00000  0.05956
      10     C     3.03112  3.03112  0.00000 -0.06223
      11     H     0.47076  0.47076  0.00000  0.05849
      12     H     0.44701  0.44701  0.00000  0.10598
      13     H     0.47036  0.47036  0.00000  0.05928

   Total alpha = 21.00000, Total beta = 21.00000, Total charge = -0.00000

*** Psi4 exiting successfully. Buy a developer a beer!
