  ==> Input File <==

--------------------------------------------------------------------------
set {
	reference rhf
	basis 6-31G*
}

set_num_threads( 1 )
memory 2 gb

molecule MOL {
0 1

H	 2.591676	 2.013956	 0.335017
O	 3.341076	 1.666752	 -0.126416
C	 3.569581	 0.339145	 0.272707
C	 2.732758	 -0.079107	 1.476667
H	 3.312328	 -0.273488	 -0.581796
H	 4.627526	 0.179639	 0.477868
C	 3.052704	 0.696734	 2.756734
H	 1.682401	 0.046209	 1.226842
H	 2.893399	 -1.142157	 1.648386
C	 2.234884	 0.216818	 3.959094
H	 2.866012	 1.753895	 2.589632
H	 4.114177	 0.597762	 2.984375
C	 2.577739	 0.903242	 5.286352
H	 1.175493	 0.350700	 3.747874
H	 2.387204	 -0.854085	 4.075996
C	 2.232197	 2.393586	 5.349241
H	 2.044961	 0.389928	 6.084144
H	 3.637761	 0.769497	 5.496831
C	 2.494300	 3.008716	 6.725596
H	 1.183365	 2.530201	 5.089627
H	 2.804269	 2.942167	 4.604865
C	 2.156261	 4.497788	 6.789291
H	 1.913726	 2.474856	 7.474872
H	 3.539625	 2.864594	 6.990945
H	 1.108656	 4.672128	 6.560480
H	 2.350754	 4.903807	 7.777196
H	 2.747900	 5.065410	 6.076457

	symmetry c1
}
set optking {
	frozen_dihedral = ("
		14 10 7 4,
		14 10 13 16,
		10 7 4 8,
		8 4 3 2,
		10 13 16 20,
		20 16 19 22
	")
}

ee = energy('scf')
oeprop('DIPOLE', 'QUADRUPOLE', 'MULLIKEN_CHARGES')
f=open( 'psi4out.xyz', 'w' )
f.write( "27  " )
f.write( str(ee) + "\n" )
f.write( MOL.save_string_xyz() )
f.close()
--------------------------------------------------------------------------

    Molecular point group: c1

    Geometry (in Angstrom), charge = 0, multiplicity = 1:

       Center              X                  Y                   Z               Mass
    ------------   -----------------  -----------------  -----------------  -----------------
           H         -0.123904728156     0.477892529343    -3.219688694934     1.007825032070
           O          0.625495271844     0.130688529343    -3.681121694934    15.994914619560
           C          0.854000271844    -1.196918470657    -3.281998694934    12.000000000000
           C          0.017177271844    -1.615170470657    -2.078038694934    12.000000000000
           H          0.596747271844    -1.809551470657    -4.136501694934     1.007825032070
           H          1.911945271844    -1.356424470657    -3.076837694934     1.007825032070
           C          0.337123271844    -0.839329470657    -0.797971694934    12.000000000000
           H         -1.033179728156    -1.489854470657    -2.327863694934     1.007825032070
           H          0.177818271844    -2.678220470657    -1.906319694934     1.007825032070
           C         -0.480696728156    -1.319245470657     0.404388305066    12.000000000000
           H          0.150431271844     0.217831529343    -0.965073694934     1.007825032070
           H          1.398596271844    -0.938301470657    -0.570330694934     1.007825032070
           C         -0.137841728156    -0.632821470657     1.731646305066    12.000000000000
           H         -1.540087728156    -1.185363470657     0.193168305066     1.007825032070
           H         -0.328376728156    -2.390148470657     0.521290305066     1.007825032070
           C         -0.483383728156     0.857522529343     1.794535305066    12.000000000000
           H         -0.670619728156    -1.146135470657     2.529438305066     1.007825032070
           H          0.922180271844    -0.766566470657     1.942125305066     1.007825032070
           C         -0.221280728156     1.472652529343     3.170890305066    12.000000000000
           H         -1.532215728156     0.994137529343     1.534921305066     1.007825032070
           H          0.088688271844     1.406103529343     1.050159305066     1.007825032070
           C         -0.559319728156     2.961724529343     3.234585305066    12.000000000000
           H         -0.801854728156     0.938792529343     3.920166305066     1.007825032070
           H          0.824044271844     1.328530529343     3.436239305066     1.007825032070
           H         -1.606924728156     3.136064529343     3.005774305066     1.007825032070
           H         -0.364826728156     3.367743529343     4.222490305066     1.007825032070
           H          0.032319271844     3.529346529343     2.521751305066     1.007825032070

  Charge       = 0
  Multiplicity = 1
  Basis Set: 6-31G*
  Basis Set:

    Orbital Energies (a.u.)
    -----------------------

    Doubly Occupied:

       1A    -20.548926     2A    -11.266031     3A    -11.224474
       4A    -11.221790     5A    -11.219356     6A    -11.216876
       7A    -11.216416     8A    -11.215043     9A    -11.209507
      10A     -1.357546    11A     -1.097225    12A     -1.063649
      13A     -1.013148    14A     -0.948984    15A     -0.889191
      16A     -0.825784    17A     -0.805166    18A     -0.779991
      19A     -0.661525    20A     -0.657129    21A     -0.649306
      22A     -0.627362    23A     -0.608116    24A     -0.585534
      25A     -0.575501    26A     -0.563901    27A     -0.540357
      28A     -0.525914    29A     -0.511584    30A     -0.490792
      31A     -0.486937    32A     -0.480028    33A     -0.467087
      34A     -0.461440    35A     -0.447486    36A     -0.445011
      37A     -0.424013

  @DF-RHF Final Energy:  -388.27839985301409

   => Energetics <=

    Nuclear Repulsion Energy =            459.9903306051215850
    One-Electron Energy =               -1437.8811953655610978
    Two-Electron Energy =                 589.6124649074256467
    DFT Exchange-Correlation Energy =       0.0000000000000000
    Empirical Dispersion Energy =           0.0000000000000000
    PCM Polarization Energy =               0.0000000000000000
    EFP Energy =                            0.0000000000000000
    Total Energy =                       -388.2783998530138660

  Mulliken Charges: (a.u.)
   Center  Symbol    Alpha    Beta     Spin     Total
       1     H     0.27899  0.27899  0.00000  0.44201
       2     O     4.37720  4.37720  0.00000 -0.75440
       3     C     2.97589  2.97589  0.00000  0.04822
       4     C     3.18936  3.18936  0.00000 -0.37873
       5     H     0.42436  0.42436  0.00000  0.15129
       6     H     0.42400  0.42400  0.00000  0.15201
       7     C     3.15431  3.15431  0.00000 -0.30862
       8     H     0.42172  0.42172  0.00000  0.15657
       9     H     0.41702  0.41702  0.00000  0.16595
      10     C     3.15276  3.15276  0.00000 -0.30552
      11     H     0.42296  0.42296  0.00000  0.15408
      12     H     0.41965  0.41965  0.00000  0.16069
      13     C     3.15322  3.15322  0.00000 -0.30643
      14     H     0.42414  0.42414  0.00000  0.15172
      15     H     0.42138  0.42138  0.00000  0.15723
      16     C     3.15344  3.15344  0.00000 -0.30688
      17     H     0.42118  0.42118  0.00000  0.15763
      18     H     0.42301  0.42301  0.00000  0.15397
      19     C     3.15122  3.15122  0.00000 -0.30245
      20     H     0.42512  0.42512  0.00000  0.14977
      21     H     0.42153  0.42153  0.00000  0.15693
      22     C     3.23937  3.23937  0.00000 -0.47874
      23     H     0.42306  0.42306  0.00000  0.15387
      24     H     0.42258  0.42258  0.00000  0.15484
      25     H     0.42201  0.42201  0.00000  0.15598
      26     H     0.41905  0.41905  0.00000  0.16190
      27     H     0.42145  0.42145  0.00000  0.15711

   Total alpha = 37.00000, Total beta = 37.00000, Total charge = -0.00000
