  ==> Input File <==

--------------------------------------------------------------------------
set {
	reference rhf
	basis 6-31G*
}

set_num_threads( 1 )
memory 2 gb

molecule MOL {
0 1

H	 -4.236494	 0.538104	 0.039757
O	 -3.517110	 -0.026191	 -0.205115
C	 -2.306886	 0.532354	 0.237577
C	 -1.177863	 -0.397191	 -0.171080
H	 -2.156308	 1.517575	 -0.201710
H	 -2.315015	 0.655684	 1.319734
C	 0.198102	 0.111031	 0.262842
H	 -1.208843	 -0.518759	 -1.250427
H	 -1.368741	 -1.376554	 0.258909
C	 1.331804	 -0.827780	 -0.158768
H	 0.361943	 1.100838	 -0.156218
H	 0.217265	 0.229072	 1.345532
C	 2.723619	 -0.410569	 0.329459
H	 1.342964	 -0.912588	 -1.244120
H	 1.116806	 -1.824343	 0.220779
C	 3.738111	 -1.552746	 0.410514
H	 2.622168	 0.035648	 1.315708
H	 3.112159	 0.372616	 -0.318479
H	 3.370590	 -2.356827	 1.042513
H	 3.956542	 -1.972811	 -0.565708
H	 4.676487	 -1.205337	 0.831836

	symmetry c1
}
set optking {
	frozen_dihedral = ("
		2 3 4 8,
		8 4 7 10,
		4 7 10 14,
		1 2 3 5
	")
}

ee = energy('scf')
oeprop('DIPOLE', 'QUADRUPOLE', 'MULLIKEN_CHARGES')
f=open( 'psi4out.xyz', 'w' )
f.write( "21  " )
f.write( str(ee) + "\n" )
f.write( MOL.save_string_xyz() )
f.close()
--------------------------------------------------------------------------

    Molecular point group: c1

    Geometry (in Angstrom), charge = 0, multiplicity = 1:

       Center              X                  Y                   Z               Mass
    ------------   -----------------  -----------------  -----------------  -----------------
           H         -4.308895968996     0.897737222986    -0.061163957227     1.007825032070
           O         -3.589511968996     0.333442222986    -0.306035957227    15.994914619560
           C         -2.379287968996     0.891987222986     0.136656042773    12.000000000000
           C         -1.250264968996    -0.037557777014    -0.272000957227    12.000000000000
           H         -2.228709968996     1.877208222986    -0.302630957227     1.007825032070
           H         -2.387416968996     1.015317222986     1.218813042773     1.007825032070
           C          0.125700031004     0.470664222986     0.161921042773    12.000000000000
           H         -1.281244968996    -0.159125777014    -1.351347957227     1.007825032070
           H         -1.441142968996    -1.016920777014     0.157988042773     1.007825032070
           C          1.259402031004    -0.468146777014    -0.259688957227    12.000000000000
           H          0.289541031004     1.460471222986    -0.257138957227     1.007825032070
           H          0.144863031004     0.588705222986     1.244611042773     1.007825032070
           C          2.651217031004    -0.050935777014     0.228538042773    12.000000000000
           H          1.270562031004    -0.552954777014    -1.345040957227     1.007825032070
           H          1.044404031004    -1.464709777014     0.119858042773     1.007825032070
           C          3.665709031004    -1.193112777014     0.309593042773    12.000000000000
           H          2.549766031004     0.395281222986     1.214787042773     1.007825032070
           H          3.039757031004     0.732249222986    -0.419399957227     1.007825032070
           H          3.298188031004    -1.997193777014     0.941592042773     1.007825032070
           H          3.884140031004    -1.613177777014    -0.666628957227     1.007825032070
           H          4.604085031004    -0.845703777014     0.730915042773     1.007825032070

  Charge       = 0
  Multiplicity = 1
  Basis Set: 6-31G*
  Basis Set:

    Orbital Energies (a.u.)
    -----------------------

    Doubly Occupied:

       1A    -20.551962     2A    -11.267226     3A    -11.216636
       4A    -11.214603     5A    -11.213104     6A    -11.210808
       7A    -11.208568     8A     -1.358785     9A     -1.085426
      10A     -1.034239    11A     -0.956956    12A     -0.868460
      13A     -0.802437    14A     -0.789742    15A     -0.691992
      16A     -0.663681    17A     -0.631195    18A     -0.596188
      19A     -0.581625    20A     -0.561784    21A     -0.548232
      22A     -0.521515    23A     -0.507631    24A     -0.484405
      25A     -0.477472    26A     -0.460030    27A     -0.459344
      28A     -0.444457    29A     -0.434091

  @DF-RHF Final Energy:  -310.21223419017650

   => Energetics <=

    Nuclear Repulsion Energy =            308.6591940044472153
    One-Electron Energy =               -1032.0576999934198739
    Two-Electron Energy =                 413.1862717987951328
    DFT Exchange-Correlation Energy =       0.0000000000000000
    Empirical Dispersion Energy =           0.0000000000000000
    PCM Polarization Energy =               0.0000000000000000
    EFP Energy =                            0.0000000000000000
    Total Energy =                       -310.2122341901774689

  Mulliken Charges: (a.u.)
   Center  Symbol    Alpha    Beta     Spin     Total
       1     H     0.28115  0.28115  0.00000  0.43771
       2     O     4.37176  4.37176  0.00000 -0.74352
       3     C     2.98977  2.98977  0.00000  0.02047
       4     C     3.15966  3.15966  0.00000 -0.31932
       5     H     0.43284  0.43284  0.00000  0.13432
       6     H     0.43283  0.43283  0.00000  0.13434
       7     C     3.16066  3.16066  0.00000 -0.32131
       8     H     0.41468  0.41468  0.00000  0.17065
       9     H     0.41457  0.41457  0.00000  0.17087
      10     C     3.15104  3.15104  0.00000 -0.30207
      11     H     0.42314  0.42314  0.00000  0.15372
      12     H     0.42351  0.42351  0.00000  0.15299
      13     C     3.15221  3.15221  0.00000 -0.30442
      14     H     0.42166  0.42166  0.00000  0.15669
      15     H     0.42290  0.42290  0.00000  0.15420
      16     C     3.23949  3.23949  0.00000 -0.47899
      17     H     0.42364  0.42364  0.00000  0.15271
      18     H     0.42225  0.42225  0.00000  0.15550
      19     H     0.42160  0.42160  0.00000  0.15680
      20     H     0.42098  0.42098  0.00000  0.15804
      21     H     0.41968  0.41968  0.00000  0.16065

   Total alpha = 29.00000, Total beta = 29.00000, Total charge =  0.00000
