  ==> Input File <==

--------------------------------------------------------------------------
set {
	reference rhf
	basis 6-31G*
}

set_num_threads( 4 )
memory 2 gb

molecule MOL {
0 1

H	 -4.031818	 -0.453427	 -0.000094
C	 -2.967712	 -0.297022	 -0.000064
C	 -2.458620	 0.992929	 0.000032
C	 -2.109895	 -1.385637	 -0.000122
H	 -3.124998	 1.836319	 0.000077
C	 -1.090278	 1.193236	 0.000070
H	 -2.506361	 -2.384847	 -0.000198
C	 -0.739812	 -1.187531	 -0.000085
H	 -0.678594	 2.184290	 0.000146
C	 -0.226438	 0.104061	 0.000012
H	 -0.072310	 -2.027032	 -0.000131
C	 1.239129	 0.373821	 0.000060
O	 1.918686	 -0.450268	 -0.783318
O	 1.756682	 1.238510	 0.635128
C	 3.321756	 -0.264632	 -0.843371
H	 3.557276	 0.721693	 -1.215512
H	 3.689103	 -1.019078	 -1.521398
H	 3.762429	 -0.391710	 0.134677

	symmetry c1
}
set optking {
	frozen_dihedral = ("
		13 12 10 6
	")
}

ee = optimize('scf')
oeprop('DIPOLE', 'QUADRUPOLE', 'MULLIKEN_CHARGES')
f=open( 'psi4out.xyz', 'w' )
f.write( "18  " )
f.write( str(ee) + "\n" )
f.write( MOL.save_string_xyz() )
f.close()
--------------------------------------------------------------------------

    Molecular point group: c1
  Charge       = 0
  Multiplicity = 1
  Basis Set: 6-31G*
  Basis Set:
  @DF-RHF Final Energy:  -457.34613166420473
    Total Energy =                       -457.3461316642050178
    Molecular point group: c1
  Basis Set: 6-31G*
  Basis Set:
  Basis Set: 6-31G*
  Basis Set:
  @DF-RHF Final Energy:  -457.34385352800183
    Total Energy =                       -457.3438535280018868
  Basis Set: 6-31G*
  Basis Set:
  Basis Set: 6-31G*
  Basis Set:
  @DF-RHF Final Energy:  -457.34649920829838
    Total Energy =                       -457.3464992082982690
  Basis Set: 6-31G*
  Basis Set:
  Basis Set: 6-31G*
  Basis Set:
  @DF-RHF Final Energy:  -457.34657670450628
    Total Energy =                       -457.3465767045061057
  Basis Set: 6-31G*
  Basis Set:
  Basis Set: 6-31G*
  Basis Set:
  @DF-RHF Final Energy:  -457.34657791650602
    Total Energy =                       -457.3465779165059075
  Basis Set: 6-31G*
  Basis Set:
  Charge       = 0
  Multiplicity = 1
  Basis Set: 6-31G*
  Basis Set:

    Orbital Energies (a.u.)
    -----------------------

    Doubly Occupied:

       1A    -20.608807     2A    -20.546445     3A    -11.378439
       4A    -11.283222     5A    -11.247569     6A    -11.244568
       7A    -11.243598     8A    -11.242994     9A    -11.238566
      10A    -11.237922    11A     -1.473533    12A     -1.365216
      13A     -1.166106    14A     -1.048695    15A     -1.025493
      16A     -0.978719    17A     -0.860157    18A     -0.836276
      19A     -0.778713    20A     -0.738681    21A     -0.683931
      22A     -0.678135    23A     -0.674168    24A     -0.630571
      25A     -0.626962    26A     -0.597498    27A     -0.588219
      28A     -0.555415    29A     -0.532496    30A     -0.516187
      31A     -0.505919    32A     -0.501206    33A     -0.458540
      34A     -0.444455    35A     -0.343928    36A     -0.341826

  @DF-RHF Final Energy:  -457.34657822848391

   => Energetics <=

    Nuclear Repulsion Energy =            492.6909345930527593
    One-Electron Energy =               -1599.6286816469896621
    Two-Electron Energy =                 649.5911688254532237
    DFT Exchange-Correlation Energy =       0.0000000000000000
    Empirical Dispersion Energy =           0.0000000000000000
    PCM Polarization Energy =               0.0000000000000000
    EFP Energy =                            0.0000000000000000
    Total Energy =                       -457.3465782284836223
    Molecular point group: c1
  Basis Set: 6-31G*
  Basis Set:

  -Total Gradient:
     Atom            X                  Y                   Z
    ------   -----------------  -----------------  -----------------
       1       -0.000001305147     0.000005221056    -0.000004489229
       2        0.000009913723    -0.000057187381     0.000006329416
       3        0.000046051058     0.000033875967    -0.000022837783
       4       -0.000051416891     0.000025937938     0.000029678205
       5       -0.000004288548    -0.000003646008     0.000007538726
       6       -0.000107874856    -0.000059964277    -0.004886179261
       7        0.000006234346     0.000000264201    -0.000006054289
       8        0.000044291727     0.000052120003     0.000021031155
       9        0.000004765322    -0.000002563203    -0.000001868930
      10       -0.000112209436     0.001082322737     0.005693850035
      11        0.000002214078    -0.000007563101    -0.000002957864
      12        0.000799851770    -0.004127603477     0.002977165273
      13       -0.000625806132     0.003042134736    -0.003821766644
      14       -0.000009445748     0.000016705010     0.000015800693
      15       -0.000005960149     0.000007635323    -0.000011164999
      16        0.000007203228    -0.000003501578     0.000001959269
      17       -0.000000155483    -0.000002976475     0.000002232788
      18       -0.000002062865    -0.000001211473     0.000001733439

  **** Optimization is complete! (in 6 steps) ****
    Final optimized geometry and variables:
    Molecular point group: c1

    Geometry (in Angstrom), charge = 0, multiplicity = 1:

    H           -4.017054989859    -0.511683077119     0.078330239838
    C           -2.954271492747    -0.348424518009     0.095545992713
    C           -2.453297562151     0.943901205745     0.108494492354
    C           -2.088675620846    -1.431311222759     0.098720508553
    H           -3.124604436507     1.783361482087     0.096176010034
    C           -1.085704351309     1.154098530239     0.139243807194
    H           -2.478071515389    -2.433204103352     0.084863345629
    C           -0.720357081926    -1.223141124739     0.106087149168
    H           -0.684713736026     2.150012999654     0.164863781103
    C           -0.217451697740     0.070720619633     0.148578601063
    H           -0.045847121680    -2.058353420195     0.083051269696
    C            1.249518730611     0.340061554845     0.128040843170
    O            1.909254032001    -0.503571038828    -0.651058397261
    O            1.770078787005     1.245535949010     0.698800656334
    C            3.312985803702    -0.329990493949    -0.737431248094
    H            3.547819274858     0.641440623665    -1.147150207499
    H            3.665129913774    -1.109566874095    -1.394581563565
    H            3.768826203417    -0.425284923987     0.237513080244

  Mulliken Charges: (a.u.)
   Center  Symbol    Alpha    Beta     Spin     Total
       1     H     0.39576  0.39576  0.00000  0.20848
       2     C     3.09242  3.09242  0.00000 -0.18485
       3     C     3.10456  3.10456  0.00000 -0.20912
       4     C     3.10534  3.10534  0.00000 -0.21067
       5     H     0.39545  0.39545  0.00000  0.20909
       6     C     3.09303  3.09303  0.00000 -0.18605
       7     H     0.39607  0.39607  0.00000  0.20786
       8     C     3.08956  3.08956  0.00000 -0.17913
       9     H     0.38102  0.38102  0.00000  0.23795
      10     C     3.04207  3.04207  0.00000 -0.08415
      11     H     0.38612  0.38612  0.00000  0.22776
      12     C     2.61202  2.61202  0.00000  0.77597
      13     O     4.30329  4.30329  0.00000 -0.60658
      14     O     4.28680  4.28680  0.00000 -0.57360
      15     C     3.09388  3.09388  0.00000 -0.18777
      16     H     0.40707  0.40707  0.00000  0.18585
      17     H     0.40728  0.40728  0.00000  0.18544
      18     H     0.40825  0.40825  0.00000  0.18350

   Total alpha = 36.00000, Total beta = 36.00000, Total charge = -0.00000
