  ==> Input File <==

--------------------------------------------------------------------------
set {
	reference rhf
	basis 6-31G*
}

set_num_threads( 4 )
memory 2 gb

molecule MOL {
0 1

H	 -3.420663	 1.227371	 -1.044276
O	 -3.452007	 0.283848	 -0.965577
C	 -3.181085	 -0.079926	 0.364119
C	 -1.765924	 0.277073	 0.805136
H	 -3.327791	 -1.152017	 0.410903
H	 -3.905698	 0.375695	 1.036898
C	 -1.598950	 0.346532	 2.323627
H	 -1.070560	 -0.454222	 0.392054
H	 -1.499528	 1.233773	 0.359064
C	 -0.170274	 0.683203	 2.755732
H	 -1.899853	 -0.601371	 2.759113
H	 -2.281992	 1.095368	 2.721234
C	 -0.012304	 0.756793	 4.276823
H	 0.507662	 -0.062539	 2.347455
H	 0.125193	 1.636236	 2.318661
C	 1.381035	 1.178340	 4.757508
H	 -0.264352	 -0.209165	 4.711670
H	 -0.740659	 1.463924	 4.668335
C	 2.493433	 0.177685	 4.438656
H	 1.343685	 1.325771	 5.834151
H	 1.632000	 2.146231	 4.328083
H	 2.263605	 -0.803598	 4.845351
H	 3.436749	 0.499870	 4.868990
H	 2.645528	 0.065689	 3.370251

	symmetry c1
}
set optking {
	frozen_dihedral = ("
		7 4 3 2
	")
}

ee = optimize('scf')
oeprop('DIPOLE', 'QUADRUPOLE', 'MULLIKEN_CHARGES')
f=open( 'psi4out.xyz', 'w' )
f.write( "24  " )
f.write( str(ee) + "\n" )
f.write( MOL.save_string_xyz() )
f.close()
--------------------------------------------------------------------------

    Molecular point group: c1
  Charge       = 0
  Multiplicity = 1
  Basis Set: 6-31G*
  Basis Set:
  @DF-RHF Final Energy:  -349.24550716467030
    Total Energy =                       -349.2455071646706983
    Molecular point group: c1
  Basis Set: 6-31G*
  Basis Set:
  Basis Set: 6-31G*
  Basis Set:
  @DF-RHF Final Energy:  -349.24568867057934
    Total Energy =                       -349.2456886705790566
  Basis Set: 6-31G*
  Basis Set:
  Basis Set: 6-31G*
  Basis Set:
  @DF-RHF Final Energy:  -349.24570796653688
    Total Energy =                       -349.2457079665366564
  Basis Set: 6-31G*
  Basis Set:
  Basis Set: 6-31G*
  Basis Set:
  @DF-RHF Final Energy:  -349.24570938538733
    Total Energy =                       -349.2457093853874994
  Basis Set: 6-31G*
  Basis Set:
  Basis Set: 6-31G*
  Basis Set:
  @DF-RHF Final Energy:  -349.24571287145102
    Total Energy =                       -349.2457128714513601
  Basis Set: 6-31G*
  Basis Set:
  Basis Set: 6-31G*
  Basis Set:
  @DF-RHF Final Energy:  -349.24571073386784
    Total Energy =                       -349.2457107338677247
  Basis Set: 6-31G*
  Basis Set:
  Basis Set: 6-31G*
  Basis Set:
  @DF-RHF Final Energy:  -349.24571345280327
    Total Energy =                       -349.2457134528032157
  Basis Set: 6-31G*
  Basis Set:
  Charge       = 0
  Multiplicity = 1
  Basis Set: 6-31G*
  Basis Set:

    Orbital Energies (a.u.)
    -----------------------

    Doubly Occupied:

       1A    -20.551633     2A    -11.267038     3A    -11.220174
       4A    -11.217165     5A    -11.216825     6A    -11.216613
       7A    -11.215420     8A    -11.209272     9A     -1.358926
      10A     -1.093173    11A     -1.051535    12A     -0.986526
      13A     -0.914855    14A     -0.851696    15A     -0.805520
      16A     -0.779793    17A     -0.690296    18A     -0.654423
      19A     -0.624258    20A     -0.610581    21A     -0.601989
      22A     -0.586808    23A     -0.557452    24A     -0.540435
      25A     -0.529036    26A     -0.511613    27A     -0.490554
      28A     -0.484001    29A     -0.473404    30A     -0.462154
      31A     -0.456557    32A     -0.449510    33A     -0.420731

  @DF-RHF Final Energy:  -349.24571346434300

   => Energetics <=

    Nuclear Repulsion Energy =            379.8536389246253293
    One-Electron Energy =               -1225.9987674770284229
    Two-Electron Energy =                 496.8994150880599818
    DFT Exchange-Correlation Energy =       0.0000000000000000
    Empirical Dispersion Energy =           0.0000000000000000
    PCM Polarization Energy =               0.0000000000000000
    EFP Energy =                            0.0000000000000000
    Total Energy =                       -349.2457134643431118
    Molecular point group: c1
  Basis Set: 6-31G*
  Basis Set:

  -Total Gradient:
     Atom            X                  Y                   Z
    ------   -----------------  -----------------  -----------------
       1        0.000001957807    -0.000010010203     0.000009073598
       2       -0.001132786728     0.003065863536     0.001055151959
       3        0.001223683894    -0.002950557797    -0.001488075758
       4        0.000705253058    -0.003171728076     0.000444938295
       5       -0.000001438867     0.000009100880    -0.000002337756
       6        0.000005308347    -0.000008394120     0.000016977068
       7       -0.000792494861     0.003066177413    -0.000056878466
       8       -0.000005762362     0.000010459828     0.000007524282
       9       -0.000007171548     0.000001799150    -0.000005466975
      10       -0.000001908528    -0.000002306453     0.000006184274
      11       -0.000004162791    -0.000010137592     0.000014257155
      12        0.000005905004    -0.000001076404    -0.000000571768
      13        0.000002682778    -0.000000875881    -0.000003647215
      14       -0.000009376384     0.000001121521     0.000002909120
      15        0.000004925388    -0.000000785711     0.000001855765
      16        0.000000878885     0.000005740611    -0.000001520051
      17        0.000003284358    -0.000002159470    -0.000002261978
      18       -0.000003404822    -0.000002450608    -0.000001878191
      19        0.000001244013    -0.000000844260     0.000000426721
      20       -0.000000796504     0.000000760150    -0.000000760627
      21        0.000002169635     0.000000636181     0.000000448671
      22        0.000000906740    -0.000000499405     0.000000728444
      23       -0.000000652349     0.000000374044    -0.000000581610
      24        0.000001755844    -0.000000207335     0.000003505058

  **** Optimization is complete! (in 8 steps) ****
    Final optimized geometry and variables:
    Molecular point group: c1

    Geometry (in Angstrom), charge = 0, multiplicity = 1:

    H           -2.588220551348     0.765496135837    -3.325932392973
    O           -2.635791810002    -0.176595458730    -3.244924984167
    C           -2.353370945323    -0.539976347067    -1.918850396141
    C           -0.934732524197    -0.167145289621    -1.488396409604
    H           -2.502327572049    -1.610369835327    -1.861622792960
    H           -3.075657227898    -0.079768623909    -1.245293949384
    C           -0.768371674835    -0.100818992945     0.030931187984
    H           -0.225369007693    -0.864511616207    -1.925052577713
    H           -0.696146207716     0.810456879785    -1.906513945805
    C            0.660055998127     0.230961424146     0.467225787435
    H           -1.065134588198    -1.051015283441     0.473521426760
    H           -1.451036943952     0.646228057074     0.431368790891
    C            0.814314910988     0.309579983635     1.988356913461
    H            1.335135218963    -0.518201758818     0.062225677576
    H            0.957954151056     1.181503082884     0.026848384250
    C            2.208103084588     0.728560637079     2.469992231804
    H            0.559032663523    -0.654137606825     2.426386432567
    H            0.087378747743     1.020478456764     2.376070564255
    C            3.317560809402    -0.277333897841     2.157662717830
    H            2.168712777837     0.880857614399     3.545792149760
    H            2.462928220637     1.693711238537     2.036793386913
    H            3.083882683398    -1.255921070331     2.568535358925
    H            4.260965208238     0.043884300156     2.588341735281
    H            3.471370622202    -0.394794645228     1.090160446441

  Mulliken Charges: (a.u.)
   Center  Symbol    Alpha    Beta     Spin     Total
       1     H     0.28341  0.28341  0.00000  0.43318
       2     O     4.37108  4.37108  0.00000 -0.74216
       3     C     2.98942  2.98942  0.00000  0.02115
       4     C     3.16681  3.16681  0.00000 -0.33362
       5     H     0.41519  0.41519  0.00000  0.16961
       6     H     0.43160  0.43160  0.00000  0.13681
       7     C     3.15994  3.15994  0.00000 -0.31988
       8     H     0.41458  0.41458  0.00000  0.17083
       9     H     0.42781  0.42781  0.00000  0.14438
      10     C     3.15315  3.15315  0.00000 -0.30630
      11     H     0.42201  0.42201  0.00000  0.15599
      12     H     0.42303  0.42303  0.00000  0.15395
      13     C     3.15258  3.15258  0.00000 -0.30516
      14     H     0.42005  0.42005  0.00000  0.15991
      15     H     0.42401  0.42401  0.00000  0.15197
      16     C     3.15242  3.15242  0.00000 -0.30484
      17     H     0.42387  0.42387  0.00000  0.15226
      18     H     0.42257  0.42257  0.00000  0.15487
      19     C     3.24133  3.24133  0.00000 -0.48265
      20     H     0.42076  0.42076  0.00000  0.15848
      21     H     0.42338  0.42338  0.00000  0.15323
      22     H     0.42212  0.42212  0.00000  0.15577
      23     H     0.41900  0.41900  0.00000  0.16200
      24     H     0.41988  0.41988  0.00000  0.16023

   Total alpha = 33.00000, Total beta = 33.00000, Total charge = -0.00000
