                              Psi4 1.0.54 Driver

  ==> Input File <==

--------------------------------------------------------------------------
set {
	reference rhf
	basis cc-pvtz
}

set_num_threads( 4 )
memory 2 gb

molecule MOL {
0 1

H	 0.199270	 -2.439761	 -0.584503
C	 -0.650669	 -1.769629	 -0.725836
N	 -0.537714	 -0.645117	 0.000000
O	 -1.552925	 -2.045926	 -1.451310
C	 -1.522613	 0.412524	 0.000000
H	 0.270416	 -0.546333	 0.563162
H	 -2.150256	 0.356137	 -0.880771
H	 -1.005621	 1.357208	 0.000000
H	 -2.150256	 0.356137	 0.880771

	symmetry c1
}
set optking {
	frozen_dihedral = ("
		6 3 5 7
	")
}

ee,wfn = optimize('scf', return_wfn=True)
oeprop( wfn, 'DIPOLE', 'QUADRUPOLE', 'MULLIKEN_CHARGES')
f=open( 'psi4out.xyz', 'w' )
f.write( "9  " )
f.write( str(ee) + "\n" )
f.write( MOL.save_string_xyz() )
f.close()
--------------------------------------------------------------------------

    Molecular point group: c1
  Charge       = 0
  Multiplicity = 1
  Basis Set: CC-PVTZ
  Basis Set:
  @DF-RHF Final Energy:  -208.04326846602638
    Total Energy =                       -208.0432684660264044
    Molecular point group: c1
  Basis Set: CC-PVTZ
  Basis Set:
  Basis Set: CC-PVTZ
  Basis Set:
  @DF-RHF Final Energy:  -208.04354031793696
    Total Energy =                       -208.0435403179370724
  Basis Set: CC-PVTZ
  Basis Set:
  Basis Set: CC-PVTZ
  Basis Set:
  @DF-RHF Final Energy:  -208.04356066429457
    Total Energy =                       -208.0435606642946027
  Basis Set: CC-PVTZ
  Basis Set:
  Basis Set: CC-PVTZ
  Basis Set:
  @DF-RHF Final Energy:  -208.04360663207547
    Total Energy =                       -208.0436066320754378
  Basis Set: CC-PVTZ
  Basis Set:
  Basis Set: CC-PVTZ
  Basis Set:
  @DF-RHF Final Energy:  -208.04362402419594
    Total Energy =                       -208.0436240241958217
  Basis Set: CC-PVTZ
  Basis Set:
  Basis Set: CC-PVTZ
  Basis Set:
  @DF-RHF Final Energy:  -208.04363130978732
    Total Energy =                       -208.0436313097873722
  Basis Set: CC-PVTZ
  Basis Set:
  Basis Set: CC-PVTZ
  Basis Set:
  @DF-RHF Final Energy:  -208.04363546836024
    Total Energy =                       -208.0436354683603213
  Basis Set: CC-PVTZ
  Basis Set:
  Charge       = 0
  Multiplicity = 1
  Basis Set: CC-PVTZ
  Basis Set:

    Orbital Energies (a.u.)
    -----------------------

    Doubly Occupied:

       1A    -20.516411     2A    -15.584860     3A    -11.337126
       4A    -11.259610     5A     -1.393836     6A     -1.239753
       7A     -0.970193     8A     -0.808470     9A     -0.748815
      10A     -0.646284    11A     -0.629559    12A     -0.596619
      13A     -0.556685    14A     -0.540521    15A     -0.428432
      16A     -0.396231

  @DF-RHF Final Energy:  -208.04363627946037

   => Energetics <=

    Nuclear Repulsion Energy =            122.7697741119105075
    One-Electron Energy =                -526.3200126422768790
    Two-Electron Energy =                 195.5066022509059565
    DFT Exchange-Correlation Energy =       0.0000000000000000
    Empirical Dispersion Energy =           0.0000000000000000
    PCM Polarization Energy =               0.0000000000000000
    EFP Energy =                            0.0000000000000000
    Total Energy =                       -208.0436362794604008
    Molecular point group: c1
  Basis Set: CC-PVTZ
  Basis Set:

  -Total Gradient:
     Atom            X                  Y                   Z
    ------   -----------------  -----------------  -----------------
       1       -0.000004961786    -0.000003769941     0.000004963113
       2        0.000046927808     0.000045263258    -0.000066678245
       3       -0.000046123406    -0.000046238071     0.000089818229
       4       -0.000000844130     0.000000427221    -0.000005678887
       5        0.000047917164     0.000051351477    -0.000061193879
       6       -0.000010506458    -0.000015637576     0.000012558485
       7       -0.000048826676    -0.000044550711     0.000031761468
       8       -0.000000550192    -0.000002827500    -0.000021901064
       9        0.000016967676     0.000015981842     0.000016350779

  **** Optimization is complete! (in 8 steps) ****
    Final optimized geometry and variables:
    Molecular point group: c1

    Geometry (in Angstrom), charge = 0, multiplicity = 1:

    H            1.264507169613    -1.450834365889    -0.057434358214
    C            0.415813320588    -0.775574468227    -0.182094753495
    N            0.569116236296     0.372325512140     0.498334909465
    O           -0.518426699011    -1.057758487931    -0.863284067116
    C           -0.435253098679     1.411303086776     0.531336977077
    H            1.363909926803     0.454967181664     1.082574658258
    H           -1.020124608153     1.360152428193    -0.372418117596
    H            0.045204119734     2.378548870066     0.586586192845
    H           -1.101722904834     1.301827855957     1.379229131308

  Mulliken Charges: (a.u.)
   Center  Symbol    Alpha    Beta     Spin     Total
       1     H     0.46337  0.46337  0.00000  0.07327
       2     C     2.88088  2.88088  0.00000  0.23824
       3     N     3.60711  3.60711  0.00000 -0.21422
       4     O     4.21445  4.21445  0.00000 -0.42891
       5     C     3.07924  3.07924  0.00000 -0.15847
       6     H     0.41002  0.41002  0.00000  0.17996
       7     H     0.43567  0.43567  0.00000  0.12865
       8     H     0.45391  0.45391  0.00000  0.09218
       9     H     0.45536  0.45536  0.00000  0.08929

   Total alpha = 16.00000, Total beta = 16.00000, Total charge =  0.00000

*** Psi4 exiting successfully. Buy a developer a beer!
