  ==> Input File <==

--------------------------------------------------------------------------
set {
	reference rhf
	basis cc-pvtz
}

set_num_threads( 4 )
memory 2 gb

molecule MOL {
0 1

H	 3.889604	 0.356866	 -0.089510
N	 3.091268	 -0.241216	 -0.065538
C	 1.860978	 0.530248	 0.016256
H	 3.192566	 -0.835836	 0.730398
C	 0.644130	 -0.381765	 -0.031064
H	 1.835721	 1.204666	 -0.833114
H	 1.808789	 1.151975	 0.911067
C	 -0.678115	 0.376691	 0.025731
H	 0.693998	 -0.977147	 -0.936845
H	 0.693309	 -1.082142	 0.800523
C	 -1.607894	 -0.111595	 1.133111
H	 -1.186119	 0.285783	 -0.931673
H	 -0.483112	 1.437415	 0.166130
C	 -2.931184	 0.644805	 1.182467
H	 -1.803579	 -1.171269	 0.994943
H	 -1.104041	 -0.018253	 2.091334
H	 -3.475849	 0.541886	 0.249735
H	 -3.566651	 0.273758	 1.978401
H	 -2.770676	 1.704064	 1.354353

	symmetry c1
}
set optking {
	frozen_dihedral = ("
		12 8 5 9
	")
}

ee = optimize('scf')
oeprop('DIPOLE', 'QUADRUPOLE', 'MULLIKEN_CHARGES')
f=open( 'psi4out.xyz', 'w' )
f.write( "19  " )
f.write( str(ee) + "\n" )
f.write( MOL.save_string_xyz() )
f.close()
--------------------------------------------------------------------------

    Molecular point group: c1
  Charge       = 0
  Multiplicity = 1
  Basis Set: CC-PVTZ
  Basis Set:
  @DF-RHF Final Energy:  -251.44309960338654
    Total Energy =                       -251.4430996033863721
    Molecular point group: c1
  Basis Set: CC-PVTZ
  Basis Set:
  Basis Set: CC-PVTZ
  Basis Set:
  @DF-RHF Final Energy:  -251.44330535187945
    Total Energy =                       -251.4433053518795305
  Basis Set: CC-PVTZ
  Basis Set:
  Basis Set: CC-PVTZ
  Basis Set:
  @DF-RHF Final Energy:  -251.44335748817844
    Total Energy =                       -251.4433574881786058
  Basis Set: CC-PVTZ
  Basis Set:
  Charge       = 0
  Multiplicity = 1
  Basis Set: CC-PVTZ
  Basis Set:

    Orbital Energies (a.u.)
    -----------------------

    Doubly Occupied:

       1A    -15.526425     2A    -11.238433     3A    -11.212788
       4A    -11.210419     5A    -11.207457     6A    -11.205666
       7A     -1.178395     8A     -1.072818     9A     -0.998555
      10A     -0.901011    11A     -0.816107    12A     -0.789287
      13A     -0.663198    14A     -0.640877    15A     -0.617507
      16A     -0.594902    17A     -0.563109    18A     -0.549012
      19A     -0.535943    20A     -0.490934    21A     -0.488811
      22A     -0.465626    23A     -0.456586    24A     -0.448695
      25A     -0.383974

  @DF-RHF Final Energy:  -251.44335797358900

   => Energetics <=

    Nuclear Repulsion Energy =            246.5895205034440778
    One-Electron Energy =                -827.5526879785668370
    Two-Electron Energy =                 329.5198095015333593
    DFT Exchange-Correlation Energy =       0.0000000000000000
    Empirical Dispersion Energy =           0.0000000000000000
    PCM Polarization Energy =               0.0000000000000000
    EFP Energy =                            0.0000000000000000
    Total Energy =                       -251.4433579735894000
    Molecular point group: c1
  Basis Set: CC-PVTZ
  Basis Set:

  -Total Gradient:
     Atom            X                  Y                   Z
    ------   -----------------  -----------------  -----------------
       1        0.000035452489    -0.000007169440     0.000003026125
       2        0.000066348204    -0.000015757209    -0.000009001657
       3       -0.000069617755    -0.000025890996    -0.000001770431
       4        0.000009129874    -0.000000251235     0.000006356296
       5       -0.000976235550    -0.001691093358     0.000958837700
       6       -0.000003222320    -0.000001211339     0.000006470823
       7       -0.000011058838     0.000010557656    -0.000004588376
       8        0.000983868961     0.001752522273    -0.000722376234
       9        0.000650181904     0.001160816639    -0.000717304488
      10       -0.000003688776    -0.000003538060    -0.000000783768
      11        0.000017137789     0.000052681144     0.000003108380
      12       -0.000688455519    -0.001220811296     0.000477949828
      13        0.000013237449     0.000002036689     0.000008817086
      14       -0.000027238433    -0.000013305538    -0.000014898116
      15        0.000012759518    -0.000004403266     0.000008253846
      16        0.000004114937     0.000008457375    -0.000000672620
      17       -0.000005713070     0.000010432027     0.000000058069
      18       -0.000009520964    -0.000004150535    -0.000002629820
      19        0.000002520102    -0.000009921530     0.000001147357

  **** Optimization is complete! (in 4 steps) ****
    Final optimized geometry and variables:
    Molecular point group: c1

    Geometry (in Angstrom), charge = 0, multiplicity = 1:

    H            3.801815647587     0.218892607745    -0.500718748757
    N            3.004636664182    -0.380551904989    -0.471838574114
    C            1.774094973416     0.385879791945    -0.368519936814
    H            3.117087844132    -0.983309597212     0.316490544153
    C            0.556677689909    -0.528394647063    -0.402780416132
    H            1.733107970176     1.065532970067    -1.213352650774
    H            1.730275187132     1.002792019988     0.530609672979
    C           -0.776468697625     0.240508774118    -0.344546266405
    H            0.616245526884    -1.124439059071    -1.305321098234
    H            0.619964231067    -1.222720868163     0.430940947069
    C           -1.719315804592    -0.248383540797     0.753371105590
    H           -1.288156576867     0.157367767431    -1.298034772996
    H           -0.586110397697     1.299634347516    -0.193724935513
    C           -3.043616269032     0.506042492348     0.788361194793
    H           -1.911381766047    -1.308678459475     0.612871067017
    H           -1.224432541137    -0.154863093897     1.716619783290
    H           -3.578221369600     0.401650032467    -0.150010183160
    H           -3.687098034986     0.135225898727     1.578033523934
    H           -2.885984771131     1.565739096559     0.960539426965

  Mulliken Charges: (a.u.)
   Center  Symbol    Alpha    Beta     Spin     Total
       1     H     0.43013  0.43013  0.00000  0.13974
       2     N     3.68995  3.68995  0.00000 -0.37990
       3     C     3.02429  3.02429  0.00000 -0.04858
       4     H     0.43078  0.43078  0.00000  0.13845
       5     C     3.08725  3.08725  0.00000 -0.17450
       6     H     0.45603  0.45603  0.00000  0.08794
       7     H     0.46908  0.46908  0.00000  0.06184
       8     C     3.09947  3.09947  0.00000 -0.19893
       9     H     0.44569  0.44569  0.00000  0.10861
      10     H     0.45962  0.45962  0.00000  0.08075
      11     C     3.08324  3.08324  0.00000 -0.16648
      12     H     0.44970  0.44970  0.00000  0.10059
      13     H     0.45649  0.45649  0.00000  0.08702
      14     C     3.15005  3.15005  0.00000 -0.30010
      15     H     0.45326  0.45326  0.00000  0.09347
      16     H     0.45572  0.45572  0.00000  0.08856
      17     H     0.45498  0.45498  0.00000  0.09004
      18     H     0.44880  0.44880  0.00000  0.10241
      19     H     0.45546  0.45546  0.00000  0.08908

   Total alpha = 25.00000, Total beta = 25.00000, Total charge = -0.00000
