                              Psi4 1.0.54 Driver

  ==> Input File <==

--------------------------------------------------------------------------
set {
	reference rhf
	basis cc-pvtz
}

set_num_threads( 4 )
memory 2 gb

molecule MOL {
0 1

O	 1.654195	 0.574268	 -0.956836
C	 1.121787	 0.124983	 0.000110
C	 -0.170912	 -0.649867	 -0.000147
O	 1.607318	 0.249379	 1.224513
C	 -1.413045	 0.229353	 0.001137
H	 -0.152877	 -1.303435	 -0.866175
H	 -0.152278	 -1.305116	 0.864586
C	 -2.702562	 -0.586401	 0.000228
H	 -1.390744	 0.882001	 -0.864365
H	 -1.390549	 0.879837	 0.868264
C	 -3.953810	 0.284959	 -0.000782
H	 -2.717793	 -1.238567	 -0.869075
H	 -2.719108	 -1.238472	 0.869576
H	 -3.983727	 0.924403	 -0.876454
H	 -4.852989	 -0.320147	 -0.001515
H	 -3.985140	 0.924399	 0.874841
C	 2.821635	 0.957142	 1.372242
H	 3.613761	 0.475085	 0.818721
H	 3.045306	 0.947590	 2.426636
H	 2.715608	 1.973453	 1.022823

	symmetry c1
}
set optking {
	frozen_dihedral = ("
		1 2 3 6
	")
}

ee,wfn = optimize('scf', return_wfn=True)
oeprop( wfn, 'DIPOLE', 'QUADRUPOLE', 'MULLIKEN_CHARGES')
f=open( 'psi4out.xyz', 'w' )
f.write( "20  " )
f.write( str(ee) + "\n" )
f.write( MOL.save_string_xyz() )
f.close()
--------------------------------------------------------------------------

    Molecular point group: c1
  Charge       = 0
  Multiplicity = 1
  Basis Set: CC-PVTZ
  Basis Set:
  @DF-RHF Final Energy:  -384.08123323579258
    Total Energy =                       -384.0812332357925243
    Molecular point group: c1
  Basis Set: CC-PVTZ
  Basis Set:
  Basis Set: CC-PVTZ
  Basis Set:
  @DF-RHF Final Energy:  -384.08125093663045
    Total Energy =                       -384.0812509366306813
  Basis Set: CC-PVTZ
  Basis Set:
  Basis Set: CC-PVTZ
  Basis Set:
  @DF-RHF Final Energy:  -384.08188663611213
    Total Energy =                       -384.0818866361121309
  Basis Set: CC-PVTZ
  Basis Set:
  Basis Set: CC-PVTZ
  Basis Set:
  @DF-RHF Final Energy:  -384.08200141276592
    Total Energy =                       -384.0820014127662034
  Basis Set: CC-PVTZ
  Basis Set:
  Basis Set: CC-PVTZ
  Basis Set:
  @DF-RHF Final Energy:  -384.08200764886834
    Total Energy =                       -384.0820076488685118
  Basis Set: CC-PVTZ
  Basis Set:
  Basis Set: CC-PVTZ
  Basis Set:
  @DF-RHF Final Energy:  -384.08200945352559
    Total Energy =                       -384.0820094535255294
  Basis Set: CC-PVTZ
  Basis Set:
  Charge       = 0
  Multiplicity = 1
  Basis Set: CC-PVTZ
  Basis Set:

    Orbital Energies (a.u.)
    -----------------------

    Doubly Occupied:

       1A    -20.598060     2A    -20.531356     3A    -11.363423
       4A    -11.278417     5A    -11.231962     6A    -11.227164
       7A    -11.221882     8A    -11.212019     9A     -1.472007
      10A     -1.364273    11A     -1.093376    12A     -1.025882
      13A     -0.969359    14A     -0.889658    15A     -0.807059
      16A     -0.775324    17A     -0.696821    18A     -0.683136
      19A     -0.676302    20A     -0.648661    21A     -0.599855
      22A     -0.593266    23A     -0.574911    24A     -0.554892
      25A     -0.535483    26A     -0.522673    27A     -0.509646
      28A     -0.483060    29A     -0.479578    30A     -0.476159
      31A     -0.457382    32A     -0.433734

  @DF-RHF Final Energy:  -384.08200955126563

   => Energetics <=

    Nuclear Repulsion Energy =            383.3488667302847261
    One-Electron Energy =               -1282.8881930513807674
    Two-Electron Energy =                 515.4573167698301859
    DFT Exchange-Correlation Energy =       0.0000000000000000
    Empirical Dispersion Energy =           0.0000000000000000
    PCM Polarization Energy =               0.0000000000000000
    EFP Energy =                            0.0000000000000000
    Total Energy =                       -384.0820095512658554
    Molecular point group: c1
  Basis Set: CC-PVTZ
  Basis Set:

  -Total Gradient:
     Atom            X                  Y                   Z
    ------   -----------------  -----------------  -----------------
       1       -0.000209226489     0.000318237529     0.000098955645
       2        0.000333841925    -0.000513728394    -0.000123811435
       3       -0.000286153744     0.000442685708    -0.000173966665
       4        0.000010630263     0.000022978855     0.000021267607
       5       -0.000009057839     0.000013216962    -0.000002701293
       6        0.000164331205    -0.000261719654     0.000189819467
       7       -0.000003221960    -0.000000808036    -0.000008863005
       8        0.000008161758    -0.000002640496     0.000010529789
       9        0.000000846003     0.000003852340     0.000000186656
      10        0.000000999955    -0.000006507861    -0.000001422126
      11       -0.000001498222     0.000001101551    -0.000008462826
      12        0.000000255055    -0.000000198825     0.000004737802
      13        0.000000132329     0.000000667172    -0.000000559494
      14       -0.000001479636     0.000002399413     0.000001296673
      15       -0.000001458330     0.000002418662    -0.000001655774
      16        0.000000730032    -0.000004883432    -0.000001887488
      17       -0.000007374700    -0.000026393552    -0.000000160443
      18        0.000002506981     0.000008250744     0.000002622788
      19       -0.000001433268     0.000002624680    -0.000005028955
      20       -0.000001531311    -0.000001553366    -0.000000896922

  **** Optimization is complete! (in 7 steps) ****
    Final optimized geometry and variables:
    Molecular point group: c1

    Geometry (in Angstrom), charge = 0, multiplicity = 1:

    O            1.680034438318     0.434048155483    -1.170559081630
    C            1.211746923341    -0.062268324438    -0.202266409770
    C           -0.056624471292    -0.874959241556    -0.193978232797
    O            1.735498052065     0.069854308413     1.004528659045
    C           -1.289729765727     0.035071515043    -0.194904952219
    H           -0.051041837072    -1.489956315496    -1.084249294516
    H           -0.067003637220    -1.519962756881     0.673995811932
    C           -2.595659280534    -0.753054048764    -0.218059334074
    H           -1.242310866627     0.690845580294    -1.057413932601
    H           -1.266837717516     0.670580711682     0.685674509943
    C           -3.828375237086     0.144387650312    -0.222098752704
    H           -2.611672453326    -1.392738918009    -1.095861329193
    H           -2.632732155180    -1.413967697896     0.643346919653
    H           -3.835669398132     0.794649698920    -1.090183111070
    H           -4.739076204311    -0.442692921008    -0.240585134048
    H           -3.857708307073     0.772996764900     0.661526843794
    C            2.905539401131     0.854722301740     1.119796115139
    H            3.704658991616     0.435605003274     0.526764764055
    H            3.170601062761     0.842267884501     2.164526589971
    H            2.718678108837     1.867147248268     0.793864034746

  Mulliken Charges: (a.u.)
   Center  Symbol    Alpha    Beta     Spin     Total
       1     O     4.20528  4.20528  0.00000 -0.41057
       2     C     2.80748  2.80748  0.00000  0.38504
       3     C     3.07732  3.07732  0.00000 -0.15464
       4     O     4.14847  4.14847  0.00000 -0.29694
       5     C     3.09655  3.09655  0.00000 -0.19310
       6     H     0.44103  0.44103  0.00000  0.11794
       7     H     0.44294  0.44294  0.00000  0.11412
       8     C     3.08873  3.08873  0.00000 -0.17745
       9     H     0.44216  0.44216  0.00000  0.11569
      10     H     0.44966  0.44966  0.00000  0.10068
      11     C     3.14936  3.14936  0.00000 -0.29872
      12     H     0.45253  0.45253  0.00000  0.09494
      13     H     0.45362  0.45362  0.00000  0.09276
      14     H     0.45324  0.45324  0.00000  0.09352
      15     H     0.44750  0.44750  0.00000  0.10499
      16     H     0.45454  0.45454  0.00000  0.09092
      17     C     3.03637  3.03637  0.00000 -0.07275
      18     H     0.45342  0.45342  0.00000  0.09316
      19     H     0.44546  0.44546  0.00000  0.10909
      20     H     0.45434  0.45434  0.00000  0.09132

   Total alpha = 32.00000, Total beta = 32.00000, Total charge = -0.00000

*** Psi4 exiting successfully. Buy a developer a beer!
