  ==> Input File <==

--------------------------------------------------------------------------
set {
	reference rhf
	basis 6-31G*
}

set_num_threads( 1 )
memory 2 gb

molecule MOL {
0 1

H	 -1.568888	 0.609285	 2.933374
C	 -2.160176	 -0.015864	 2.252794
C	 -2.473526	 0.613779	 0.919388
O	 -2.505356	 -1.102282	 2.587902
C	 -1.220012	 1.144545	 0.209990
H	 -2.997045	 -0.115006	 0.311514
H	 -3.155344	 1.441910	 1.109065
C	 -0.252658	 0.041456	 -0.226725
H	 -1.532576	 1.715253	 -0.659424
H	 -0.705033	 1.846829	 0.863710
C	 1.180775	 0.282413	 0.250794
H	 -0.266029	 -0.034465	 -1.312038
H	 -0.597733	 -0.921000	 0.146291
C	 2.148627	 -0.814315	 -0.201312
H	 1.516199	 1.249228	 -0.115937
H	 1.192670	 0.346017	 1.338083
C	 3.580890	 -0.659131	 0.322722
H	 2.166869	 -0.852443	 -1.289387
H	 1.762857	 -1.776509	 0.128956
C	 4.324889	 0.564933	 -0.213704
H	 4.142010	 -1.551473	 0.056605
H	 3.564836	 -0.624694	 1.410140
H	 4.342616	 0.565491	 -1.300421
H	 3.866655	 1.493402	 0.110242
H	 5.353900	 0.572371	 0.132816

	symmetry c1
}
set optking {
	frozen_dihedral = ("
		6 3 5 8,
		6 3 2 4,
		12 8 11 14,
		8 11 14 18,
		20 17 14 18
	")
}

ee = energy('scf')
oeprop('DIPOLE', 'QUADRUPOLE', 'MULLIKEN_CHARGES')
f=open( 'psi4out.xyz', 'w' )
f.write( "25  " )
f.write( str(ee) + "\n" )
f.write( MOL.save_string_xyz() )
f.close()
--------------------------------------------------------------------------

    Molecular point group: c1

    Geometry (in Angstrom), charge = 0, multiplicity = 1:

       Center              X                  Y                   Z               Mass
    ------------   -----------------  -----------------  -----------------  -----------------
           H         -1.870889093775     0.607270472587     2.269509023345     1.007825032070
           C         -2.462177093775    -0.017878527413     1.588929023345    12.000000000000
           C         -2.775527093775     0.611764472587     0.255523023345    12.000000000000
           O         -2.807357093775    -1.104296527413     1.924037023345    15.994914619560
           C         -1.522013093775     1.142530472587    -0.453874976655    12.000000000000
           H         -3.299046093775    -0.117020527413    -0.352350976655     1.007825032070
           H         -3.457345093775     1.439895472587     0.445200023345     1.007825032070
           C         -0.554659093775     0.039441472587    -0.890589976655    12.000000000000
           H         -1.834577093775     1.713238472587    -1.323288976655     1.007825032070
           H         -1.007034093775     1.844814472587     0.199845023345     1.007825032070
           C          0.878773906225     0.280398472587    -0.413070976655    12.000000000000
           H         -0.568030093775    -0.036479527413    -1.975902976655     1.007825032070
           H         -0.899734093775    -0.923014527413    -0.517573976655     1.007825032070
           C          1.846625906225    -0.816329527413    -0.865176976655    12.000000000000
           H          1.214197906225     1.247213472587    -0.779801976655     1.007825032070
           H          0.890668906225     0.344002472587     0.674218023345     1.007825032070
           C          3.278888906225    -0.661145527413    -0.341142976655    12.000000000000
           H          1.864867906225    -0.854457527413    -1.953251976655     1.007825032070
           H          1.460855906225    -1.778523527413    -0.534908976655     1.007825032070
           C          4.022887906225     0.562918472587    -0.877568976655    12.000000000000
           H          3.840008906225    -1.553487527413    -0.607259976655     1.007825032070
           H          3.262834906225    -0.626708527413     0.746275023345     1.007825032070
           H          4.040614906225     0.563476472587    -1.964285976655     1.007825032070
           H          3.564653906225     1.491387472587    -0.553622976655     1.007825032070
           H          5.051898906225     0.570356472587    -0.531048976655     1.007825032070

  Charge       = 0
  Multiplicity = 1
  Basis Set: 6-31G*
  Basis Set:

    Orbital Energies (a.u.)
    -----------------------

    Doubly Occupied:

       1A    -20.563189     2A    -11.326695     3A    -11.234926
       4A    -11.233369     5A    -11.221675     6A    -11.219904
       7A    -11.217143     8A    -11.215910     9A    -11.210202
      10A     -1.403013    11A     -1.104012    12A     -1.068927
      13A     -1.012350    14A     -0.942448    15A     -0.876226
      16A     -0.818215    17A     -0.789927    18A     -0.780307
      19A     -0.664529    20A     -0.657700    21A     -0.639663
      22A     -0.620877    23A     -0.611876    24A     -0.583059
      25A     -0.572839    26A     -0.559324    27A     -0.531893
      28A     -0.522907    29A     -0.509858    30A     -0.500175
      31A     -0.486669    32A     -0.475550    33A     -0.462839
      34A     -0.458204    35A     -0.440675    36A     -0.409931

  @DF-RHF Final Energy:  -387.11671083354054

   => Energetics <=

    Nuclear Repulsion Energy =            445.0023689681243013
    One-Electron Energy =               -1406.3441588239049906
    Two-Electron Energy =                 574.2250790222416299
    DFT Exchange-Correlation Energy =       0.0000000000000000
    Empirical Dispersion Energy =           0.0000000000000000
    PCM Polarization Energy =               0.0000000000000000
    EFP Energy =                            0.0000000000000000
    Total Energy =                       -387.1167108335390594

  Mulliken Charges: (a.u.)
   Center  Symbol    Alpha    Beta     Spin     Total
       1     H     0.43233  0.43233  0.00000  0.13535
       2     C     2.83018  2.83018  0.00000  0.33964
       3     C     3.20930  3.20930  0.00000 -0.41859
       4     O     4.23804  4.23804  0.00000 -0.47607
       5     C     3.16801  3.16801  0.00000 -0.33603
       6     H     0.39955  0.39955  0.00000  0.20091
       7     H     0.40799  0.40799  0.00000  0.18402
       8     C     3.16110  3.16110  0.00000 -0.32221
       9     H     0.41057  0.41057  0.00000  0.17886
      10     H     0.41699  0.41699  0.00000  0.16603
      11     C     3.15659  3.15659  0.00000 -0.31318
      12     H     0.41668  0.41668  0.00000  0.16663
      13     H     0.41245  0.41245  0.00000  0.17509
      14     C     3.15379  3.15379  0.00000 -0.30758
      15     H     0.42041  0.42041  0.00000  0.15919
      16     H     0.42437  0.42437  0.00000  0.15127
      17     C     3.15277  3.15277  0.00000 -0.30554
      18     H     0.42382  0.42382  0.00000  0.15236
      19     H     0.41929  0.41929  0.00000  0.16143
      20     C     3.24122  3.24122  0.00000 -0.48244
      21     H     0.42002  0.42002  0.00000  0.15996
      22     H     0.42270  0.42270  0.00000  0.15461
      23     H     0.42222  0.42222  0.00000  0.15557
      24     H     0.42098  0.42098  0.00000  0.15805
      25     H     0.41865  0.41865  0.00000  0.16269

   Total alpha = 36.00000, Total beta = 36.00000, Total charge =  0.00000
