  ==> Input File <==

--------------------------------------------------------------------------
set {
	reference rhf
	basis cc-pvtz
}

set_num_threads( 4 )
memory 2 gb

molecule MOL {
0 1

H	 3.131213	 0.049120	 -0.663278
N	 2.433987	 -0.362316	 -0.080024
C	 1.263552	 0.494993	 0.021953
H	 2.848480	 -0.507683	 0.816859
C	 -0.016533	 -0.325589	 -0.026925
H	 1.280915	 1.180773	 -0.818522
H	 1.263064	 1.106893	 0.925038
C	 -1.280353	 0.525521	 0.047747
H	 -0.016686	 -0.912532	 -0.939714
H	 -0.014099	 -1.037598	 0.796369
C	 -2.560681	 -0.301323	 -0.007747
H	 -1.279957	 1.241025	 -0.770189
H	 -1.270445	 1.110526	 0.963468
H	 -2.617064	 -0.872870	 -0.928010
H	 -3.439525	 0.331102	 0.043462
H	 -2.609427	 -1.002736	 0.818585

	symmetry c1
}
set optking {
	frozen_dihedral = ("
		1 2 3 6
	")
}

ee = optimize('scf')
oeprop('DIPOLE', 'QUADRUPOLE', 'MULLIKEN_CHARGES')
f=open( 'psi4out.xyz', 'w' )
f.write( "16  " )
f.write( str(ee) + "\n" )
f.write( MOL.save_string_xyz() )
f.close()
--------------------------------------------------------------------------

    Molecular point group: c1
  Charge       = 0
  Multiplicity = 1
  Basis Set: CC-PVTZ
  Basis Set:
  @DF-RHF Final Energy:  -212.39795691313620
    Total Energy =                       -212.3979569131361131
    Molecular point group: c1
  Basis Set: CC-PVTZ
  Basis Set:
  Basis Set: CC-PVTZ
  Basis Set:
  @DF-RHF Final Energy:  -212.39824798993260
    Total Energy =                       -212.3982479899328268
  Basis Set: CC-PVTZ
  Basis Set:
  Basis Set: CC-PVTZ
  Basis Set:
  @DF-RHF Final Energy:  -212.39832928724769
    Total Energy =                       -212.3983292872476909
  Basis Set: CC-PVTZ
  Basis Set:
  Basis Set: CC-PVTZ
  Basis Set:
  @DF-RHF Final Energy:  -212.39833283955406
    Total Energy =                       -212.3983328395541434
  Basis Set: CC-PVTZ
  Basis Set:
  Charge       = 0
  Multiplicity = 1
  Basis Set: CC-PVTZ
  Basis Set:

    Orbital Energies (a.u.)
    -----------------------

    Doubly Occupied:

       1A    -15.524698     2A    -11.238656     3A    -11.210625
       4A    -11.204154     5A    -11.202917     6A     -1.175302
       7A     -1.058748     8A     -0.958859     9A     -0.843222
      10A     -0.788439    11A     -0.676079    12A     -0.626585
      13A     -0.610413    14A     -0.578285    15A     -0.554604
      16A     -0.531646    17A     -0.490678    18A     -0.474244
      19A     -0.466253    20A     -0.459529    21A     -0.378817

  @DF-RHF Final Energy:  -212.39833323021017

   => Energetics <=

    Nuclear Repulsion Energy =            186.2009321010322935
    One-Electron Energy =                -655.0930273209011148
    Two-Electron Energy =                 256.4937619896587648
    DFT Exchange-Correlation Energy =       0.0000000000000000
    Empirical Dispersion Energy =           0.0000000000000000
    PCM Polarization Energy =               0.0000000000000000
    EFP Energy =                            0.0000000000000000
    Total Energy =                       -212.3983332302100280
    Molecular point group: c1
  Basis Set: CC-PVTZ
  Basis Set:

  -Total Gradient:
     Atom            X                  Y                   Z
    ------   -----------------  -----------------  -----------------
       1       -0.000917257144    -0.001086443186    -0.001930544557
       2        0.001451466843     0.001667985431     0.002702865702
       3       -0.001610285993    -0.002017090651    -0.001990466477
       4       -0.000012453384    -0.000006189364     0.000001913376
       5        0.000046242991     0.000035295499     0.000026345759
       6        0.001076479680     0.001417460420     0.001188734540
       7       -0.000008489953    -0.000000472282     0.000010773120
       8       -0.000007951451    -0.000018228923    -0.000013861186
       9       -0.000002955125     0.000003430922     0.000008777901
      10        0.000006792666     0.000002255442    -0.000000277195
      11       -0.000022455098     0.000014740724    -0.000001563992
      12        0.000001670591     0.000001120681     0.000004044134
      13        0.000001895189    -0.000011393630    -0.000003723278
      14        0.000000947982     0.000000415353    -0.000001468171
      15       -0.000006566607    -0.000005855697    -0.000002054546
      16        0.000002918811     0.000002969263     0.000000504870

  **** Optimization is complete! (in 5 steps) ****
    Final optimized geometry and variables:
    Molecular point group: c1

    Geometry (in Angstrom), charge = 0, multiplicity = 1:

    H            3.160429489884     0.053463970872    -0.620556366562
    N            2.444340757169    -0.353737219996    -0.062449611067
    C            1.257896549461     0.488958285259     0.011723644197
    H            2.821585459603    -0.559967659730     0.835655203170
    C           -0.023002512463    -0.332475505997    -0.028996113139
    H            1.274891524649     1.184673630406    -0.820530642003
    H            1.258040857170     1.106196389216     0.909183269002
    C           -1.287016047405     0.517359680668     0.053208663176
    H           -0.027369092377    -0.920398986247    -0.941350213973
    H           -0.008239006622    -1.045193592335     0.792025325398
    C           -2.567444480997    -0.310041484762     0.007843313409
    H           -1.294055923365     1.233184103501    -0.764956941307
    H           -1.271423277577     1.103435326281     0.968513696071
    H           -2.630762430719    -0.881219746005    -0.912234644917
    H           -3.446777865271     0.321239807989     0.066759700558
    H           -2.608116951958    -1.012180292659     0.833913287488

  Mulliken Charges: (a.u.)
   Center  Symbol    Alpha    Beta     Spin     Total
       1     H     0.42463  0.42463  0.00000  0.15073
       2     N     3.69773  3.69773  0.00000 -0.39546
       3     C     3.04081  3.04081  0.00000 -0.08161
       4     H     0.42767  0.42767  0.00000  0.14466
       5     C     3.06453  3.06453  0.00000 -0.12906
       6     H     0.45658  0.45658  0.00000  0.08684
       7     H     0.46277  0.46277  0.00000  0.07446
       8     C     3.09078  3.09078  0.00000 -0.18156
       9     H     0.45389  0.45389  0.00000  0.09221
      10     H     0.45946  0.45946  0.00000  0.08108
      11     C     3.14912  3.14912  0.00000 -0.29824
      12     H     0.45640  0.45640  0.00000  0.08720
      13     H     0.45682  0.45682  0.00000  0.08635
      14     H     0.45446  0.45446  0.00000  0.09109
      15     H     0.44923  0.44923  0.00000  0.10153
      16     H     0.45511  0.45511  0.00000  0.08977

   Total alpha = 21.00000, Total beta = 21.00000, Total charge = -0.00000
