                              Psi4 1.0.54 Driver

  ==> Input File <==

--------------------------------------------------------------------------
set {
	reference rhf
	basis cc-pvtz
}

set_num_threads( 4 )
memory 2 gb

molecule MOL {
0 1

H	 -1.743282	 1.148255	 -0.171433
N	 -1.851927	 0.161443	 -0.071573
C	 -0.561396	 -0.500007	 0.035200
H	 -2.353296	 -0.162360	 -0.872270
C	 0.575129	 0.507849	 -0.048832
H	 -0.478089	 -1.200753	 -0.788956
H	 -0.456191	 -1.081816	 0.952176
C	 1.951750	 -0.141983	 0.035101
H	 0.478254	 1.061643	 -0.975981
H	 0.467676	 1.231891	 0.755499
H	 2.101550	 -0.848142	 -0.774949
H	 2.738260	 0.600794	 -0.026526
H	 2.078939	 -0.679792	 0.968824

	symmetry c1
}
set optking {
	frozen_dihedral = ("
		1 2 3 6
	")
}

ee,wfn = optimize('scf', return_wfn=True)
oeprop( wfn, 'DIPOLE', 'QUADRUPOLE', 'MULLIKEN_CHARGES')
f=open( 'psi4out.xyz', 'w' )
f.write( "13  " )
f.write( str(ee) + "\n" )
f.write( MOL.save_string_xyz() )
f.close()
--------------------------------------------------------------------------

    Molecular point group: c1
  Charge       = 0
  Multiplicity = 1
  Basis Set: CC-PVTZ
  Basis Set:
  @DF-RHF Final Energy:  -173.34766621307242
    Total Energy =                       -173.3476662130724435
    Molecular point group: c1
  Basis Set: CC-PVTZ
  Basis Set:
  Basis Set: CC-PVTZ
  Basis Set:
  @DF-RHF Final Energy:  -173.34864457419775
    Total Energy =                       -173.3486445741976638
  Basis Set: CC-PVTZ
  Basis Set:
  Basis Set: CC-PVTZ
  Basis Set:
  @DF-RHF Final Energy:  -173.34880743832028
    Total Energy =                       -173.3488074383204491
  Basis Set: CC-PVTZ
  Basis Set:
  Basis Set: CC-PVTZ
  Basis Set:
  @DF-RHF Final Energy:  -173.34881014535264
    Total Energy =                       -173.3488101453526156
  Basis Set: CC-PVTZ
  Basis Set:
  Charge       = 0
  Multiplicity = 1
  Basis Set: CC-PVTZ
  Basis Set:

    Orbital Energies (a.u.)
    -----------------------

    Doubly Occupied:

       1A    -15.523301     2A    -11.238135     3A    -11.216485
       4A    -11.210131     5A     -1.175373     6A     -1.038947
       7A     -0.900572     8A     -0.807458     9A     -0.662839
      10A     -0.627812    11A     -0.606161    12A     -0.554313
      13A     -0.546661    14A     -0.499090    15A     -0.482841
      16A     -0.471083    17A     -0.377886

  @DF-RHF Final Energy:  -173.34881054425111

   => Energetics <=

    Nuclear Repulsion Energy =            131.9461171967627990
    One-Electron Energy =                -494.7116821065342265
    Two-Electron Energy =                 189.4167543655204327
    DFT Exchange-Correlation Energy =       0.0000000000000000
    Empirical Dispersion Energy =           0.0000000000000000
    PCM Polarization Energy =               0.0000000000000000
    EFP Energy =                            0.0000000000000000
    Total Energy =                       -173.3488105442510232
    Molecular point group: c1
  Basis Set: CC-PVTZ
  Basis Set:

  -Total Gradient:
     Atom            X                  Y                   Z
    ------   -----------------  -----------------  -----------------
       1        0.000002178127     0.000036441035     0.000208595414
       2       -0.000068531967    -0.000050655728    -0.000206580862
       3        0.000156812385     0.000168885159    -0.000089405894
       4        0.000011765472     0.000000615208    -0.000025436441
       5       -0.000070332002    -0.000026872488    -0.000014628356
       6       -0.000084156306    -0.000133562422     0.000101446794
       7        0.000019597840     0.000008614276     0.000009208023
       8        0.000017202076     0.000002791729     0.000025882343
       9       -0.000013180176    -0.000003640547     0.000002868212
      10        0.000009131324    -0.000002601555    -0.000014161953
      11       -0.000010762007     0.000011232444     0.000004966334
      12        0.000024849886    -0.000005093344     0.000005230887
      13        0.000005425353    -0.000006153767    -0.000007984502

  **** Optimization is complete! (in 5 steps) ****
    Final optimized geometry and variables:
    Molecular point group: c1

    Geometry (in Angstrom), charge = 0, multiplicity = 1:

    H           -1.794842628988     1.138595920195    -0.171367836955
    N           -1.876207272087     0.149815508777    -0.078826000179
    C           -0.569384031165    -0.496197150041     0.001592330713
    H           -2.412233794207    -0.183005539427    -0.848625389947
    C            0.585083126873     0.496763501375    -0.018337463637
    H           -0.445741326645    -1.200647652948    -0.816077054573
    H           -0.514095453078    -1.077889828178     0.917297552945
    C            1.945652877879    -0.169344200094     0.151557134240
    H            0.561715833090     1.050318615231    -0.953316969005
    H            0.435681384911     1.222663384758     0.776900215708
    H            2.135685493937    -0.881268651083    -0.644730716571
    H            2.744081215123     0.563055597062     0.136570620240
    H            2.004948352313    -0.703802069404     1.093402230710

  Mulliken Charges: (a.u.)
   Center  Symbol    Alpha    Beta     Spin     Total
       1     H     0.42858  0.42858  0.00000  0.14285
       2     N     3.69642  3.69642  0.00000 -0.39285
       3     C     3.01289  3.01289  0.00000 -0.02577
       4     H     0.42730  0.42730  0.00000  0.14540
       5     C     3.08619  3.08619  0.00000 -0.17238
       6     H     0.46444  0.46444  0.00000  0.07111
       7     H     0.46409  0.46409  0.00000  0.07183
       8     C     3.15236  3.15236  0.00000 -0.30471
       9     H     0.45702  0.45702  0.00000  0.08595
      10     H     0.45344  0.45344  0.00000  0.09313
      11     H     0.45560  0.45560  0.00000  0.08880
      12     H     0.44793  0.44793  0.00000  0.10414
      13     H     0.45375  0.45375  0.00000  0.09249

   Total alpha = 17.00000, Total beta = 17.00000, Total charge = -0.00000

*** Psi4 exiting successfully. Buy a developer a beer!
