  ==> Input File <==

--------------------------------------------------------------------------
set {
	reference rhf
	basis 6-31G*
}

set_num_threads( 4 )
memory 2 gb

molecule MOL {
0 1

H	 -2.530207	 -0.613669	 -0.489175
N	 -1.797343	 0.069222	 -0.482161
C	 -0.563778	 -0.502042	 0.037919
H	 -2.108939	 0.822511	 0.101122
C	 0.575259	 0.508231	 -0.048326
H	 -0.319405	 -1.368839	 -0.568827
H	 -0.654636	 -0.856697	 1.067826
C	 1.954651	 -0.143624	 0.035137
H	 0.475158	 1.060484	 -0.977307
H	 0.469181	 1.234488	 0.755973
H	 2.103292	 -0.853109	 -0.774172
H	 2.742821	 0.599562	 -0.030094
H	 2.083613	 -0.679371	 0.971560

	symmetry c1
}
set optking {
	frozen_dihedral = ("
		6 3 5 9
	")
}

ee = optimize('scf')
oeprop('DIPOLE', 'QUADRUPOLE', 'MULLIKEN_CHARGES')
f=open( 'psi4out.xyz', 'w' )
f.write( "13  " )
f.write( str(ee) + "\n" )
f.write( MOL.save_string_xyz() )
f.close()
--------------------------------------------------------------------------

    Molecular point group: c1
  Charge       = 0
  Multiplicity = 1
  Basis Set: 6-31G*
  Basis Set:
  @DF-RHF Final Energy:  -173.28110217110407
    Total Energy =                       -173.2811021711040098
    Molecular point group: c1
  Basis Set: 6-31G*
  Basis Set:
  Basis Set: 6-31G*
  Basis Set:
  @DF-RHF Final Energy:  -173.28124718331776
    Total Energy =                       -173.2812471833177312
  Basis Set: 6-31G*
  Basis Set:
  Basis Set: 6-31G*
  Basis Set:
  @DF-RHF Final Energy:  -173.28128594291582
    Total Energy =                       -173.2812859429157584
  Basis Set: 6-31G*
  Basis Set:
  Charge       = 0
  Multiplicity = 1
  Basis Set: 6-31G*
  Basis Set:

    Orbital Energies (a.u.)
    -----------------------

    Doubly Occupied:

       1A    -15.533355     2A    -11.240015     3A    -11.211889
       4A    -11.209455     5A     -1.177183     6A     -1.034930
       7A     -0.898671     8A     -0.800581     9A     -0.656624
      10A     -0.635952    11A     -0.600057    12A     -0.565778
      13A     -0.532089    14A     -0.492006    15A     -0.475488
      16A     -0.468252    17A     -0.381447

  @DF-RHF Final Energy:  -173.28128671673292

   => Energetics <=

    Nuclear Repulsion Energy =            131.7272647575466351
    One-Electron Energy =                -494.1895604804540767
    Two-Electron Energy =                 189.1810090061744631
    DFT Exchange-Correlation Energy =       0.0000000000000000
    Empirical Dispersion Energy =           0.0000000000000000
    PCM Polarization Energy =               0.0000000000000000
    EFP Energy =                            0.0000000000000000
    Total Energy =                       -173.2812867167330069
    Molecular point group: c1
  Basis Set: 6-31G*
  Basis Set:

  -Total Gradient:
     Atom            X                  Y                   Z
    ------   -----------------  -----------------  -----------------
       1       -0.000007436949    -0.000027196902    -0.000004465835
       2        0.000000570129     0.000038894689    -0.000054602498
       3       -0.002339914777     0.002456645835    -0.003040477783
       4        0.000008954259     0.000001603631     0.000020016631
       5        0.002836194357    -0.003383956808    -0.001381230548
       6        0.001558704464    -0.001512743289     0.002816148687
       7       -0.000004362502    -0.000020580949     0.000028397242
       8       -0.000010712179    -0.000016599544    -0.000010126122
       9       -0.001998325157     0.002435371116     0.001628660203
      10       -0.000012728759     0.000001546086     0.000004218404
      11        0.000009531172     0.000012905173    -0.000003427803
      12       -0.000013807909     0.000011906567     0.000010574419
      13       -0.000026666152     0.000002204397    -0.000013684998

  **** Optimization is complete! (in 4 steps) ****
    Final optimized geometry and variables:
    Molecular point group: c1

    Geometry (in Angstrom), charge = 0, multiplicity = 1:

    H           -2.560163837920    -0.582050891734    -0.317450847654
    N           -1.820281038058     0.092297457831    -0.357132136689
    C           -0.575087413320    -0.482097212016     0.128551286243
    H           -2.099874807322     0.861092437858     0.222632194628
    C            0.568187378561     0.526704060140     0.039053600685
    H           -0.338092697849    -1.354272512750    -0.473629208921
    H           -0.643617162293    -0.844823439422     1.157924078827
    C            1.947667447755    -0.116638262370     0.157372806261
    H            0.470105073263     1.076411259185    -0.891847689094
    H            0.448038692356     1.264977109731     0.831133408559
    H            2.129579565353    -0.806432945728    -0.661565729585
    H            2.732172957405     0.632961449108     0.139427681734
    H            2.045089445148    -0.672609964960     1.086041391932

  Mulliken Charges: (a.u.)
   Center  Symbol    Alpha    Beta     Spin     Total
       1     H     0.33249  0.33249  0.00000  0.33502
       2     N     3.92080  3.92080  0.00000 -0.84159
       3     C     3.05940  3.05940  0.00000 -0.11881
       4     H     0.33527  0.33527  0.00000  0.32946
       5     C     3.15514  3.15514  0.00000 -0.31028
       6     H     0.42110  0.42110  0.00000  0.15779
       7     H     0.43517  0.43517  0.00000  0.12966
       8     C     3.24306  3.24306  0.00000 -0.48612
       9     H     0.41076  0.41076  0.00000  0.17848
      10     H     0.42671  0.42671  0.00000  0.14657
      11     H     0.41980  0.41980  0.00000  0.16041
      12     H     0.41790  0.41790  0.00000  0.16421
      13     H     0.42240  0.42240  0.00000  0.15520

   Total alpha = 17.00000, Total beta = 17.00000, Total charge =  0.00000
