  ==> Input File <==

--------------------------------------------------------------------------
set {
	reference rhf
	basis 6-31G*
}

set_num_threads( 1 )
memory 2 gb

molecule MOL {
0 1

H	 -3.301617	 0.570527	 0.000000
C	 -2.250981	 0.344174	 0.000000
C	 -1.813665	 -0.976045	 0.000000
C	 -1.315303	 1.358057	 0.000000
H	 -2.528860	 -1.779366	 0.000000
C	 -0.467298	 -1.270142	 0.000000
H	 -1.635074	 2.385107	 0.000000
C	 0.047081	 1.078114	 0.000000
H	 -0.115948	 -2.285222	 0.000000
C	 0.472063	 -0.241155	 0.000000
H	 0.749976	 1.888426	 0.000000
O	 1.765256	 -0.628444	 0.000000
C	 2.081965	 -1.990342	 -0.000000
H	 1.698472	 -2.487417	 0.884976
H	 3.160056	 -2.049766	 -0.000000
H	 1.698472	 -2.487417	 -0.884976

	symmetry c1
}
set optking {
	frozen_dihedral = ("
		10 12 13 14
	")
}

ee = energy('scf')
oeprop('DIPOLE', 'QUADRUPOLE', 'MULLIKEN_CHARGES')
f=open( 'psi4out.xyz', 'w' )
f.write( "16  " )
f.write( str(ee) + "\n" )
f.write( MOL.save_string_xyz() )
f.close()
--------------------------------------------------------------------------

    Molecular point group: c1

    Geometry (in Angstrom), charge = 0, multiplicity = 1:

       Center              X                  Y                   Z               Mass
    ------------   -----------------  -----------------  -----------------  -----------------
           H         -3.199863705357     0.910290250082     0.000000000000     1.007825032070
           C         -2.149227705357     0.683937250082     0.000000000000    12.000000000000
           C         -1.711911705357    -0.636281749918     0.000000000000    12.000000000000
           C         -1.213549705357     1.697820250082     0.000000000000    12.000000000000
           H         -2.427106705357    -1.439602749918     0.000000000000     1.007825032070
           C         -0.365544705357    -0.930378749918     0.000000000000    12.000000000000
           H         -1.533320705357     2.724870250082     0.000000000000     1.007825032070
           C          0.148834294643     1.417877250082     0.000000000000    12.000000000000
           H         -0.014194705357    -1.945458749918     0.000000000000     1.007825032070
           C          0.573816294643     0.098608250082     0.000000000000    12.000000000000
           H          0.851729294643     2.228189250082     0.000000000000     1.007825032070
           O          1.867009294643    -0.288680749918     0.000000000000    15.994914619560
           C          2.183718294643    -1.650578749918     0.000000000000    12.000000000000
           H          1.800225294643    -2.147653749918     0.884976000000     1.007825032070
           H          3.261809294643    -1.710002749918     0.000000000000     1.007825032070
           H          1.800225294643    -2.147653749918    -0.884976000000     1.007825032070

  Charge       = 0
  Multiplicity = 1
  Basis Set: 6-31G*
  Basis Set:

    Orbital Energies (a.u.)
    -----------------------

    Doubly Occupied:

       1A    -20.584031     2A    -11.295040     3A    -11.281348
       4A    -11.233087     5A    -11.232450     6A    -11.223562
       7A    -11.219408     8A    -11.219063     9A     -1.414828
      10A     -1.145713    11A     -1.021069    12A     -1.012606
      13A     -0.945937    14A     -0.834126    15A     -0.803059
      16A     -0.725566    17A     -0.665312    18A     -0.657792
      19A     -0.657781    20A     -0.619458    21A     -0.591999
      22A     -0.571862    23A     -0.524819    24A     -0.523293
      25A     -0.510564    26A     -0.467225    27A     -0.463290
      28A     -0.334907    29A     -0.305599

  @DF-RHF Final Energy:  -344.57386625065578

   => Energetics <=

    Nuclear Repulsion Energy =            349.4455886677034187
    One-Electron Energy =               -1159.8692099173617862
    Two-Electron Energy =                 465.8497549990017887
    DFT Exchange-Correlation Energy =       0.0000000000000000
    Empirical Dispersion Energy =           0.0000000000000000
    PCM Polarization Energy =               0.0000000000000000
    EFP Energy =                            0.0000000000000000
    Total Energy =                       -344.5738662506565788

  Mulliken Charges: (a.u.)
   Center  Symbol    Alpha    Beta     Spin     Total
       1     H     0.40131  0.40131  0.00000  0.19739
       2     C     3.11233  3.11233  0.00000 -0.22466
       3     C     3.09092  3.09092  0.00000 -0.18184
       4     C     3.09127  3.09127  0.00000 -0.18254
       5     H     0.40009  0.40009  0.00000  0.19982
       6     C     3.15356  3.15356  0.00000 -0.30712
       7     H     0.39829  0.39829  0.00000  0.20343
       8     C     3.12860  3.12860  0.00000 -0.25720
       9     H     0.39461  0.39461  0.00000  0.21078
      10     C     2.77005  2.77005  0.00000  0.45991
      11     H     0.39400  0.39400  0.00000  0.21201
      12     O     4.32999  4.32999  0.00000 -0.65999
      13     C     3.09844  3.09844  0.00000 -0.19687
      14     H     0.41729  0.41729  0.00000  0.16543
      15     H     0.40198  0.40198  0.00000  0.19603
      16     H     0.41729  0.41729  0.00000  0.16543

   Total alpha = 29.00000, Total beta = 29.00000, Total charge =  0.00000
