  ==> Input File <==

--------------------------------------------------------------------------
set {
	reference rhf
	basis cc-pvtz
}

set_num_threads( 4 )
memory 2 gb

molecule MOL {
0 1

H	 1.651322	 -0.822465	 0.000000
O	 0.729993	 -1.034364	 0.000000
C	 0.037305	 0.100061	 0.000000
C	 0.859145	 1.260511	 -0.475407
O	 -1.093012	 0.151450	 0.341373
H	 1.724876	 1.376058	 0.163832
H	 0.261448	 2.156746	 -0.459736
H	 1.214629	 1.064497	 -1.478741

	symmetry c1
}
set optking {
	frozen_dihedral = ("
		4 3 2 1
	")
}

ee = optimize('scf')
oeprop('DIPOLE', 'QUADRUPOLE', 'MULLIKEN_CHARGES')
f=open( 'psi4out.xyz', 'w' )
f.write( "8  " )
f.write( str(ee) + "\n" )
f.write( MOL.save_string_xyz() )
f.close()
--------------------------------------------------------------------------

    Molecular point group: c1
  Charge       = 0
  Multiplicity = 1
  Basis Set: CC-PVTZ
  Basis Set:
  @DF-RHF Final Energy:  -227.89223820514314
    Total Energy =                       -227.8922382051433715
    Molecular point group: c1
  Basis Set: CC-PVTZ
  Basis Set:
  Basis Set: CC-PVTZ
  Basis Set:
  @DF-RHF Final Energy:  -227.89239647288494
    Total Energy =                       -227.8923964728849683
  Basis Set: CC-PVTZ
  Basis Set:
  Basis Set: CC-PVTZ
  Basis Set:
  @DF-RHF Final Energy:  -227.89229698305371
    Total Energy =                       -227.8922969830536545
  Basis Set: CC-PVTZ
  Basis Set:
  Basis Set: CC-PVTZ
  Basis Set:
  @DF-RHF Final Energy:  -227.89387785666344
    Total Energy =                       -227.8938778566633800
  Basis Set: CC-PVTZ
  Basis Set:
  Basis Set: CC-PVTZ
  Basis Set:
  @DF-RHF Final Energy:  -227.89389248883390
    Total Energy =                       -227.8938924888338420
  Basis Set: CC-PVTZ
  Basis Set:
  Basis Set: CC-PVTZ
  Basis Set:
  @DF-RHF Final Energy:  -227.89389731867490
    Total Energy =                       -227.8938973186748171
  Basis Set: CC-PVTZ
  Basis Set:
  Basis Set: CC-PVTZ
  Basis Set:
  @DF-RHF Final Energy:  -227.89390181876712
    Total Energy =                       -227.8939018187670058
  Basis Set: CC-PVTZ
  Basis Set:
  Charge       = 0
  Multiplicity = 1
  Basis Set: CC-PVTZ
  Basis Set:

    Orbital Energies (a.u.)
    -----------------------

    Doubly Occupied:

       1A    -20.606253     2A    -20.539319     3A    -11.377944
       4A    -11.249946     5A     -1.473580     6A     -1.376171
       7A     -1.027487     8A     -0.842697     9A     -0.722326
      10A     -0.672439    11A     -0.659822    12A     -0.604258
      13A     -0.574191    14A     -0.553384    15A     -0.484381
      16A     -0.449922

  @DF-RHF Final Energy:  -227.89390170399457

   => Energetics <=

    Nuclear Repulsion Energy =            122.5601760733915171
    One-Electron Energy =                -554.4799190447100727
    Two-Electron Energy =                 204.0258412673240400
    DFT Exchange-Correlation Energy =       0.0000000000000000
    Empirical Dispersion Energy =           0.0000000000000000
    PCM Polarization Energy =               0.0000000000000000
    EFP Energy =                            0.0000000000000000
    Total Energy =                       -227.8939017039945156
    Molecular point group: c1
  Basis Set: CC-PVTZ
  Basis Set:

  -Total Gradient:
     Atom            X                  Y                   Z
    ------   -----------------  -----------------  -----------------
       1       -0.000050758571     0.000070358909     0.003867240281
       2       -0.000174361539    -0.000294715089    -0.005777813094
       3        0.000753998521     0.000599594585     0.003728624391
       4       -0.000639371079    -0.000428351487    -0.002108884843
       5        0.000113217901     0.000058865738     0.000285162478
       6        0.000000785394    -0.000001845894     0.000004374109
       7       -0.000000415927     0.000000372221     0.000001017528
       8       -0.000003094702    -0.000004278981     0.000000279150

  **** Optimization is complete! (in 8 steps) ****
    Final optimized geometry and variables:
    Molecular point group: c1

    Geometry (in Angstrom), charge = 0, multiplicity = 1:

    H            1.486353990916    -1.030590431218     0.083774019492
    O            0.553633187921    -1.155332121231     0.073507147930
    C           -0.109911704403     0.005115629860     0.042597635732
    C            0.690182175564     1.189716556240    -0.435503848132
    O           -1.250607181606     0.045292903036     0.321508572799
    H            1.581671424155     1.323500242920     0.167575111398
    H            0.083615396134     2.078276635460    -0.382700561955
    H            1.000661159827     1.019279335542    -1.459567752944

  Mulliken Charges: (a.u.)
   Center  Symbol    Alpha    Beta     Spin     Total
       1     H     0.38900  0.38900  0.00000  0.22199
       2     O     4.14512  4.14512  0.00000 -0.29024
       3     C     2.80966  2.80966  0.00000  0.38068
       4     C     3.15083  3.15083  0.00000 -0.30165
       5     O     4.17431  4.17431  0.00000 -0.34861
       6     H     0.45462  0.45462  0.00000  0.09076
       7     H     0.43366  0.43366  0.00000  0.13269
       8     H     0.44281  0.44281  0.00000  0.11438

   Total alpha = 16.00000, Total beta = 16.00000, Total charge = -0.00000
