                              Psi4 1.0.54 Driver

  ==> Input File <==

--------------------------------------------------------------------------
set {
	reference rhf
	basis cc-pvtz
}

set_num_threads( 4 )
memory 2 gb

molecule MOL {
0 1

H	 3.889604	 0.356866	 -0.089510
N	 3.091268	 -0.241216	 -0.065538
C	 1.860978	 0.530248	 0.016256
H	 3.192566	 -0.835836	 0.730398
C	 0.644130	 -0.381765	 -0.031064
H	 1.835721	 1.204666	 -0.833114
H	 1.808789	 1.151975	 0.911067
C	 -0.678115	 0.376691	 0.025731
H	 0.693998	 -0.977147	 -0.936845
H	 0.693309	 -1.082142	 0.800523
C	 -0.912369	 1.084129	 1.357594
H	 -1.497262	 -0.314483	 -0.159285
H	 -0.711952	 1.109134	 -0.777547
C	 -2.238104	 1.835841	 1.412655
H	 -0.878465	 0.354161	 2.161515
H	 -0.097121	 1.778204	 1.543069
H	 -3.076153	 1.162645	 1.265277
H	 -2.372761	 2.325773	 2.370173
H	 -2.288734	 2.597620	 0.641640

	symmetry c1
}
set optking {
	frozen_dihedral = ("
		12 8 5 9
	")
}

ee,wfn = optimize('scf', return_wfn=True)
oeprop( wfn, 'DIPOLE', 'QUADRUPOLE', 'MULLIKEN_CHARGES')
f=open( 'psi4out.xyz', 'w' )
f.write( "19  " )
f.write( str(ee) + "\n" )
f.write( MOL.save_string_xyz() )
f.close()
--------------------------------------------------------------------------

    Molecular point group: c1
  Charge       = 0
  Multiplicity = 1
  Basis Set: CC-PVTZ
  Basis Set:
  @DF-RHF Final Energy:  -251.44539459135683
    Total Energy =                       -251.4453945913568873
    Molecular point group: c1
  Basis Set: CC-PVTZ
  Basis Set:
  Basis Set: CC-PVTZ
  Basis Set:
  @DF-RHF Final Energy:  -251.44573017367188
    Total Energy =                       -251.4457301736718478
  Basis Set: CC-PVTZ
  Basis Set:
  Basis Set: CC-PVTZ
  Basis Set:
  @DF-RHF Final Energy:  -251.44613415838978
    Total Energy =                       -251.4461341583898388
  Basis Set: CC-PVTZ
  Basis Set:
  Basis Set: CC-PVTZ
  Basis Set:
  @DF-RHF Final Energy:  -251.44615041380632
    Total Energy =                       -251.4461504138059809
  Basis Set: CC-PVTZ
  Basis Set:
  Basis Set: CC-PVTZ
  Basis Set:
  @DF-RHF Final Energy:  -251.44615206024437
    Total Energy =                       -251.4461520602443443
  Basis Set: CC-PVTZ
  Basis Set:
  Charge       = 0
  Multiplicity = 1
  Basis Set: CC-PVTZ
  Basis Set:

    Orbital Energies (a.u.)
    -----------------------

    Doubly Occupied:

       1A    -15.526224     2A    -11.237342     3A    -11.212496
       4A    -11.210973     5A    -11.208098     6A    -11.206134
       7A     -1.177896     8A     -1.073775     9A     -0.998135
      10A     -0.900304    11A     -0.828762    12A     -0.777772
      13A     -0.657243    14A     -0.636772    15A     -0.632722
      16A     -0.587906    17A     -0.569410    18A     -0.548396
      19A     -0.529257    20A     -0.505262    21A     -0.481391
      22A     -0.462595    23A     -0.458731    24A     -0.451694
      25A     -0.383062

  @DF-RHF Final Energy:  -251.44615231974078

   => Energetics <=

    Nuclear Repulsion Energy =            249.0854507812682357
    One-Electron Energy =                -832.5384983986712086
    Two-Electron Energy =                 332.0068952976620267
    DFT Exchange-Correlation Energy =       0.0000000000000000
    Empirical Dispersion Energy =           0.0000000000000000
    PCM Polarization Energy =               0.0000000000000000
    EFP Energy =                            0.0000000000000000
    Total Energy =                       -251.4461523197409178
    Molecular point group: c1
  Basis Set: CC-PVTZ
  Basis Set:

  -Total Gradient:
     Atom            X                  Y                   Z
    ------   -----------------  -----------------  -----------------
       1       -0.000010748396     0.000006445340    -0.000007183041
       2       -0.000020483900    -0.000005559884     0.000000933537
       3        0.000000413349     0.000011949297     0.000010194594
       4       -0.000004115460     0.000005028970    -0.000000740803
       5       -0.000056035695    -0.000108782156     0.000079541027
       6        0.000013520229     0.000000647899    -0.000004659024
       7       -0.000001376301     0.000005629037     0.000009901501
       8        0.000037103727     0.000048446243    -0.000145903112
       9        0.000035049403     0.000071877565    -0.000047373991
      10        0.000000121022    -0.000008646985     0.000004227007
      11       -0.000009871156    -0.000022212370     0.000011387116
      12        0.000004142911    -0.000022772848     0.000096548017
      13       -0.000004329439     0.000006494637    -0.000015282445
      14        0.000014556582     0.000005163956    -0.000001495403
      15        0.000000017015    -0.000001964308     0.000010768688
      16        0.000003252450     0.000005449685     0.000000561322
      17        0.000000853890    -0.000007053121     0.000001801689
      18        0.000000073654     0.000005899131     0.000002147667
      19       -0.000002143887     0.000003959914    -0.000005374345

  **** Optimization is complete! (in 6 steps) ****
    Final optimized geometry and variables:
    Molecular point group: c1

    Geometry (in Angstrom), charge = 0, multiplicity = 1:

    H            3.596125200458    -0.266347741078    -0.635902397591
    N            2.775230556101    -0.833213506319    -0.610217814278
    C            1.582458946253    -0.017593462618    -0.434344195423
    H            2.883793660002    -1.471709861303     0.150159221416
    C            0.333430422148    -0.888909576246    -0.462344929417
    H            1.540213393520     0.689194427198    -1.256820402976
    H            1.609300728585     0.568002412183     0.482774457344
    C           -0.987391778254    -0.120696627516    -0.401443361425
    H            0.362914076622    -1.477004071901    -1.372809245834
    H            0.375168459168    -1.598234791578     0.362344800498
    C           -1.265041967902     0.596400942733     0.919275470187
    H           -1.796545023982    -0.821219072066    -0.587821901021
    H           -1.021527206865     0.600436238886    -1.215119610546
    C           -2.639477741846     1.257237897935     0.952823225456
    H           -1.189422100716    -0.117392915463     1.735631987693
    H           -0.506845710529     1.350357071875     1.102086454443
    H           -3.429119903781     0.525513234824     0.818187129571
    H           -2.811553508396     1.759499184145     1.897955776665
    H           -2.737541948959     1.995596523645     0.163796456602

  Mulliken Charges: (a.u.)
   Center  Symbol    Alpha    Beta     Spin     Total
       1     H     0.43009  0.43009  0.00000  0.13982
       2     N     3.69030  3.69030  0.00000 -0.38059
       3     C     3.02597  3.02597  0.00000 -0.05195
       4     H     0.43062  0.43062  0.00000  0.13876
       5     C     3.09222  3.09222  0.00000 -0.18445
       6     H     0.45731  0.45731  0.00000  0.08539
       7     H     0.46503  0.46503  0.00000  0.06994
       8     C     3.10077  3.10077  0.00000 -0.20154
       9     H     0.44278  0.44278  0.00000  0.11443
      10     H     0.45935  0.45935  0.00000  0.08129
      11     C     3.08577  3.08577  0.00000 -0.17153
      12     H     0.44860  0.44860  0.00000  0.10281
      13     H     0.45379  0.45379  0.00000  0.09242
      14     C     3.14929  3.14929  0.00000 -0.29859
      15     H     0.45510  0.45510  0.00000  0.08979
      16     H     0.45456  0.45456  0.00000  0.09089
      17     H     0.45467  0.45467  0.00000  0.09067
      18     H     0.44875  0.44875  0.00000  0.10249
      19     H     0.45503  0.45503  0.00000  0.08995

   Total alpha = 25.00000, Total beta = 25.00000, Total charge = -0.00000

*** Psi4 exiting successfully. Buy a developer a beer!
