  ==> Input File <==

--------------------------------------------------------------------------
set {
	reference rhf
	basis 6-31G*
}

set_num_threads( 1 )
memory 2 gb

molecule MOL {
0 1

H	 1.136379	 0.211822	 1.465562
C	 1.135357	 0.094285	 0.374742
C	 0.065331	 0.871482	 -0.349150
O	 1.941633	 -0.601957	 -0.151457
C	 -0.930326	 -0.042099	 -1.078202
H	 0.546867	 1.559702	 -1.034269
H	 -0.467101	 1.458920	 0.397572
C	 -0.304670	 -0.810264	 -2.243063
H	 -1.750816	 0.566379	 -1.445029
H	 -1.365744	 -0.741763	 -0.367906
H	 0.105728	 -0.128831	 -2.981812
H	 -1.044139	 -1.431960	 -2.737022
H	 0.501795	 -1.457716	 -1.911687

	symmetry c1
}
set optking {
	frozen_dihedral = ("
		6 3 5 9
	")
}

ee = energy('scf')
oeprop('DIPOLE', 'QUADRUPOLE', 'MULLIKEN_CHARGES')
f=open( 'psi4out.xyz', 'w' )
f.write( "13  " )
f.write( str(ee) + "\n" )
f.write( MOL.save_string_xyz() )
f.close()
--------------------------------------------------------------------------

    Molecular point group: c1

    Geometry (in Angstrom), charge = 0, multiplicity = 1:

       Center              X                  Y                   Z               Mass
    ------------   -----------------  -----------------  -----------------  -----------------
           H          0.743786502692     0.326044143317     2.168509060018     1.007825032070
           C          0.742764502692     0.208507143317     1.077689060018    12.000000000000
           C         -0.327261497308     0.985704143317     0.353797060018    12.000000000000
           O          1.549040502692    -0.487734856683     0.551490060018    15.994914619560
           C         -1.322918497308     0.072123143317    -0.375254939982    12.000000000000
           H          0.154274502692     1.673924143317    -0.331321939982     1.007825032070
           H         -0.859693497308     1.573142143317     1.100519060018     1.007825032070
           C         -0.697262497308    -0.696041856683    -1.540115939982    12.000000000000
           H         -2.143408497308     0.680601143317    -0.742081939982     1.007825032070
           H         -1.758336497308    -0.627540856683     0.335041060018     1.007825032070
           H         -0.286864497308    -0.014608856683    -2.278864939982     1.007825032070
           H         -1.436731497308    -1.317737856683    -2.034074939982     1.007825032070
           H          0.109202502692    -1.343493856683    -1.208739939982     1.007825032070

  Charge       = 0
  Multiplicity = 1
  Basis Set: 6-31G*
  Basis Set:

    Orbital Energies (a.u.)
    -----------------------

    Doubly Occupied:

       1A    -20.564586     2A    -11.328471     3A    -11.236068
       4A    -11.233944     5A    -11.207033     6A     -1.405617
       7A     -1.079885     8A     -0.970258     9A     -0.844117
      10A     -0.778416    11A     -0.680124    12A     -0.651919
      13A     -0.597935    14A     -0.593576    15A     -0.566700
      16A     -0.521020    17A     -0.501921    18A     -0.486919
      19A     -0.479796    20A     -0.406574

  @DF-RHF Final Energy:  -230.98140839687778

   => Energetics <=

    Nuclear Repulsion Energy =            176.7866133389764514
    One-Electron Energy =                -663.2663217844474275
    Two-Electron Energy =                 255.4983000485929097
    DFT Exchange-Correlation Energy =       0.0000000000000000
    Empirical Dispersion Energy =           0.0000000000000000
    PCM Polarization Energy =               0.0000000000000000
    EFP Energy =                            0.0000000000000000
    Total Energy =                       -230.9814083968780665

  Mulliken Charges: (a.u.)
   Center  Symbol    Alpha    Beta     Spin     Total
       1     H     0.42764  0.42764  0.00000  0.14472
       2     C     2.84447  2.84447  0.00000  0.31107
       3     C     3.20172  3.20172  0.00000 -0.40344
       4     O     4.23477  4.23477  0.00000 -0.46953
       5     C     3.15885  3.15885  0.00000 -0.31771
       6     H     0.39958  0.39958  0.00000  0.20085
       7     H     0.41567  0.41567  0.00000  0.16865
       8     C     3.24372  3.24372  0.00000 -0.48744
       9     H     0.41413  0.41413  0.00000  0.17173
      10     H     0.41796  0.41796  0.00000  0.16408
      11     H     0.42161  0.42161  0.00000  0.15677
      12     H     0.42107  0.42107  0.00000  0.15787
      13     H     0.39881  0.39881  0.00000  0.20238

   Total alpha = 20.00000, Total beta = 20.00000, Total charge =  0.00000
