                              Psi4 1.0.54 Driver

  ==> Input File <==

--------------------------------------------------------------------------
set {
	reference rhf
	basis cc-pvtz
}

set_num_threads( 4 )
memory 2 gb

molecule MOL {
0 1

H	 2.217273	 -0.283421	 -0.582077
O	 1.583947	 -0.677544	 -0.001533
C	 0.489979	 0.078084	 0.002623
C	 -0.763662	 -0.754014	 0.000816
O	 0.539051	 1.259395	 -0.000088
C	 -2.038001	 0.074705	 -0.000833
H	 -0.712945	 -1.405886	 -0.864342
H	 -0.715137	 -1.405770	 0.866182
H	 -2.087267	 0.710831	 -0.874232
H	 -2.903419	 -0.576199	 -0.001922
H	 -2.089467	 0.710909	 0.872389

	symmetry c1
}
set optking {
	frozen_dihedral = ("
		1 2 3 5
	")
}

ee,wfn = optimize('scf', return_wfn=True)
oeprop( wfn, 'DIPOLE', 'QUADRUPOLE', 'MULLIKEN_CHARGES')
f=open( 'psi4out.xyz', 'w' )
f.write( "11  " )
f.write( str(ee) + "\n" )
f.write( MOL.save_string_xyz() )
f.close()
--------------------------------------------------------------------------

    Molecular point group: c1
  Charge       = 0
  Multiplicity = 1
  Basis Set: CC-PVTZ
  Basis Set:
  @DF-RHF Final Energy:  -266.94492236685039
    Total Energy =                       -266.9449223668505624
    Molecular point group: c1
  Basis Set: CC-PVTZ
  Basis Set:
  Basis Set: CC-PVTZ
  Basis Set:
  @DF-RHF Final Energy:  -266.94237171418598
    Total Energy =                       -266.9423717141859242
  Basis Set: CC-PVTZ
  Basis Set:
  Basis Set: CC-PVTZ
  Basis Set:
  @DF-RHF Final Energy:  -266.94570829803820
    Total Energy =                       -266.9457082980381415
  Basis Set: CC-PVTZ
  Basis Set:
  Basis Set: CC-PVTZ
  Basis Set:
  @DF-RHF Final Energy:  -266.94577473069057
    Total Energy =                       -266.9457747306906867
  Basis Set: CC-PVTZ
  Basis Set:
  @DF-RHF Final Energy:  -266.94578442845244
    Total Energy =                       -266.9457844284522707
  @DF-RHF Final Energy:  -266.94578633720607
    Total Energy =                       -266.9457863372060729
  @DF-RHF Final Energy:  -266.94503729619112
    Total Energy =                       -266.9450372961911171
  @DF-RHF Final Energy:  -266.94550252277747
    Total Energy =                       -266.9455025227774172
  @DF-RHF Final Energy:  -266.94456098913838
    Total Energy =                       -266.9445609891383242
  @DF-RHF Final Energy:  -266.94530974348845
    Total Energy =                       -266.9453097434885649
  @DF-RHF Final Energy:  -266.94576110369019
    Total Energy =                       -266.9457611036899607
  Basis Set: CC-PVTZ
  Basis Set:
  @DF-RHF Final Energy:  -266.94568052826475
    Total Energy =                       -266.9456805282648020
  Basis Set: CC-PVTZ
  Basis Set:
  Basis Set: CC-PVTZ
  Basis Set:
  @DF-RHF Final Energy:  -266.94577496761713
    Total Energy =                       -266.9457749676172966
  Basis Set: CC-PVTZ
  Basis Set:
  Basis Set: CC-PVTZ
  Basis Set:
  @DF-RHF Final Energy:  -266.94578713819431
    Total Energy =                       -266.9457871381945324
  Basis Set: CC-PVTZ
  Basis Set:
  Charge       = 0
  Multiplicity = 1
  Basis Set: CC-PVTZ
  Basis Set:

    Orbital Energies (a.u.)
    -----------------------

    Doubly Occupied:

       1A    -20.598492     2A    -20.545183     3A    -11.374657
       4A    -11.242578     5A    -11.218621     6A     -1.472370
       7A     -1.371285     8A     -1.065600     9A     -0.916619
      10A     -0.804799    11A     -0.708375    12A     -0.689192
      13A     -0.662171    14A     -0.609323    15A     -0.580834
      16A     -0.529954    17A     -0.527227    18A     -0.505871
      19A     -0.487804    20A     -0.448767

  @DF-RHF Final Energy:  -266.94578731214568

   => Energetics <=

    Nuclear Repulsion Energy =            179.8695059262778955
    One-Electron Energy =                -720.9111450539452335
    Two-Electron Energy =                 274.0958518155215415
    DFT Exchange-Correlation Energy =       0.0000000000000000
    Empirical Dispersion Energy =           0.0000000000000000
    PCM Polarization Energy =               0.0000000000000000
    EFP Energy =                            0.0000000000000000
    Total Energy =                       -266.9457873121458533
    Molecular point group: c1
  Basis Set: CC-PVTZ
  Basis Set:

  -Total Gradient:
     Atom            X                  Y                   Z
    ------   -----------------  -----------------  -----------------
       1       -0.003251598557    -0.006005135182    -0.008450345071
       2        0.003575292595     0.007667676298     0.014990410707
       3        0.000541355914    -0.002027497183    -0.016125055675
       4       -0.000021914042     0.000033258886    -0.000055361282
       5       -0.000835024270     0.000339232057     0.009613610495
       6       -0.000006862506     0.000017140674     0.000011426250
       7       -0.000005016468    -0.000002130308     0.000015970178
       8       -0.000000910887    -0.000005794945     0.000006960769
       9        0.000002442800    -0.000005004659     0.000001545540
      10       -0.000001437099    -0.000005602715    -0.000002274283
      11        0.000003672517    -0.000006142920    -0.000006887628

  **** Optimization is complete! (in 14 steps) ****
    Final optimized geometry and variables:
    Molecular point group: c1

    Geometry (in Angstrom), charge = 0, multiplicity = 1:

    H            2.288378058495    -0.315602753922    -0.445141735080
    O            1.590994645153    -0.676585340033     0.078936171056
    C            0.490752718716     0.081948946790    -0.035706307415
    C           -0.764269763059    -0.747373164760    -0.010474738445
    O            0.535867796949     1.259946709245    -0.065884241504
    C           -2.038903586483     0.077870204452     0.053560553022
    H           -0.744132743950    -1.377519813819    -0.893845558330
    H           -0.681937086062    -1.423263365839     0.833487095805
    H           -2.118979663972     0.737387839044    -0.799961555916
    H           -2.903732650359    -0.573905614783     0.065390560792
    H           -2.060850000453     0.690440426388     0.945061071651

  Mulliken Charges: (a.u.)
   Center  Symbol    Alpha    Beta     Spin     Total
       1     H     0.38066  0.38066  0.00000  0.23869
       2     O     4.16914  4.16914  0.00000 -0.33828
       3     C     2.80385  2.80385  0.00000  0.39231
       4     C     3.09982  3.09982  0.00000 -0.19964
       5     O     4.17956  4.17956  0.00000 -0.35911
       6     C     3.13934  3.13934  0.00000 -0.27867
       7     H     0.44345  0.44345  0.00000  0.11310
       8     H     0.43872  0.43872  0.00000  0.12256
       9     H     0.44790  0.44790  0.00000  0.10420
      10     H     0.44980  0.44980  0.00000  0.10041
      11     H     0.44778  0.44778  0.00000  0.10445

   Total alpha = 20.00000, Total beta = 20.00000, Total charge = -0.00000

*** Psi4 exiting successfully. Buy a developer a beer!
