  ==> Input File <==

--------------------------------------------------------------------------
set {
	reference rhf
	basis 6-31G*
}

set_num_threads( 4 )
memory 2 gb

molecule MOL {
0 1

H	 3.143886	 -1.517601	 2.732809
O	 3.870086	 -1.557107	 2.127710
C	 3.603814	 -2.509788	 1.129936
C	 2.549986	 -2.052026	 0.127625
H	 4.545043	 -2.674143	 0.621260
H	 3.308553	 -3.458064	 1.577565
C	 1.163099	 -1.835477	 0.737969
H	 2.892489	 -1.130684	 -0.336257
H	 2.485193	 -2.799470	 -0.661359
C	 0.115918	 -1.429151	 -0.302766
H	 1.226735	 -1.070231	 1.506548
H	 0.838333	 -2.750887	 1.232835
C	 -1.309753	 -1.282496	 0.241564
H	 0.420250	 -0.494762	 -0.770895
H	 0.107049	 -2.175435	 -1.094398
C	 -2.037799	 -0.007733	 -0.193645
H	 -1.890610	 -2.142323	 -0.085726
H	 -1.285946	 -1.330893	 1.329189
C	 -3.489788	 0.042957	 0.286558
H	 -2.017067	 0.064384	 -1.280144
H	 -1.513726	 0.868678	 0.179924
C	 -4.216917	 1.317354	 -0.141063
H	 -4.025645	 -0.823308	 -0.095450
H	 -3.513059	 -0.038752	 1.371301
H	 -4.239342	 1.411634	 -1.223113
H	 -5.243387	 1.322503	 0.212445
H	 -3.726170	 2.201406	 0.256408

	symmetry c1
}
set optking {
	frozen_dihedral = ("
		14 10 13 16
	")
}

ee = optimize('scf')
oeprop('DIPOLE', 'QUADRUPOLE', 'MULLIKEN_CHARGES')
f=open( 'psi4out.xyz', 'w' )
f.write( "27  " )
f.write( str(ee) + "\n" )
f.write( MOL.save_string_xyz() )
f.close()
--------------------------------------------------------------------------

    Molecular point group: c1
  Charge       = 0
  Multiplicity = 1
  Basis Set: 6-31G*
  Basis Set:
  @DF-RHF Final Energy:  -388.27811740868469
    Total Energy =                       -388.2781174086846931
    Molecular point group: c1
  Basis Set: 6-31G*
  Basis Set:
  Basis Set: 6-31G*
  Basis Set:
  @DF-RHF Final Energy:  -388.27859058425986
    Total Energy =                       -388.2785905842587226
  Basis Set: 6-31G*
  Basis Set:
  Basis Set: 6-31G*
  Basis Set:
  @DF-RHF Final Energy:  -388.27867198737459
    Total Energy =                       -388.2786719873749917
  Basis Set: 6-31G*
  Basis Set:
  Charge       = 0
  Multiplicity = 1
  Basis Set: 6-31G*
  Basis Set:

    Orbital Energies (a.u.)
    -----------------------

    Doubly Occupied:

       1A    -20.552236     2A    -11.267136     3A    -11.220860
       4A    -11.216661     5A    -11.215508     6A    -11.215192
       7A    -11.215170     8A    -11.214215     9A    -11.208921
      10A     -1.359031    11A     -1.093599    12A     -1.062480
      13A     -1.010680    14A     -0.950432    15A     -0.882537
      16A     -0.820654    17A     -0.792622    18A     -0.790461
      19A     -0.694132    20A     -0.651875    21A     -0.638544
      22A     -0.613033    23A     -0.598799    24A     -0.587002
      25A     -0.575644    26A     -0.552119    27A     -0.542509
      28A     -0.521609    29A     -0.510327    30A     -0.487606
      31A     -0.485338    32A     -0.476798    33A     -0.469077
      34A     -0.462253    35A     -0.455025    36A     -0.442170
      37A     -0.420290

  @DF-RHF Final Energy:  -388.27867287863057

   => Energetics <=

    Nuclear Repulsion Energy =            452.6623795920759221
    One-Electron Energy =               -1423.3370170420994327
    Two-Electron Energy =                 582.3959645713928239
    DFT Exchange-Correlation Energy =       0.0000000000000000
    Empirical Dispersion Energy =           0.0000000000000000
    PCM Polarization Energy =               0.0000000000000000
    EFP Energy =                            0.0000000000000000
    Total Energy =                       -388.2786728786306867
    Molecular point group: c1
  Basis Set: 6-31G*
  Basis Set:

  -Total Gradient:
     Atom            X                  Y                   Z
    ------   -----------------  -----------------  -----------------
       1       -0.000004697717    -0.000003447001     0.000000553682
       2       -0.000013461310     0.000022724650     0.000014660513
       3        0.000018015159     0.000004200040    -0.000036955107
       4        0.000055252773    -0.000028315233    -0.000009928361
       5        0.000009187169    -0.000006517798     0.000007268477
       6       -0.000000683312     0.000002114782    -0.000008411541
       7       -0.000002305677    -0.000016684007    -0.000023564338
       8        0.000001487708    -0.000010243694    -0.000004170100
       9       -0.000002002327    -0.000008362651     0.000004985764
      10        0.001549997215     0.001532775563     0.003557760983
      11        0.000021466483     0.000010568273    -0.000043547073
      12       -0.000061590181     0.000006046103     0.000022513750
      13       -0.001296479268    -0.001609160059    -0.002809298449
      14       -0.000954144217    -0.000863921782    -0.002361654138
      15        0.000079650023     0.000028588813     0.000029327303
      16        0.000722587365     0.000899976569     0.001611339289
      17       -0.000079012377     0.000031512773     0.000047560586
      18       -0.000038512629     0.000040196153    -0.000032485415
      19       -0.000063493632    -0.000006056152     0.000012317372
      20        0.000050011578    -0.000043518108     0.000000740535
      21        0.000000355516     0.000006877548     0.000001296133
      22        0.000014369815     0.000006725499     0.000036617307
      23        0.000005116985     0.000009355529    -0.000018977243
      24       -0.000011610067    -0.000012307634    -0.000001994835
      25       -0.000003325454    -0.000012264250     0.000003876683
      26        0.000003501952     0.000004732643     0.000006954208
      27        0.000000318420     0.000014403431    -0.000006785987

  **** Optimization is complete! (in 4 steps) ****
    Final optimized geometry and variables:
    Molecular point group: c1

    Geometry (in Angstrom), charge = 0, multiplicity = 1:

    H            2.986952965122    -0.487388758286     2.279562689387
    O            3.732097383114    -0.490715600425     1.696559600236
    C            3.526643651064    -1.429208360652     0.671446832101
    C            2.484628871343    -0.985388218653    -0.349405637379
    H            4.486546168659    -1.549124502321     0.185854828248
    H            3.253016194366    -2.397094251107     1.089897854411
    C            1.075987007327    -0.830015982653     0.226817224025
    H            2.807066388730    -0.042997578483    -0.784535178384
    H            2.466163035662    -1.717148927945    -1.155386588416
    C            0.037731749220    -0.427320906591    -0.821645418503
    H            1.083986649843    -0.078455703718     1.013888830249
    H            0.768267140051    -1.765733967179     0.693371209172
    C           -1.395526241924    -0.299855837426    -0.262906567943
    H            0.336778856891     0.508933096065    -1.287409353905
    H            0.049570412798    -1.159786812347    -1.625633223441
    C           -2.112166281588     0.978731697923    -0.702869680139
    H           -1.985627030366    -1.165425326481    -0.552753661461
    H           -1.363385337517    -0.314403828858     0.824930368104
    C           -3.538877142615     1.091176890015    -0.163773798445
    H           -2.134363543645     1.025655513377    -1.790765329012
    H           -1.533237015374     1.840179100121    -0.373980064456
    C           -4.240371319482     2.379514518865    -0.592674895985
    H           -4.119467991914     0.235015536017    -0.500885285141
    H           -3.518508255290     1.036356352624     0.922784593880
    H           -4.308603896728     2.447048402241    -1.674800151269
    H           -5.248969994473     2.430225599130    -0.194195038824
    H           -3.701656385876     3.255054899443    -0.241313099342

  Mulliken Charges: (a.u.)
   Center  Symbol    Alpha    Beta     Spin     Total
       1     H     0.27992  0.27992  0.00000  0.44016
       2     O     4.37094  4.37094  0.00000 -0.74187
       3     C     2.99732  2.99732  0.00000  0.00537
       4     C     3.16210  3.16210  0.00000 -0.32419
       5     H     0.41440  0.41440  0.00000  0.17120
       6     H     0.43200  0.43200  0.00000  0.13599
       7     C     3.16310  3.16310  0.00000 -0.32619
       8     H     0.41484  0.41484  0.00000  0.17033
       9     H     0.42410  0.42410  0.00000  0.15181
      10     C     3.15377  3.15377  0.00000 -0.30753
      11     H     0.42502  0.42502  0.00000  0.14995
      12     H     0.42418  0.42418  0.00000  0.15164
      13     C     3.15471  3.15471  0.00000 -0.30943
      14     H     0.41874  0.41874  0.00000  0.16252
      15     H     0.42117  0.42117  0.00000  0.15766
      16     C     3.15267  3.15267  0.00000 -0.30534
      17     H     0.42069  0.42069  0.00000  0.15863
      18     H     0.42290  0.42290  0.00000  0.15419
      19     C     3.15215  3.15215  0.00000 -0.30429
      20     H     0.42346  0.42346  0.00000  0.15307
      21     H     0.42341  0.42341  0.00000  0.15319
      22     C     3.23920  3.23920  0.00000 -0.47840
      23     H     0.42310  0.42310  0.00000  0.15379
      24     H     0.42340  0.42340  0.00000  0.15321
      25     H     0.42168  0.42168  0.00000  0.15663
      26     H     0.41937  0.41937  0.00000  0.16126
      27     H     0.42167  0.42167  0.00000  0.15666

   Total alpha = 37.00000, Total beta = 37.00000, Total charge =  0.00000
