  ==> Input File <==

--------------------------------------------------------------------------
set {
	reference rhf
	basis 6-31G*
}

set_num_threads( 4 )
memory 2 gb

molecule MOL {
0 1

H	 -2.446600	 -1.262024	 -0.517296
C	 -2.821830	 -0.369455	 -1.033189
C	 -2.660244	 0.921717	 -0.272021
O	 -3.312160	 -0.464635	 -2.111274
C	 -1.220012	 1.144545	 0.209990
H	 -2.999944	 1.735284	 -0.902435
H	 -3.322665	 0.869180	 0.591167
C	 -0.252658	 0.041456	 -0.226725
H	 -0.873521	 2.100229	 -0.171974
H	 -1.211708	 1.231594	 1.295398
C	 1.180775	 0.282413	 0.250794
H	 -0.266029	 -0.034465	 -1.312038
H	 -0.597733	 -0.921000	 0.146291
C	 2.148627	 -0.814315	 -0.201312
H	 1.516199	 1.249228	 -0.115937
H	 1.192670	 0.346017	 1.338083
C	 3.580890	 -0.659131	 0.322722
H	 2.166869	 -0.852443	 -1.289387
H	 1.762857	 -1.776509	 0.128956
C	 4.324889	 0.564933	 -0.213704
H	 4.142010	 -1.551473	 0.056605
H	 3.564836	 -0.624694	 1.410140
H	 4.342616	 0.565491	 -1.300421
H	 3.866655	 1.493402	 0.110242
H	 5.353900	 0.572371	 0.132816

	symmetry c1
}
set optking {
	frozen_dihedral = ("
		6 3 5 8
	")
}

ee = optimize('scf')
oeprop('DIPOLE', 'QUADRUPOLE', 'MULLIKEN_CHARGES')
f=open( 'psi4out.xyz', 'w' )
f.write( "25  " )
f.write( str(ee) + "\n" )
f.write( MOL.save_string_xyz() )
f.close()
--------------------------------------------------------------------------

    Molecular point group: c1
  Charge       = 0
  Multiplicity = 1
  Basis Set: 6-31G*
  Basis Set:
  @DF-RHF Final Energy:  -387.11033936377640
    Total Energy =                       -387.1103393637768022
    Molecular point group: c1
  Basis Set: 6-31G*
  Basis Set:
  Basis Set: 6-31G*
  Basis Set:
  @DF-RHF Final Energy:  -387.11046473905049
    Total Energy =                       -387.1104647390502578
  Basis Set: 6-31G*
  Basis Set:
  Basis Set: 6-31G*
  Basis Set:
  @DF-RHF Final Energy:  -387.11304624460774
    Total Energy =                       -387.1130462446072897
  Basis Set: 6-31G*
  Basis Set:
  Basis Set: 6-31G*
  Basis Set:
  @DF-RHF Final Energy:  -387.11147012160967
    Total Energy =                       -387.1114701216096137
  Basis Set: 6-31G*
  Basis Set:
  @DF-RHF Final Energy:  -387.11329424484632
    Total Energy =                       -387.1132942448460881
  @DF-RHF Final Energy:  -387.11373660623138
    Total Energy =                       -387.1137366062312140
  Basis Set: 6-31G*
  Basis Set:
  @DF-RHF Final Energy:  -387.11372349867878
    Total Energy =                       -387.1137234986790645
  Basis Set: 6-31G*
  Basis Set:
  Basis Set: 6-31G*
  Basis Set:
  @DF-RHF Final Energy:  -387.11375755914736
    Total Energy =                       -387.1137575591471887
  Basis Set: 6-31G*
  Basis Set:
  Basis Set: 6-31G*
  Basis Set:
  @DF-RHF Final Energy:  -387.11376079326766
    Total Energy =                       -387.1137607932673745
  Basis Set: 6-31G*
  Basis Set:
  Charge       = 0
  Multiplicity = 1
  Basis Set: 6-31G*
  Basis Set:

    Orbital Energies (a.u.)
    -----------------------

    Doubly Occupied:

       1A    -20.560602     2A    -11.325161     3A    -11.235309
       4A    -11.234028     5A    -11.226727     6A    -11.221041
       7A    -11.218807     8A    -11.218038     9A    -11.210879
      10A     -1.400550    11A     -1.102414    12A     -1.066922
      13A     -1.012490    14A     -0.943195    15A     -0.877513
      16A     -0.831130    17A     -0.783023    18A     -0.772908
      19A     -0.676067    20A     -0.653064    21A     -0.629060
      22A     -0.624397    23A     -0.609502    24A     -0.588434
      25A     -0.574465    26A     -0.554664    27A     -0.537017
      28A     -0.522387    29A     -0.506552    30A     -0.496993
      31A     -0.492561    32A     -0.472594    33A     -0.465400
      34A     -0.460287    35A     -0.443023    36A     -0.407421

  @DF-RHF Final Energy:  -387.11376147902996

   => Energetics <=

    Nuclear Repulsion Energy =            440.3590103996313587
    One-Electron Energy =               -1397.0362957442057450
    Two-Electron Energy =                 569.5635238655440844
    DFT Exchange-Correlation Energy =       0.0000000000000000
    Empirical Dispersion Energy =           0.0000000000000000
    PCM Polarization Energy =               0.0000000000000000
    EFP Energy =                            0.0000000000000000
    Total Energy =                       -387.1137614790302450
    Molecular point group: c1
  Basis Set: 6-31G*
  Basis Set:

  -Total Gradient:
     Atom            X                  Y                   Z
    ------   -----------------  -----------------  -----------------
       1        0.000032492592    -0.000011167164     0.000023813361
       2       -0.000008091964    -0.000018912785    -0.000053237162
       3        0.000090127981    -0.000248958612    -0.000244321884
       4        0.000043013032     0.000015168074     0.000068521687
       5        0.000091091697     0.000290667602    -0.000322573571
       6       -0.000117828750     0.000188263930     0.000323419501
       7        0.000007385045    -0.000032616625    -0.000008442310
       8       -0.000080391053    -0.000151078759     0.000232989964
       9        0.000038831714     0.000015084835    -0.000009694511
      10       -0.000055940560    -0.000019343768    -0.000008012255
      11       -0.000035802028    -0.000022603682     0.000016411933
      12        0.000002344491    -0.000010971690    -0.000022969069
      13       -0.000024369631     0.000005402256     0.000011779086
      14        0.000016342692     0.000019979829    -0.000025761284
      15       -0.000024537134    -0.000013223612     0.000010615089
      16       -0.000000356657    -0.000005388045     0.000017725886
      17       -0.000003861164     0.000005304817     0.000000590301
      18        0.000001617551     0.000002166026    -0.000006651056
      19        0.000013723964     0.000000575955    -0.000001346978
      20        0.000010982832    -0.000003704235    -0.000005777006
      21       -0.000001659949    -0.000006184404     0.000007878185
      22       -0.000006618504     0.000009680763     0.000000255777
      23       -0.000000539070     0.000003948758    -0.000004777846
      24        0.000012002182    -0.000008711622     0.000002736028
      25        0.000000040696    -0.000003377840    -0.000003171868

  **** Optimization is complete! (in 10 steps) ****
    Final optimized geometry and variables:
    Molecular point group: c1

    Geometry (in Angstrom), charge = 0, multiplicity = 1:

    H           -2.966788194704    -1.356141098001    -0.180303204124
    C           -3.075228532164    -0.399541406193    -0.700965880533
    C           -2.792223115110     0.835150523137     0.119822191667
    O           -3.419975842101    -0.379094645390    -1.838593235403
    C           -1.324600505167     0.983173130808     0.618956178494
    H           -3.080070122485     1.687717811185    -0.481943524399
    H           -3.464027960992     0.801161140534     0.974582680411
    C           -0.344620150877    -0.114252607752     0.185051424812
    H           -0.945935842151     1.937012063604     0.266939344006
    H           -1.320947334593     1.041301248678     1.702694881785
    C            1.086809323595     0.174980666219     0.642156248430
    H           -0.360441289511    -0.214776439307    -0.898309090254
    H           -0.655487516604    -1.075152642215     0.588942711000
    C            2.076333484152    -0.913685803888     0.218109085054
    H            1.396269196181     1.136589008787     0.241403576627
    H            1.104889212547     0.273969047010     1.726563135855
    C            3.508223446206    -0.708901130518     0.725959228436
    H            2.088321881167    -0.985850518861    -0.868141780158
    H            1.715552016341    -1.873658487468     0.581715841385
    C            4.220810946617     0.513064576097     0.143474448130
    H            4.087459877523    -1.597055844235     0.486162422051
    H            3.497998631326    -0.638215754342     1.811790679934
    H            4.234526069760     0.475830067549    -0.942486664142
    H            3.742239722731     1.441545932674     0.436803992689
    H            5.250518124055     0.556848478166     0.484561641378

  Mulliken Charges: (a.u.)
   Center  Symbol    Alpha    Beta     Spin     Total
       1     H     0.42999  0.42999  0.00000  0.14003
       2     C     2.83449  2.83449  0.00000  0.33103
       3     C     3.21201  3.21201  0.00000 -0.42402
       4     O     4.23745  4.23745  0.00000 -0.47489
       5     C     3.15836  3.15836  0.00000 -0.31672
       6     H     0.39758  0.39758  0.00000  0.20484
       7     H     0.40943  0.40943  0.00000  0.18114
       8     C     3.16614  3.16614  0.00000 -0.33228
       9     H     0.41161  0.41161  0.00000  0.17677
      10     H     0.41567  0.41567  0.00000  0.16865
      11     C     3.15366  3.15366  0.00000 -0.30732
      12     H     0.41386  0.41386  0.00000  0.17228
      13     H     0.42188  0.42188  0.00000  0.15624
      14     C     3.15319  3.15319  0.00000 -0.30638
      15     H     0.41940  0.41940  0.00000  0.16120
      16     H     0.42335  0.42335  0.00000  0.15331
      17     C     3.15278  3.15278  0.00000 -0.30556
      18     H     0.42197  0.42197  0.00000  0.15607
      19     H     0.42205  0.42205  0.00000  0.15591
      20     C     3.24149  3.24149  0.00000 -0.48299
      21     H     0.41995  0.41995  0.00000  0.16010
      22     H     0.42336  0.42336  0.00000  0.15328
      23     H     0.42134  0.42134  0.00000  0.15732
      24     H     0.42044  0.42044  0.00000  0.15913
      25     H     0.41857  0.41857  0.00000  0.16286

   Total alpha = 36.00000, Total beta = 36.00000, Total charge =  0.00000
