  ==> Input File <==

--------------------------------------------------------------------------
set {
	reference rhf
	basis 6-31G*
}

set_num_threads( 4 )
memory 2 gb

molecule MOL {
0 1

H	 -2.564913	 -0.481154	 -0.352149
N	 -1.852125	 0.165761	 -0.074816
C	 -0.563778	 -0.502042	 0.037919
H	 -2.131440	 0.542187	 0.811210
C	 0.575259	 0.508231	 -0.048326
H	 -0.482092	 -1.204004	 -0.786564
H	 -0.460411	 -1.085169	 0.956626
C	 1.954651	 -0.143624	 0.035137
H	 0.475158	 1.060484	 -0.977307
H	 0.469181	 1.234488	 0.755973
H	 2.103292	 -0.853109	 -0.774172
H	 2.742821	 0.599562	 -0.030094
H	 2.083613	 -0.679371	 0.971560

	symmetry c1
}
set optking {
	frozen_dihedral = ("
		1 2 3 6
	")
}

ee = optimize('scf')
oeprop('DIPOLE', 'QUADRUPOLE', 'MULLIKEN_CHARGES')
f=open( 'psi4out.xyz', 'w' )
f.write( "13  " )
f.write( str(ee) + "\n" )
f.write( MOL.save_string_xyz() )
f.close()
--------------------------------------------------------------------------

    Molecular point group: c1
  Charge       = 0
  Multiplicity = 1
  Basis Set: 6-31G*
  Basis Set:
  @DF-RHF Final Energy:  -173.28172884477829
    Total Energy =                       -173.2817288447783426
    Molecular point group: c1
  Basis Set: 6-31G*
  Basis Set:
  Basis Set: 6-31G*
  Basis Set:
  @DF-RHF Final Energy:  -173.28181454540191
    Total Energy =                       -173.2818145454018577
  Basis Set: 6-31G*
  Basis Set:
  Basis Set: 6-31G*
  Basis Set:
  @DF-RHF Final Energy:  -173.28183550561016
    Total Energy =                       -173.2818355056101609
  Basis Set: 6-31G*
  Basis Set:
  Basis Set: 6-31G*
  Basis Set:
  @DF-RHF Final Energy:  -173.28183682485042
    Total Energy =                       -173.2818368248504157
  Basis Set: 6-31G*
  Basis Set:
  Charge       = 0
  Multiplicity = 1
  Basis Set: 6-31G*
  Basis Set:

    Orbital Energies (a.u.)
    -----------------------

    Doubly Occupied:

       1A    -15.531942     2A    -11.240288     3A    -11.209181
       4A    -11.207651     5A     -1.175490     6A     -1.033717
       7A     -0.898163     8A     -0.797483     9A     -0.668274
      10A     -0.622000    11A     -0.602605    12A     -0.568740
      13A     -0.525396    14A     -0.490212    15A     -0.480044
      16A     -0.466548    17A     -0.378814

  @DF-RHF Final Energy:  -173.28183736246748

   => Energetics <=

    Nuclear Repulsion Energy =            131.6555427607122795
    One-Electron Energy =                -494.0816644084567884
    Two-Electron Energy =                 189.1442842852769388
    DFT Exchange-Correlation Energy =       0.0000000000000000
    Empirical Dispersion Energy =           0.0000000000000000
    PCM Polarization Energy =               0.0000000000000000
    EFP Energy =                            0.0000000000000000
    Total Energy =                       -173.2818373624675417
    Molecular point group: c1
  Basis Set: 6-31G*
  Basis Set:

  -Total Gradient:
     Atom            X                  Y                   Z
    ------   -----------------  -----------------  -----------------
       1        0.000393188236     0.000447560934    -0.002051448058
       2       -0.000665764460    -0.000835091209     0.002823313036
       3        0.001057340316     0.001793411220    -0.001887977198
       4        0.000004395146    -0.000012373624    -0.000007486739
       5       -0.000040554134    -0.000033681442     0.000014319055
       6       -0.000775671723    -0.001381084246     0.001081604710
       7        0.000018841237     0.000015384740     0.000016977623
       8        0.000006706795     0.000007836221    -0.000004510302
       9       -0.000001938807    -0.000011937959     0.000003130278
      10        0.000004348063     0.000002563724     0.000008950017
      11       -0.000009339776     0.000004473098     0.000006647491
      12        0.000009956446    -0.000003462725    -0.000002923627
      13       -0.000001507342     0.000006401270    -0.000000596285

  **** Optimization is complete! (in 5 steps) ****
    Final optimized geometry and variables:
    Molecular point group: c1

    Geometry (in Angstrom), charge = 0, multiplicity = 1:

    H           -2.573352312779    -0.480384631208    -0.327775872701
    N           -1.854269435386     0.162781464991    -0.062933358441
    C           -0.560536161355    -0.498544067103     0.029429083569
    H           -2.118109598045     0.571601396760     0.811948091366
    C            0.577554375820     0.513034415223    -0.049228541496
    H           -0.485609652216    -1.201421707914    -0.794882775438
    H           -0.452804302008    -1.092007932152     0.940822287552
    C            1.957508015771    -0.136533094879     0.042607275461
    H            0.481237743179     1.066509723387    -0.977805553030
    H            0.462276257889     1.238153640026     0.754200923353
    H            2.112099961909    -0.847179595917    -0.764817010957
    H            2.745376167434     0.607320336041    -0.019176756324
    H            2.082409206885    -0.671191843043     0.980336015895

  Mulliken Charges: (a.u.)
   Center  Symbol    Alpha    Beta     Spin     Total
       1     H     0.33126  0.33126  0.00000  0.33747
       2     N     3.92446  3.92446  0.00000 -0.84893
       3     C     3.06159  3.06159  0.00000 -0.12317
       4     H     0.33362  0.33362  0.00000  0.33275
       5     C     3.14572  3.14572  0.00000 -0.29144
       6     H     0.42220  0.42220  0.00000  0.15561
       7     H     0.43400  0.43400  0.00000  0.13199
       8     C     3.24478  3.24478  0.00000 -0.48957
       9     H     0.41397  0.41397  0.00000  0.17207
      10     H     0.42591  0.42591  0.00000  0.14818
      11     H     0.42192  0.42192  0.00000  0.15616
      12     H     0.41781  0.41781  0.00000  0.16438
      13     H     0.42275  0.42275  0.00000  0.15449

   Total alpha = 17.00000, Total beta = 17.00000, Total charge = -0.00000
