                              Psi4 1.0.54 Driver

  ==> Input File <==

--------------------------------------------------------------------------
set {
	reference rhf
	basis cc-pvtz
}

set_num_threads( 4 )
memory 2 gb

molecule MOL {
0 1

H	 3.514596	 0.918763	 0.607550
O	 2.607490	 0.782686	 0.836328
C	 2.076458	 -0.067370	 -0.038225
C	 0.626018	 -0.337582	 0.258241
O	 2.705637	 -0.530035	 -0.925871
C	 -0.267326	 0.883135	 0.076490
H	 0.325620	 -1.161483	 -0.378003
H	 0.574537	 -0.713685	 1.275261
C	 -1.726822	 0.642622	 0.463839
H	 -0.210803	 1.217591	 -0.953497
H	 0.129920	 1.693110	 0.675679
C	 -2.480891	 -0.340606	 -0.429852
H	 -2.243098	 1.597649	 0.438609
H	 -1.776542	 0.301208	 1.495542
C	 -3.955933	 -0.460128	 -0.060472
H	 -2.393755	 -0.020485	 -1.464726
H	 -2.024244	 -1.323637	 -0.374360
H	 -4.467673	 -1.160944	 -0.709827
H	 -4.458917	 0.497287	 -0.144505
H	 -4.076458	 -0.806900	 0.960497

	symmetry c1
}
set optking {
	frozen_dihedral = ("
		5 3 4 7
	")
}

ee,wfn = optimize('scf', return_wfn=True)
oeprop( wfn, 'DIPOLE', 'QUADRUPOLE', 'MULLIKEN_CHARGES')
f=open( 'psi4out.xyz', 'w' )
f.write( "20  " )
f.write( str(ee) + "\n" )
f.write( MOL.save_string_xyz() )
f.close()
--------------------------------------------------------------------------

    Molecular point group: c1
  Charge       = 0
  Multiplicity = 1
  Basis Set: CC-PVTZ
  Basis Set:
  @DF-RHF Final Energy:  -384.09334157833996
    Total Energy =                       -384.0933415783403007
    Molecular point group: c1
  Basis Set: CC-PVTZ
  Basis Set:
  Basis Set: CC-PVTZ
  Basis Set:
  @DF-RHF Final Energy:  -384.09371244898978
    Total Energy =                       -384.0937124489894359
  Basis Set: CC-PVTZ
  Basis Set:
  Basis Set: CC-PVTZ
  Basis Set:
  @DF-RHF Final Energy:  -384.09369048911827
    Total Energy =                       -384.0936904891184440
  Basis Set: CC-PVTZ
  Basis Set:
  Basis Set: CC-PVTZ
  Basis Set:
  @DF-RHF Final Energy:  -384.09367513603451
    Total Energy =                       -384.0936751360347898
  Basis Set: CC-PVTZ
  Basis Set:
  Basis Set: CC-PVTZ
  Basis Set:
  @DF-RHF Final Energy:  -384.09375799010979
    Total Energy =                       -384.0937579901095091
  Basis Set: CC-PVTZ
  Basis Set:
  Charge       = 0
  Multiplicity = 1
  Basis Set: CC-PVTZ
  Basis Set:

    Orbital Energies (a.u.)
    -----------------------

    Doubly Occupied:

       1A    -20.604073     2A    -20.538899     3A    -11.372085
       4A    -11.237136     5A    -11.230396     6A    -11.222223
       7A    -11.219692     8A    -11.211614     9A     -1.476782
      10A     -1.367482    11A     -1.100711    12A     -1.043420
      13A     -0.961857    14A     -0.865085    15A     -0.825704
      16A     -0.790414    17A     -0.704984    18A     -0.689372
      19A     -0.645675    20A     -0.637833    21A     -0.621114
      22A     -0.594389    23A     -0.580325    24A     -0.554925
      25A     -0.542061    26A     -0.522099    27A     -0.499614
      28A     -0.485205    29A     -0.479994    30A     -0.470856
      31A     -0.459760    32A     -0.437570

  @DF-RHF Final Energy:  -384.09375865267612

   => Energetics <=

    Nuclear Repulsion Energy =            377.1452768109493263
    One-Electron Energy =               -1270.4913741609746012
    Two-Electron Energy =                 509.2523386973485913
    DFT Exchange-Correlation Energy =       0.0000000000000000
    Empirical Dispersion Energy =           0.0000000000000000
    PCM Polarization Energy =               0.0000000000000000
    EFP Energy =                            0.0000000000000000
    Total Energy =                       -384.0937586526766836
    Molecular point group: c1
  Basis Set: CC-PVTZ
  Basis Set:

  -Total Gradient:
     Atom            X                  Y                   Z
    ------   -----------------  -----------------  -----------------
       1        0.000080578038     0.000084220843     0.000049005089
       2        0.000175001064    -0.000178883093    -0.000100360722
       3       -0.000333457001     0.000528118452    -0.000527311315
       4        0.000000947492    -0.000016744509     0.000120635721
       5        0.000198539554    -0.000194830496     0.000454492548
       6        0.000030396743    -0.000209167173     0.000268353096
       7       -0.000170340706    -0.000077424732    -0.000184131006
       8        0.000001505240    -0.000072257194    -0.000007005855
       9       -0.000028406288     0.000056693751    -0.000069563350
      10       -0.000035660224    -0.000104495501     0.000063189990
      11       -0.000066072067     0.000143821636    -0.000008039697
      12        0.000013314152    -0.000025491630    -0.000050786797
      13       -0.000011343881     0.000000096923     0.000024809715
      14        0.000098655363     0.000003554644    -0.000052979728
      15        0.000011458635     0.000048291828     0.000010969427
      16        0.000007189838    -0.000025093689    -0.000009097325
      17       -0.000018835924     0.000035737233     0.000002760766
      18        0.000048156161     0.000030918088     0.000016582240
      19        0.000004171210    -0.000033275167     0.000007443633
      20       -0.000005797395     0.000006209788    -0.000008966426

  **** Optimization is complete! (in 6 steps) ****
    Final optimized geometry and variables:
    Molecular point group: c1

    Geometry (in Angstrom), charge = 0, multiplicity = 1:

    H            3.536742957276     0.842940268610     0.537806605795
    O            2.640689914754     0.696016562354     0.800994562220
    C            2.078649108447    -0.140778779673    -0.067176477194
    C            0.638096983363    -0.428894087707     0.257247464876
    O            2.678125024556    -0.589587796068    -0.982736925443
    C           -0.255252643533     0.803726713277     0.070135700260
    H            0.329757035474    -1.239695920161    -0.384089047101
    H            0.586935743351    -0.762808410407     1.287910098521
    C           -1.718821754130     0.565695871201     0.442599858561
    H           -0.194493547932     1.131302205826    -0.963608111518
    H            0.133957324268     1.611936251073     0.677118055255
    C           -2.465150807304    -0.417130708479    -0.457532841237
    H           -2.232487871434     1.522149152926     0.412219265982
    H           -1.775022653055     0.225556476822     1.473939133466
    C           -3.942737855407    -0.535922464820    -0.098342923835
    H           -2.370079855724    -0.097358788992    -1.491719913273
    H           -2.008489833782    -1.399413211402    -0.398676506706
    H           -4.448462175340    -1.239292379632    -0.749345581337
    H           -4.446198925783     0.420594808673    -0.189370619097
    H           -4.070843152390    -0.879654218144     0.922720168683

  Mulliken Charges: (a.u.)
   Center  Symbol    Alpha    Beta     Spin     Total
       1     H     0.38052  0.38052  0.00000  0.23896
       2     O     4.16365  4.16365  0.00000 -0.32731
       3     C     2.80503  2.80503  0.00000  0.38993
       4     C     3.09123  3.09123  0.00000 -0.18246
       5     O     4.19409  4.19409  0.00000 -0.38818
       6     C     3.11156  3.11156  0.00000 -0.22312
       7     H     0.43556  0.43556  0.00000  0.12888
       8     H     0.44388  0.44388  0.00000  0.11224
       9     C     3.09803  3.09803  0.00000 -0.19606
      10     H     0.44583  0.44583  0.00000  0.10833
      11     H     0.43589  0.43589  0.00000  0.12822
      12     C     3.08640  3.08640  0.00000 -0.17281
      13     H     0.44612  0.44612  0.00000  0.10776
      14     H     0.45250  0.45250  0.00000  0.09500
      15     C     3.14974  3.14974  0.00000 -0.29947
      16     H     0.45189  0.45189  0.00000  0.09623
      17     H     0.45233  0.45233  0.00000  0.09534
      18     H     0.44704  0.44704  0.00000  0.10592
      19     H     0.45395  0.45395  0.00000  0.09210
      20     H     0.45475  0.45475  0.00000  0.09050

   Total alpha = 32.00000, Total beta = 32.00000, Total charge =  0.00000

*** Psi4 exiting successfully. Buy a developer a beer!
