  ==> Input File <==

--------------------------------------------------------------------------
set {
	reference rhf
	basis 6-31G*
}

set_num_threads( 1 )
memory 2 gb

molecule MOL {
0 1

H	 3.274207	 0.145534	 0.104759
N	 2.434251	 -0.367735	 -0.081097
C	 1.267428	 0.496480	 0.024474
H	 2.388618	 -1.103807	 0.597894
C	 -0.016086	 -0.325158	 -0.029487
H	 1.288818	 1.183521	 -0.816092
H	 1.267576	 1.109062	 0.929528
C	 -1.282277	 0.529072	 0.046735
H	 -0.012495	 -0.908639	 -0.945788
H	 -0.015903	 -1.041248	 0.791956
C	 -2.563920	 -0.301775	 -0.006060
H	 -1.284084	 1.244622	 -0.773004
H	 -1.271387	 1.115393	 0.963286
H	 -2.621848	 -0.873522	 -0.927727
H	 -3.445135	 0.329952	 0.047812
H	 -2.609542	 -1.004582	 0.821105

	symmetry c1
}
set optking {
	frozen_dihedral = ("
		6 3 5 9,
		12 8 5 9
	")
}

ee = energy('scf')
oeprop('DIPOLE', 'QUADRUPOLE', 'MULLIKEN_CHARGES')
f=open( 'psi4out.xyz', 'w' )
f.write( "16  " )
f.write( str(ee) + "\n" )
f.write( MOL.save_string_xyz() )
f.close()
--------------------------------------------------------------------------

    Molecular point group: c1

    Geometry (in Angstrom), charge = 0, multiplicity = 1:

       Center              X                  Y                   Z               Mass
    ------------   -----------------  -----------------  -----------------  -----------------
           H          3.275797323512     0.147834895227     0.103496477955     1.007825032070
           N          2.435841323512    -0.365434104773    -0.082359522045    14.003074004780
           C          1.269018323512     0.498780895227     0.023211477955    12.000000000000
           H          2.390208323512    -1.101506104773     0.596631477955     1.007825032070
           C         -0.014495676488    -0.322857104773    -0.030749522045    12.000000000000
           H          1.290408323512     1.185821895227    -0.817354522045     1.007825032070
           H          1.269166323512     1.111362895227     0.928265477955     1.007825032070
           C         -1.280686676488     0.531372895227     0.045472477955    12.000000000000
           H         -0.010904676488    -0.906338104773    -0.947050522045     1.007825032070
           H         -0.014312676488    -1.038947104773     0.790693477955     1.007825032070
           C         -2.562329676488    -0.299474104773    -0.007322522045    12.000000000000
           H         -1.282493676488     1.246922895227    -0.774266522045     1.007825032070
           H         -1.269796676488     1.117693895227     0.962023477955     1.007825032070
           H         -2.620257676488    -0.871221104773    -0.928989522045     1.007825032070
           H         -3.443544676488     0.332252895227     0.046549477955     1.007825032070
           H         -2.607951676488    -1.002281104773     0.819842477955     1.007825032070

  Charge       = 0
  Multiplicity = 1
  Basis Set: 6-31G*
  Basis Set:

    Orbital Energies (a.u.)
    -----------------------

    Doubly Occupied:

       1A    -15.531980     2A    -11.239615     3A    -11.216449
       4A    -11.212254     5A    -11.208934     6A     -1.176731
       7A     -1.060623     8A     -0.959306     9A     -0.844479
      10A     -0.794355    11A     -0.658880    12A     -0.642701
      13A     -0.604005    14A     -0.574930    15A     -0.568814
      16A     -0.523707    17A     -0.504166    18A     -0.471520
      19A     -0.466162    20A     -0.460987    21A     -0.380876

  @DF-RHF Final Energy:  -212.31654275246137

   => Energetics <=

    Nuclear Repulsion Energy =            186.3531445594329057
    One-Electron Energy =                -655.1364728896788847
    Two-Electron Energy =                 256.4667855777847763
    DFT Exchange-Correlation Energy =       0.0000000000000000
    Empirical Dispersion Energy =           0.0000000000000000
    PCM Polarization Energy =               0.0000000000000000
    EFP Energy =                            0.0000000000000000
    Total Energy =                       -212.3165427524612028

  Mulliken Charges: (a.u.)
   Center  Symbol    Alpha    Beta     Spin     Total
       1     H     0.33284  0.33284  0.00000  0.33432
       2     N     3.92273  3.92273  0.00000 -0.84547
       3     C     3.05614  3.05614  0.00000 -0.11227
       4     H     0.33560  0.33560  0.00000  0.32880
       5     C     3.15558  3.15558  0.00000 -0.31115
       6     H     0.42023  0.42023  0.00000  0.15954
       7     H     0.43516  0.43516  0.00000  0.12969
       8     C     3.15505  3.15505  0.00000 -0.31010
       9     H     0.41301  0.41301  0.00000  0.17399
      10     H     0.42810  0.42810  0.00000  0.14381
      11     C     3.23894  3.23894  0.00000 -0.47788
      12     H     0.42172  0.42172  0.00000  0.15656
      13     H     0.42327  0.42327  0.00000  0.15346
      14     H     0.42043  0.42043  0.00000  0.15915
      15     H     0.41926  0.41926  0.00000  0.16148
      16     H     0.42196  0.42196  0.00000  0.15607

   Total alpha = 21.00000, Total beta = 21.00000, Total charge = -0.00000
