  ==> Input File <==

--------------------------------------------------------------------------
set {
	reference rhf
	basis cc-pvtz
}

set_num_threads( 4 )
memory 2 gb

molecule MOL {
0 1

O	 -0.294688	 1.318815	 -0.000872
C	 -0.448732	 0.145721	 -0.000187
C	 -1.780748	 -0.548101	 0.000195
O	 0.550743	 -0.719877	 0.000412
H	 -1.859389	 -1.183260	 -0.872613
H	 -2.570236	 0.185547	 -0.001342
H	 -1.860233	 -1.180337	 0.875064
C	 0.230261	 -2.079684	 -0.217033
H	 -0.437570	 -2.440782	 0.550846
H	 1.164980	 -2.615042	 -0.179948
H	 -0.237261	 -2.211018	 -1.181500

	symmetry c1
}
set optking {
	frozen_dihedral = ("
		8 4 2 1
	")
}

ee = optimize('scf')
oeprop('DIPOLE', 'QUADRUPOLE', 'MULLIKEN_CHARGES')
f=open( 'psi4out.xyz', 'w' )
f.write( "11  " )
f.write( str(ee) + "\n" )
f.write( MOL.save_string_xyz() )
f.close()
--------------------------------------------------------------------------

    Molecular point group: c1
  Charge       = 0
  Multiplicity = 1
  Basis Set: CC-PVTZ
  Basis Set:
  @DF-RHF Final Energy:  -266.91525679209218
    Total Energy =                       -266.9152567920918955
    Molecular point group: c1
  Basis Set: CC-PVTZ
  Basis Set:
  Basis Set: CC-PVTZ
  Basis Set:
  @DF-RHF Final Energy:  -266.91441868411414
    Total Energy =                       -266.9144186841140822
  Basis Set: CC-PVTZ
  Basis Set:
  Basis Set: CC-PVTZ
  Basis Set:
  @DF-RHF Final Energy:  -266.92277145064793
    Total Energy =                       -266.9227714506478151
  Basis Set: CC-PVTZ
  Basis Set:
  Basis Set: CC-PVTZ
  Basis Set:
  @DF-RHF Final Energy:  -266.92460225171675
    Total Energy =                       -266.9246022517167489
  Basis Set: CC-PVTZ
  Basis Set:
  @DF-RHF Final Energy:  -266.92426792149649
    Total Energy =                       -266.9242679214967779
  Basis Set: CC-PVTZ
  Basis Set:
  @DF-RHF Final Energy:  -266.92457193979737
    Total Energy =                       -266.9245719397974312
  Basis Set: CC-PVTZ
  Basis Set:
  Basis Set: CC-PVTZ
  Basis Set:
  @DF-RHF Final Energy:  -266.92509443997074
    Total Energy =                       -266.9250944399705077
  Basis Set: CC-PVTZ
  Basis Set:
  Basis Set: CC-PVTZ
  Basis Set:
  @DF-RHF Final Energy:  -266.92509603747317
    Total Energy =                       -266.9250960374731108
  Basis Set: CC-PVTZ
  Basis Set:
  Charge       = 0
  Multiplicity = 1
  Basis Set: CC-PVTZ
  Basis Set:

    Orbital Energies (a.u.)
    -----------------------

    Doubly Occupied:

       1A    -20.597725     2A    -20.529489     3A    -11.370703
       4A    -11.295705     5A    -11.242931     6A     -1.468694
       7A     -1.369855     8A     -1.023462     9A     -0.986300
      10A     -0.785807    11A     -0.701050    12A     -0.689973
      13A     -0.681668    14A     -0.602557    15A     -0.596985
      16A     -0.577917    17A     -0.548748    18A     -0.519380
      19A     -0.452897    20A     -0.439408

  @DF-RHF Final Energy:  -266.92509680955675

   => Energetics <=

    Nuclear Repulsion Energy =            183.2982455577914322
    One-Electron Energy =                -727.4841812653183979
    Two-Electron Energy =                 277.2608388979701317
    DFT Exchange-Correlation Energy =       0.0000000000000000
    Empirical Dispersion Energy =           0.0000000000000000
    PCM Polarization Energy =               0.0000000000000000
    EFP Energy =                            0.0000000000000000
    Total Energy =                       -266.9250968095568055
    Molecular point group: c1
  Basis Set: CC-PVTZ
  Basis Set:

  -Total Gradient:
     Atom            X                  Y                   Z
    ------   -----------------  -----------------  -----------------
       1        0.000021452195     0.000033545935    -0.001095717229
       2        0.000112394641    -0.000021216145     0.001028756836
       3       -0.000007164444    -0.000003397498    -0.000008382368
       4       -0.000231950035    -0.000141126006     0.000986711783
       5       -0.000006170140    -0.000012359475    -0.000002439780
       6        0.000012914697    -0.000000114980     0.000002064545
       7        0.000000709713    -0.000005123618     0.000006008505
       8        0.000104036826     0.000127009679    -0.000909031562
       9       -0.000006027080    -0.000009211551    -0.000003092683
      10        0.000002631790     0.000004272526    -0.000001972595
      11       -0.000002828162     0.000027721132    -0.000002905451

  **** Optimization is complete! (in 9 steps) ****
    Final optimized geometry and variables:
    Molecular point group: c1

    Geometry (in Angstrom), charge = 0, multiplicity = 1:

    O            0.085519632017     1.680318689318     0.047662577477
    C           -0.139764412311     0.523673694528     0.042855164087
    C           -1.541593384388    -0.034226389090     0.060314025345
    O            0.875362104758    -0.336634826133     0.036556194503
    H           -1.731813187516    -0.642718280310    -0.814417211191
    H           -2.230000705345     0.793657062062     0.078225633840
    H           -1.695429173437    -0.652065033960     0.936162172535
    C            0.703188356597    -1.715032626392    -0.174517206140
    H            0.085430864494    -2.167353779375     0.589724993937
    H            1.689062982324    -2.147653132802    -0.126840170457
    H            0.279754709089    -1.916270377865    -1.149939834188

  Mulliken Charges: (a.u.)
   Center  Symbol    Alpha    Beta     Spin     Total
       1     O     4.18009  4.18009  0.00000 -0.36018
       2     C     2.81181  2.81181  0.00000  0.37639
       3     C     3.16628  3.16628  0.00000 -0.33256
       4     O     4.12706  4.12706  0.00000 -0.25412
       5     H     0.44786  0.44786  0.00000  0.10429
       6     H     0.42560  0.42560  0.00000  0.14879
       7     H     0.44543  0.44543  0.00000  0.10914
       8     C     3.04184  3.04184  0.00000 -0.08367
       9     H     0.46175  0.46175  0.00000  0.07651
      10     H     0.43267  0.43267  0.00000  0.13467
      11     H     0.45962  0.45962  0.00000  0.08075

   Total alpha = 20.00000, Total beta = 20.00000, Total charge =  0.00000
