                              Psi4 1.0.54 Driver

  ==> Input File <==

--------------------------------------------------------------------------
set {
	reference rhf
	basis cc-pvtz
}

set_num_threads( 4 )
memory 2 gb

molecule MOL {
0 1

O	 0.749630	 1.305591	 -0.000460
C	 0.576499	 0.134701	 -0.003900
C	 -0.765656	 -0.550508	 -0.002152
O	 1.564816	 -0.744612	 -0.000631
C	 -1.945526	 0.411052	 0.000603
H	 -0.794329	 -1.203792	 -0.868145
H	 -0.791555	 -1.205429	 0.862701
C	 -3.282915	 -0.321280	 0.002596
H	 -1.880300	 1.059126	 -0.864925
H	 -1.877207	 1.057892	 0.866807
H	 -3.388495	 -0.952755	 -0.873419
H	 -4.107811	 0.380864	 0.004116
H	 -3.385717	 -0.953283	 0.878571
C	 2.870499	 -0.252529	 0.225327
H	 3.147583	 0.457843	 -0.539297
H	 3.521575	 -1.110744	 0.189877
H	 2.935741	 0.225631	 1.191322

	symmetry c1
}
set optking {
	frozen_dihedral = ("
		14 4 2 1
	")
}

ee,wfn = optimize('scf', return_wfn=True)
oeprop( wfn, 'DIPOLE', 'QUADRUPOLE', 'MULLIKEN_CHARGES')
f=open( 'psi4out.xyz', 'w' )
f.write( "17  " )
f.write( str(ee) + "\n" )
f.write( MOL.save_string_xyz() )
f.close()
--------------------------------------------------------------------------

    Molecular point group: c1
  Charge       = 0
  Multiplicity = 1
  Basis Set: CC-PVTZ
  Basis Set:
  @DF-RHF Final Energy:  -345.03475748604399
    Total Energy =                       -345.0347574860438726
    Molecular point group: c1
  Basis Set: CC-PVTZ
  Basis Set:
  Basis Set: CC-PVTZ
  Basis Set:
  @DF-RHF Final Energy:  -345.03259284460745
    Total Energy =                       -345.0325928446072794
  Basis Set: CC-PVTZ
  Basis Set:
  Basis Set: CC-PVTZ
  Basis Set:
  @DF-RHF Final Energy:  -345.03485430629553
    Total Energy =                       -345.0348543062958129
  Basis Set: CC-PVTZ
  Basis Set:
  Basis Set: CC-PVTZ
  Basis Set:
  @DF-RHF Final Energy:  -345.03487246177298
    Total Energy =                       -345.0348724617730340
  Basis Set: CC-PVTZ
  Basis Set:
  Basis Set: CC-PVTZ
  Basis Set:
  @DF-RHF Final Energy:  -345.03487572915276
    Total Energy =                       -345.0348757291529864
  Basis Set: CC-PVTZ
  Basis Set:
  Basis Set: CC-PVTZ
  Basis Set:
  @DF-RHF Final Energy:  -345.03487872850116
    Total Energy =                       -345.0348787285015533
  Basis Set: CC-PVTZ
  Basis Set:
  Charge       = 0
  Multiplicity = 1
  Basis Set: CC-PVTZ
  Basis Set:

    Orbital Energies (a.u.)
    -----------------------

    Doubly Occupied:

       1A    -20.596199     2A    -20.534778     3A    -11.365070
       4A    -11.278987     5A    -11.234426     6A    -11.220163
       7A    -11.212790     8A     -1.472263     9A     -1.366297
      10A     -1.081799    11A     -1.002389    12A     -0.940550
      13A     -0.828045    14A     -0.769299    15A     -0.702594
      16A     -0.686391    17A     -0.676333    18A     -0.637710
      19A     -0.597392    20A     -0.575878    21A     -0.569371
      22A     -0.528884    23A     -0.523623    24A     -0.500405
      25A     -0.487841    26A     -0.479694    27A     -0.459954
      28A     -0.441352

  @DF-RHF Final Energy:  -345.03487932047017

   => Energetics <=

    Nuclear Repulsion Energy =            312.9892754318838115
    One-Electron Energy =               -1090.5073564308286223
    Two-Electron Energy =                 432.4832016784748703
    DFT Exchange-Correlation Energy =       0.0000000000000000
    Empirical Dispersion Energy =           0.0000000000000000
    PCM Polarization Energy =               0.0000000000000000
    EFP Energy =                            0.0000000000000000
    Total Energy =                       -345.0348793204699405
    Molecular point group: c1
  Basis Set: CC-PVTZ
  Basis Set:

  -Total Gradient:
     Atom            X                  Y                   Z
    ------   -----------------  -----------------  -----------------
       1       -0.000114197767     0.000152133802    -0.003249679556
       2        0.000028508145    -0.000430128007     0.006059386899
       3        0.000010400551     0.000016077477     0.000022423817
       4        0.000292015833     0.000765178191    -0.005361925397
       5        0.000002223545    -0.000012025695    -0.000003600228
       6        0.000003086749    -0.000004863975    -0.000002884549
       7        0.000006163827    -0.000006185724    -0.000004737910
       8       -0.000004030560    -0.000000370378     0.000001915080
       9        0.000004395273     0.000003637752    -0.000000248586
      10        0.000001050842     0.000004205673     0.000001445625
      11        0.000002666332    -0.000003444857     0.000001538841
      12        0.000012080548     0.000003143760     0.000000041743
      13        0.000002082650    -0.000004223476    -0.000001044574
      14       -0.000276079987    -0.000515050981     0.002573078561
      15        0.000009056857     0.000018641861    -0.000006332790
      16        0.000008379944     0.000000144347    -0.000009969651
      17        0.000012197221     0.000013130233    -0.000019407326

  **** Optimization is complete! (in 7 steps) ****
    Final optimized geometry and variables:
    Molecular point group: c1

    Geometry (in Angstrom), charge = 0, multiplicity = 1:

    O            0.750278289098     1.307713821189     0.043633115608
    C            0.577050821237     0.138066128028    -0.006646349586
    C           -0.764597101155    -0.548064971673    -0.006036666396
    O            1.565551812073    -0.737598641199    -0.096932101477
    C           -1.945390935902     0.412215936436    -0.017187919057
    H           -0.789175848413    -1.213161770674    -0.862692949788
    H           -0.792701014261    -1.191441519155     0.868025879594
    C           -3.282131490551    -0.321198171342    -0.009822314180
    H           -1.879106035449     1.049848006185    -0.890733316196
    H           -1.879439907373     1.069720777584     0.840989481799
    H           -3.385196964894    -0.963338696798    -0.878397069564
    H           -4.107620366825     0.380243800782    -0.018567424220
    H           -3.386378353507    -0.942752929383     0.873505711459
    C            2.880571454890    -0.252542138926     0.083920079772
    H            3.138838612256     0.454537270594    -0.690154320398
    H            3.526019250191    -1.114189446256     0.030645480751
    H            2.978680938866     0.227421917553     1.046670815787

  Mulliken Charges: (a.u.)
   Center  Symbol    Alpha    Beta     Spin     Total
       1     O     4.19597  4.19597  0.00000 -0.39195
       2     C     2.80657  2.80657  0.00000  0.38686
       3     C     3.09576  3.09576  0.00000 -0.19151
       4     O     4.14737  4.14737  0.00000 -0.29474
       5     C     3.07871  3.07871  0.00000 -0.15742
       6     H     0.43993  0.43993  0.00000  0.12014
       7     H     0.44228  0.44228  0.00000  0.11544
       8     C     3.15126  3.15126  0.00000 -0.30253
       9     H     0.44735  0.44735  0.00000  0.10529
      10     H     0.44614  0.44614  0.00000  0.10773
      11     H     0.45579  0.45579  0.00000  0.08843
      12     H     0.44558  0.44558  0.00000  0.10885
      13     H     0.45589  0.45589  0.00000  0.08823
      14     C     3.03731  3.03731  0.00000 -0.07463
      15     H     0.45249  0.45249  0.00000  0.09501
      16     H     0.44528  0.44528  0.00000  0.10945
      17     H     0.45633  0.45633  0.00000  0.08734

   Total alpha = 28.00000, Total beta = 28.00000, Total charge =  0.00000

*** Psi4 exiting successfully. Buy a developer a beer!
