                              Psi4 1.0.54 Driver

  ==> Input File <==

--------------------------------------------------------------------------
set {
	reference rhf
	basis cc-pvtz
}

set_num_threads( 4 )
memory 2 gb

molecule MOL {
0 1

H	 -3.184007	 -0.824531	 -0.687999
O	 -2.321472	 -0.864941	 -0.318626
C	 -2.021813	 0.336996	 0.342658
C	 -0.669613	 0.837286	 -0.127252
H	 -2.780861	 1.084746	 0.127159
H	 -2.006390	 0.184138	 1.420053
C	 0.490865	 -0.082543	 0.241244
H	 -0.708709	 0.967192	 -1.204587
H	 -0.507562	 1.822272	 0.303070
C	 1.839800	 0.429565	 -0.255472
H	 0.305636	 -1.070211	 -0.165276
H	 0.527397	 -0.195943	 1.322876
C	 3.001144	 -0.485193	 0.119072
H	 1.804373	 0.541073	 -1.335756
H	 2.020437	 1.423114	 0.146921
H	 2.866892	 -1.477297	 -0.298806
H	 3.943543	 -0.095749	 -0.249061
H	 3.085064	 -0.590459	 1.195790

	symmetry c1
}
set optking {
	frozen_dihedral = ("
		1 2 3 4
	")
}

ee,wfn = optimize('scf', return_wfn=True)
oeprop( wfn, 'DIPOLE', 'QUADRUPOLE', 'MULLIKEN_CHARGES')
f=open( 'psi4out.xyz', 'w' )
f.write( "18  " )
f.write( str(ee) + "\n" )
f.write( MOL.save_string_xyz() )
f.close()
--------------------------------------------------------------------------

    Molecular point group: c1
  Charge       = 0
  Multiplicity = 1
  Basis Set: CC-PVTZ
  Basis Set:
  @DF-RHF Final Energy:  -271.28497874958191
    Total Energy =                       -271.2849787495817395
    Molecular point group: c1
  Basis Set: CC-PVTZ
  Basis Set:
  Basis Set: CC-PVTZ
  Basis Set:
  @DF-RHF Final Energy:  -271.28491643464656
    Total Energy =                       -271.2849164346467887
  Basis Set: CC-PVTZ
  Basis Set:
  Basis Set: CC-PVTZ
  Basis Set:
  @DF-RHF Final Energy:  -271.28524508469093
    Total Energy =                       -271.2852450846909846
  Basis Set: CC-PVTZ
  Basis Set:
  Basis Set: CC-PVTZ
  Basis Set:
  @DF-RHF Final Energy:  -271.28524937454665
    Total Energy =                       -271.2852493745465381
  Basis Set: CC-PVTZ
  Basis Set:
  Charge       = 0
  Multiplicity = 1
  Basis Set: CC-PVTZ
  Basis Set:

    Orbital Energies (a.u.)
    -----------------------

    Doubly Occupied:

       1A    -20.545082     2A    -11.266338     3A    -11.210189
       4A    -11.209148     5A    -11.204759     6A    -11.202566
       7A     -1.362678     8A     -1.076420     9A     -1.009938
      10A     -0.914514    11A     -0.820372    12A     -0.786764
      13A     -0.702970    14A     -0.650117    15A     -0.617045
      16A     -0.586166    17A     -0.576411    18A     -0.552327
      19A     -0.521776    20A     -0.512797    21A     -0.489574
      22A     -0.467775    23A     -0.459137    24A     -0.445625
      25A     -0.430560

  @DF-RHF Final Energy:  -271.28524986961344

   => Energetics <=

    Nuclear Repulsion Energy =            249.1097335431081206
    One-Electron Energy =                -861.5478773982279108
    Two-Electron Energy =                 341.1528939855062958
    DFT Exchange-Correlation Energy =       0.0000000000000000
    Empirical Dispersion Energy =           0.0000000000000000
    PCM Polarization Energy =               0.0000000000000000
    EFP Energy =                            0.0000000000000000
    Total Energy =                       -271.2852498696134376
    Molecular point group: c1
  Basis Set: CC-PVTZ
  Basis Set:

  -Total Gradient:
     Atom            X                  Y                   Z
    ------   -----------------  -----------------  -----------------
       1        0.000309188504     0.000240411813    -0.000723282451
       2       -0.000429498449    -0.000243576901     0.000696932319
       3        0.000367750831    -0.000205820292     0.000407285227
       4       -0.000258405938     0.000185404072    -0.000382236349
       5       -0.000004461686     0.000019173354    -0.000012050062
       6        0.000029918207     0.000025852002     0.000005198654
       7        0.000005044920     0.000004300942     0.000015836342
       8       -0.000008227967     0.000003824297    -0.000006766957
       9       -0.000023650695    -0.000011158302     0.000009378974
      10        0.000013402251     0.000000313036    -0.000014325454
      11        0.000000712491    -0.000017519231     0.000006308703
      12       -0.000006273163     0.000001016680     0.000006103102
      13       -0.000004480594    -0.000005157567    -0.000002108383
      14        0.000000704686     0.000008718871    -0.000013380376
      15       -0.000000754530     0.000004279493     0.000005309925
      16        0.000004505999    -0.000010832174    -0.000002604067
      17        0.000000802919     0.000000728796    -0.000003173862
      18        0.000003722213     0.000000041111     0.000007574714

  **** Optimization is complete! (in 5 steps) ****
    Final optimized geometry and variables:
    Molecular point group: c1

    Geometry (in Angstrom), charge = 0, multiplicity = 1:

    H           -3.173584568354    -0.963337695788    -0.550687171555
    O           -2.309370456854    -0.948804061177    -0.188097315442
    C           -2.020953603265     0.320255683622     0.348483258162
    C           -0.683946951398     0.826489716827    -0.162531455210
    H           -2.800032129899     1.028768074145     0.084878699119
    H           -2.002595458341     0.248873030919     1.432445534234
    C            0.495625279857    -0.055032894918     0.237394719448
    H           -0.733952835629     0.903857241373    -1.244860452697
    H           -0.534454301192     1.833485425003     0.220331338575
    C            1.830151891399     0.447501183720    -0.305720175375
    H            0.318815820407    -1.065858009142    -0.112712824873
    H            0.548058554486    -0.109856187167     1.322740064751
    C            3.009167140770    -0.431320485757     0.098411519751
    H            1.777713844068     0.501839911825    -1.389777015594
    H            2.002869933017     1.463016964622     0.041491374390
    H            2.881673283847    -1.446035159575    -0.263496821390
    H            3.940520295949    -0.050440046602    -0.305120723856
    H            3.110872131221    -0.477599142417     1.177683024910

  Mulliken Charges: (a.u.)
   Center  Symbol    Alpha    Beta     Spin     Total
       1     H     0.39230  0.39230  0.00000  0.21540
       2     O     4.20412  4.20412  0.00000 -0.40824
       3     C     2.97556  2.97556  0.00000  0.04888
       4     C     3.08327  3.08327  0.00000 -0.16654
       5     H     0.46557  0.46557  0.00000  0.06887
       6     H     0.46961  0.46961  0.00000  0.06079
       7     C     3.08939  3.08939  0.00000 -0.17879
       8     H     0.45707  0.45707  0.00000  0.08586
       9     H     0.45670  0.45670  0.00000  0.08660
      10     C     3.08325  3.08325  0.00000 -0.16650
      11     H     0.44425  0.44425  0.00000  0.11151
      12     H     0.45799  0.45799  0.00000  0.08402
      13     C     3.14968  3.14968  0.00000 -0.29936
      14     H     0.45479  0.45479  0.00000  0.09042
      15     H     0.45684  0.45684  0.00000  0.08632
      16     H     0.45437  0.45437  0.00000  0.09126
      17     H     0.44954  0.44954  0.00000  0.10092
      18     H     0.45570  0.45570  0.00000  0.08859

   Total alpha = 25.00000, Total beta = 25.00000, Total charge = -0.00000

*** Psi4 exiting successfully. Buy a developer a beer!
