  ==> Input File <==

--------------------------------------------------------------------------
set {
	reference rhf
	basis cc-pvtz
}

set_num_threads( 4 )
memory 2 gb

molecule MOL {
0 1

H	 2.159000	 -0.680000	 -0.215000
O	 1.319000	 -0.571000	 0.209000
C	 0.684000	 0.594000	 -0.262000
C	 -0.733000	 0.563000	 0.269000
H	 0.664000	 0.609000	 -1.348000
H	 1.198000	 1.487000	 0.088000
O	 -1.424000	 -0.560000	 -0.193000
H	 -1.276000	 1.435000	 -0.073000
H	 -0.707000	 0.585000	 1.356000
H	 -0.908000	 -1.326000	 0.024000

	symmetry c1
}
ee = optimize('scf')
oeprop('DIPOLE', 'QUADRUPOLE', 'MULLIKEN_CHARGES')
f=open( 'psi4out.xyz', 'w' )
f.write( "10  " )
f.write( str(ee) + "\n" )
f.write( MOL.save_string_xyz() )
f.close()
--------------------------------------------------------------------------

    Molecular point group: c1
  Charge       = 0
  Multiplicity = 1
  Basis Set: CC-PVTZ
  Basis Set:
  @DF-RHF Final Energy:  -229.02867859077611
    Total Energy =                       -229.0286785907760816
    Molecular point group: c1
  Basis Set: CC-PVTZ
  Basis Set:
  Basis Set: CC-PVTZ
  Basis Set:
  @DF-RHF Final Energy:  -229.02888656085290
    Total Energy =                       -229.0288865608528113
  Basis Set: CC-PVTZ
  Basis Set:
  Basis Set: CC-PVTZ
  Basis Set:
  @DF-RHF Final Energy:  -229.02889253390870
    Total Energy =                       -229.0288925339087598
  Basis Set: CC-PVTZ
  Basis Set:
  Charge       = 0
  Multiplicity = 1
  Basis Set: CC-PVTZ
  Basis Set:

    Orbital Energies (a.u.)
    -----------------------

    Doubly Occupied:

       1A    -20.560786     2A    -20.542613     3A    -11.273885
       4A    -11.266767     5A     -1.385221     6A     -1.356010
       7A     -1.003849     8A     -0.844925     9A     -0.730098
      10A     -0.682320    11A     -0.651234    12A     -0.607026
      13A     -0.577688    14A     -0.534077    15A     -0.492893
      16A     -0.456277    17A     -0.436543

  @DF-RHF Final Energy:  -229.02889757951348

   => Energetics <=

    Nuclear Repulsion Energy =            134.5512031587230410
    One-Electron Energy =                -580.3557746117144234
    Two-Electron Energy =                 216.7756738734778423
    DFT Exchange-Correlation Energy =       0.0000000000000000
    Empirical Dispersion Energy =           0.0000000000000000
    PCM Polarization Energy =               0.0000000000000000
    EFP Energy =                            0.0000000000000000
    Total Energy =                       -229.0288975795135116
    Molecular point group: c1
  Basis Set: CC-PVTZ
  Basis Set:

  -Total Gradient:
     Atom            X                  Y                   Z
    ------   -----------------  -----------------  -----------------
       1       -0.000036197429     0.000033167843    -0.000005564226
       2        0.000004770327    -0.000114871337     0.000066239657
       3       -0.000043377959     0.000147541298    -0.000128183976
       4        0.000133026875    -0.000035638059     0.000130005001
       5        0.000005228312    -0.000022786800    -0.000000172136
       6       -0.000055060375    -0.000027676531     0.000010176120
       7        0.000006349181     0.000022772455    -0.000038973523
       8        0.000009718085    -0.000055181899    -0.000037856897
       9       -0.000027178299    -0.000008219518    -0.000000936115
      10        0.000002721285     0.000060892546     0.000005266094

  **** Optimization is complete! (in 4 steps) ****
    Final optimized geometry and variables:
    Molecular point group: c1

    Geometry (in Angstrom), charge = 0, multiplicity = 1:

    H            2.190572869510    -0.629143509683    -0.208718022143
    O            1.355407499611    -0.529450558562     0.208662445262
    C            0.700176714522     0.619554398065    -0.266241627168
    C           -0.713111126823     0.588313923852     0.266177189432
    H            0.678679896280     0.627132640684    -1.351785441922
    H            1.199746682936     1.521488778474     0.077736706908
    O           -1.421673440101    -0.521378019373    -0.196982757219
    H           -1.244794228320     1.469161235653    -0.069058551157
    H           -0.685100432956     0.604721445304     1.352683334757
    H           -0.933408392472    -1.297829672614     0.014544097659

  Mulliken Charges: (a.u.)
   Center  Symbol    Alpha    Beta     Spin     Total
       1     H     0.39082  0.39082  0.00000  0.21836
       2     O     4.20705  4.20705  0.00000 -0.41410
       3     C     2.97357  2.97357  0.00000  0.05286
       4     C     2.96387  2.96387  0.00000  0.07227
       5     H     0.46922  0.46922  0.00000  0.06155
       6     H     0.47188  0.47188  0.00000  0.05623
       7     O     4.20955  4.20955  0.00000 -0.41910
       8     H     0.45845  0.45845  0.00000  0.08310
       9     H     0.47017  0.47017  0.00000  0.05966
      10     H     0.38541  0.38541  0.00000  0.22917

   Total alpha = 17.00000, Total beta = 17.00000, Total charge =  0.00000
