  ==> Input File <==

--------------------------------------------------------------------------
set {
	reference rhf
	basis 6-31G*
}

set_num_threads( 4 )
memory 2 gb

molecule MOL {
0 1

O	 -1.092260	 1.344455	 -2.211340
C	 -1.528532	 0.801966	 -1.241904
C	 -0.889235	 -0.467034	 -0.705952
C	 -2.710774	 1.362171	 -0.483057
C	 0.379448	 -0.143569	 0.099626
H	 -0.629487	 -1.088695	 -1.555877
H	 -1.592124	 -1.017066	 -0.086727
C	 1.631333	 -0.777471	 -0.511575
H	 0.482768	 0.934507	 0.149241
H	 0.263088	 -0.495696	 1.123449
C	 2.915987	 -0.544314	 0.291766
H	 1.766672	 -0.399098	 -1.523130
H	 1.471257	 -1.849544	 -0.605828
C	 3.373361	 0.914346	 0.347591
H	 3.708709	 -1.142521	 -0.150311
H	 2.780642	 -0.921148	 1.303579
H	 3.506512	 1.320010	 -0.651625
H	 4.322697	 0.999599	 0.867103
H	 2.660624	 1.545032	 0.868198
H	 -3.554722	 0.682640	 -0.568230
H	 -2.985168	 2.327451	 -0.885210
H	 -2.479984	 1.454874	 0.574273

	symmetry c1
}
set optking {
	frozen_dihedral = ("
		6 3 5 8
	")
}

ee = optimize('scf')
oeprop('DIPOLE', 'QUADRUPOLE', 'MULLIKEN_CHARGES')
f=open( 'psi4out.xyz', 'w' )
f.write( "22  " )
f.write( str(ee) + "\n" )
f.write( MOL.save_string_xyz() )
f.close()
--------------------------------------------------------------------------

    Molecular point group: c1
  Charge       = 0
  Multiplicity = 1
  Basis Set: 6-31G*
  Basis Set:
  @DF-RHF Final Energy:  -348.09238400784784
    Total Energy =                       -348.0923840078477838
    Molecular point group: c1
  Basis Set: 6-31G*
  Basis Set:
  Basis Set: 6-31G*
  Basis Set:
  @DF-RHF Final Energy:  -348.09270954344680
    Total Energy =                       -348.0927095434465741
  Basis Set: 6-31G*
  Basis Set:
  Basis Set: 6-31G*
  Basis Set:
  @DF-RHF Final Energy:  -348.09152115197901
    Total Energy =                       -348.0915211519787817
  Basis Set: 6-31G*
  Basis Set:
  Basis Set: 6-31G*
  Basis Set:
  @DF-RHF Final Energy:  -348.09286913978030
    Total Energy =                       -348.0928691397800776
  Basis Set: 6-31G*
  Basis Set:
  @DF-RHF Final Energy:  -348.09299158075481
    Total Energy =                       -348.0929915807548696
  @DF-RHF Final Energy:  -348.09292137399859
    Total Energy =                       -348.0929213739984789
  @DF-RHF Final Energy:  -348.09305554670010
    Total Energy =                       -348.0930555467000431
  Basis Set: 6-31G*
  Basis Set:
  @DF-RHF Final Energy:  -348.09307534616960
    Total Energy =                       -348.0930753461694849
  Basis Set: 6-31G*
  Basis Set:
  Basis Set: 6-31G*
  Basis Set:
  @DF-RHF Final Energy:  -348.09308368317409
    Total Energy =                       -348.0930836831743704
  Basis Set: 6-31G*
  Basis Set:
  Basis Set: 6-31G*
  Basis Set:
  @DF-RHF Final Energy:  -348.09308869029093
    Total Energy =                       -348.0930886902909833
  Basis Set: 6-31G*
  Basis Set:
  Charge       = 0
  Multiplicity = 1
  Basis Set: 6-31G*
  Basis Set:

    Orbital Energies (a.u.)
    -----------------------

    Doubly Occupied:

       1A    -20.547120     2A    -11.323965     3A    -11.232283
       4A    -11.228735     5A    -11.227642     6A    -11.221046
       7A    -11.219833     8A    -11.211476     9A     -1.392599
      10A     -1.094597    11A     -1.043878    12A     -0.997026
      13A     -0.937541    14A     -0.860314    15A     -0.786993
      16A     -0.734509    17A     -0.659615    18A     -0.638638
      19A     -0.628973    20A     -0.612698    21A     -0.602539
      22A     -0.587597    23A     -0.552712    24A     -0.545819
      25A     -0.534167    26A     -0.521750    27A     -0.501526
      28A     -0.486094    29A     -0.468688    30A     -0.463954
      31A     -0.456767    32A     -0.396273

  @DF-RHF Final Energy:  -348.09308942111159

   => Energetics <=

    Nuclear Repulsion Energy =            375.7753052453125520
    One-Electron Energy =               -1216.3020559182805300
    Two-Electron Energy =                 492.4336612518564493
    DFT Exchange-Correlation Energy =       0.0000000000000000
    Empirical Dispersion Energy =           0.0000000000000000
    PCM Polarization Energy =               0.0000000000000000
    EFP Energy =                            0.0000000000000000
    Total Energy =                       -348.0930894211115287
    Molecular point group: c1
  Basis Set: 6-31G*
  Basis Set:

  -Total Gradient:
     Atom            X                  Y                   Z
    ------   -----------------  -----------------  -----------------
       1        0.000000933857     0.000002306246    -0.000036144075
       2        0.000035567365     0.000010676741     0.000068845085
       3        0.000049577150     0.000150041790    -0.000007493870
       4       -0.000072814141    -0.000016987950    -0.000034498007
       5       -0.000035864550    -0.000103176912     0.000029149636
       6       -0.000000012965    -0.000067706895     0.000015243968
       7        0.000003978872    -0.000001569889     0.000001032047
       8       -0.000004829296     0.000035462894    -0.000028883785
       9       -0.000019097363    -0.000003062519    -0.000017145648
      10       -0.000009090061    -0.000005130693    -0.000004009973
      11        0.000005772987     0.000008907833    -0.000007781539
      12        0.000000308670     0.000001759427     0.000010130681
      13        0.000002393610    -0.000007670862    -0.000000491965
      14        0.000000289500    -0.000002772647     0.000005916196
      15        0.000002405514    -0.000006344166    -0.000002078795
      16       -0.000003108675     0.000008337540    -0.000004657816
      17       -0.000000564448    -0.000004207697    -0.000000713700
      18       -0.000001031242     0.000001668954     0.000001287852
      19        0.000000411238     0.000000863623     0.000001160629
      20        0.000003983233     0.000002483233     0.000016340117
      21        0.000007924707    -0.000001985187    -0.000000806696
      22        0.000032866043    -0.000001892868    -0.000004400338

  **** Optimization is complete! (in 11 steps) ****
    Final optimized geometry and variables:
    Molecular point group: c1

    Geometry (in Angstrom), charge = 0, multiplicity = 1:

    O           -1.608364256288     0.808863134204    -1.854921720771
    C           -1.810934406084     0.413161410016    -0.747473827503
    C           -1.130055560033    -0.832959317067    -0.214897953326
    C           -2.747796579185     1.140864611426     0.193500884995
    C            0.114780400527    -0.483041028106     0.646455543361
    H           -0.840609986055    -1.430361653062    -1.070248016111
    H           -1.838572150703    -1.411988211348     0.369512609840
    C            1.406867396716    -1.066958669662     0.067520362082
    H            0.214130605267     0.594920612336     0.730026881399
    H           -0.024038418747    -0.851531837607     1.658680081716
    C            2.658605707344    -0.800956738598     0.910518330202
    H            1.553611482386    -0.673680829530    -0.936136618429
    H            1.282389941632    -2.142235011534    -0.040253280752
    C            3.070999736278     0.670118610822     0.992428889179
    H            3.481818249702    -1.370144560948     0.486312436003
    H            2.506848100980    -1.191598509014     1.914905205417
    H            3.213369384715     1.091049493318     0.001054825153
    H            4.005652020279     0.777266871800     1.534036759035
    H            2.329401501228     1.274216264545     1.504796498990
    H           -3.646923621698     0.546696233535     0.335050756378
    H           -3.018910933749     2.100433574668    -0.224410254811
    H           -2.296281534806     1.277542960827     1.171184619221

  Mulliken Charges: (a.u.)
   Center  Symbol    Alpha    Beta     Spin     Total
       1     O     4.26072  4.26072  0.00000 -0.52143
       2     C     2.74094  2.74094  0.00000  0.51811
       3     C     3.20351  3.20351  0.00000 -0.40702
       4     C     3.28933  3.28933  0.00000 -0.57866
       5     C     3.16387  3.16387  0.00000 -0.32773
       6     H     0.39801  0.39801  0.00000  0.20399
       7     H     0.41319  0.41319  0.00000  0.17361
       8     C     3.15511  3.15511  0.00000 -0.31022
       9     H     0.41341  0.41341  0.00000  0.17318
      10     H     0.41697  0.41697  0.00000  0.16606
      11     C     3.15455  3.15455  0.00000 -0.30909
      12     H     0.41439  0.41439  0.00000  0.17122
      13     H     0.42011  0.42011  0.00000  0.15978
      14     C     3.24192  3.24192  0.00000 -0.48384
      15     H     0.41872  0.41872  0.00000  0.16256
      16     H     0.42350  0.42350  0.00000  0.15300
      17     H     0.41889  0.41889  0.00000  0.16222
      18     H     0.41815  0.41815  0.00000  0.16370
      19     H     0.42138  0.42138  0.00000  0.15724
      20     H     0.40657  0.40657  0.00000  0.18686
      21     H     0.39704  0.39704  0.00000  0.20591
      22     H     0.40973  0.40973  0.00000  0.18055

   Total alpha = 32.00000, Total beta = 32.00000, Total charge =  0.00000
