                              Psi4 1.0.54 Driver

  ==> Input File <==

--------------------------------------------------------------------------
set {
	reference rhf
	basis cc-pvtz
}

set_num_threads( 4 )
memory 2 gb

molecule MOL {
0 1

H	 -2.123894	 -0.667238	 -0.609809
O	 -2.041679	 -0.058866	 0.103463
C	 -0.959304	 0.780994	 -0.094939
C	 0.354905	 0.037902	 -0.006215
H	 -0.985899	 1.279578	 -1.057596
H	 -0.969809	 1.529522	 0.682889
F	 0.164747	 -1.268330	 -0.064440
F	 1.137575	 0.371297	 -1.011139
F	 1.000407	 0.290647	 1.107077

	symmetry c1
}
set optking {
	frozen_dihedral = ("
		7 4 3 5
	")
}

ee,wfn = optimize('scf', return_wfn=True)
oeprop( wfn, 'DIPOLE', 'QUADRUPOLE', 'MULLIKEN_CHARGES')
f=open( 'psi4out.xyz', 'w' )
f.write( "9  " )
f.write( str(ee) + "\n" )
f.write( MOL.save_string_xyz() )
f.close()
--------------------------------------------------------------------------

    Molecular point group: c1
  Charge       = 0
  Multiplicity = 1
  Basis Set: CC-PVTZ
  Basis Set:
  @DF-RHF Final Energy:  -450.84014491569525
    Total Energy =                       -450.8401449156952481
    Molecular point group: c1
  Basis Set: CC-PVTZ
  Basis Set:
  Basis Set: CC-PVTZ
  Basis Set:
  @DF-RHF Final Energy:  -450.84062594152743
    Total Energy =                       -450.8406259415273780
  Basis Set: CC-PVTZ
  Basis Set:
  Basis Set: CC-PVTZ
  Basis Set:
  @DF-RHF Final Energy:  -450.84112983630598
    Total Energy =                       -450.8411298363059245
  Basis Set: CC-PVTZ
  Basis Set:
  Basis Set: CC-PVTZ
  Basis Set:
  @DF-RHF Final Energy:  -450.84115664485046
    Total Energy =                       -450.8411566448504573
  Basis Set: CC-PVTZ
  Basis Set:
  Basis Set: CC-PVTZ
  Basis Set:
  @DF-RHF Final Energy:  -450.84116003754502
    Total Energy =                       -450.8411600375449098
  Basis Set: CC-PVTZ
  Basis Set:
  Charge       = 0
  Multiplicity = 1
  Basis Set: CC-PVTZ
  Basis Set:

    Orbital Energies (a.u.)
    -----------------------

    Doubly Occupied:

       1A    -26.340398     2A    -26.338996     3A    -26.334753
       4A    -20.583203     5A    -11.495931     6A    -11.309817
       7A     -1.748386     8A     -1.645802     9A     -1.641446
      10A     -1.406748    11A     -1.045775    12A     -0.930456
      13A     -0.836840    14A     -0.835743    15A     -0.815055
      16A     -0.728893    17A     -0.718828    18A     -0.705895
      19A     -0.671065    20A     -0.666703    21A     -0.648595
      22A     -0.631186    23A     -0.617644    24A     -0.529393
      25A     -0.483996

  @DF-RHF Final Energy:  -450.84116040921026

   => Energetics <=

    Nuclear Repulsion Energy =            276.7340901861705333
    One-Electron Energy =               -1175.7274010117344005
    Two-Electron Energy =                 448.1521504163535496
    DFT Exchange-Correlation Energy =       0.0000000000000000
    Empirical Dispersion Energy =           0.0000000000000000
    PCM Polarization Energy =               0.0000000000000000
    EFP Energy =                            0.0000000000000000
    Total Energy =                       -450.8411604092103175
    Molecular point group: c1
  Basis Set: CC-PVTZ
  Basis Set:

  -Total Gradient:
     Atom            X                  Y                   Z
    ------   -----------------  -----------------  -----------------
       1       -0.000020164797    -0.000005437054    -0.000003851839
       2        0.000045564397     0.000001011086    -0.000010146989
       3       -0.002334980727    -0.004355021821    -0.001057870985
       4        0.000821880338     0.000869015627    -0.004455512801
       5        0.001813184601     0.003518599060     0.001844298068
       6        0.000012127154     0.000005657822    -0.000002946747
       7       -0.000363314742    -0.000065874811     0.003670538350
       8        0.000007832460     0.000016642521    -0.000050014116
       9        0.000017871315     0.000015407569     0.000065507056

  **** Optimization is complete! (in 6 steps) ****
    Final optimized geometry and variables:
    Molecular point group: c1

    Geometry (in Angstrom), charge = 0, multiplicity = 1:

    H           -2.127953444929    -0.718388618450    -0.550092758433
    O           -2.076236083003    -0.044402022235     0.104065573392
    C           -0.981956968878     0.771088672760    -0.110236489312
    C            0.359437474658     0.034172966336    -0.016264965616
    H           -1.007978002312     1.289671026375    -1.061445339019
    H           -0.986956194148     1.521109811484     0.665491686233
    F            0.211541300859    -1.270049392342    -0.099695064866
    F            1.175404892819     0.408112444634    -0.981050519547
    F            0.972968039593     0.279693364403     1.123220035719

  Mulliken Charges: (a.u.)
   Center  Symbol    Alpha    Beta     Spin     Total
       1     H     0.38696  0.38696  0.00000  0.22607
       2     O     4.18575  4.18575  0.00000 -0.37149
       3     C     3.00564  3.00564  0.00000 -0.01129
       4     C     2.67744  2.67744  0.00000  0.64513
       5     H     0.46227  0.46227  0.00000  0.07545
       6     H     0.44867  0.44867  0.00000  0.10266
       7     F     4.61155  4.61155  0.00000 -0.22310
       8     F     4.61124  4.61124  0.00000 -0.22248
       9     F     4.61048  4.61048  0.00000 -0.22096

   Total alpha = 25.00000, Total beta = 25.00000, Total charge = -0.00000

*** Psi4 exiting successfully. Buy a developer a beer!
