                              Psi4 1.0.54 Driver

  ==> Input File <==

--------------------------------------------------------------------------
set {
	reference rhf
	basis cc-pvtz
}

set_num_threads( 4 )
memory 2 gb

molecule MOL {
0 1

H	 2.305116	 -0.320547	 1.353485
C	 1.948180	 -0.217873	 0.320185
C	 0.692262	 0.592428	 0.156232
O	 2.542231	 -0.730206	 -0.564265
C	 -0.554654	 -0.292621	 0.086567
H	 0.791858	 1.203694	 -0.731051
H	 0.617379	 1.254358	 1.016534
C	 -1.846385	 0.513195	 -0.016346
H	 -0.473986	 -0.956115	 -0.769708
H	 -0.597929	 -0.929215	 0.966651
C	 -3.089953	 -0.365049	 -0.098564
H	 -1.798267	 1.154820	 -0.891143
H	 -1.925398	 1.173265	 0.842889
H	 -3.055079	 -1.012299	 -0.968245
H	 -3.988403	 0.236438	 -0.170014
H	 -3.183055	 -0.995885	 0.779079

	symmetry c1
}
set optking {
	frozen_dihedral = ("
		4 2 3 6
	")
}

ee,wfn = optimize('scf', return_wfn=True)
oeprop( wfn, 'DIPOLE', 'QUADRUPOLE', 'MULLIKEN_CHARGES')
f=open( 'psi4out.xyz', 'w' )
f.write( "16  " )
f.write( str(ee) + "\n" )
f.write( MOL.save_string_xyz() )
f.close()
--------------------------------------------------------------------------

    Molecular point group: c1
  Charge       = 0
  Multiplicity = 1
  Basis Set: CC-PVTZ
  Basis Set:
  @DF-RHF Final Energy:  -270.11765496243845
    Total Energy =                       -270.1176549624385643
    Molecular point group: c1
  Basis Set: CC-PVTZ
  Basis Set:
  Basis Set: CC-PVTZ
  Basis Set:
  @DF-RHF Final Energy:  -270.11667497638274
    Total Energy =                       -270.1166749763827966
  Basis Set: CC-PVTZ
  Basis Set:
  Basis Set: CC-PVTZ
  Basis Set:
  @DF-RHF Final Energy:  -270.11784844239423
    Total Energy =                       -270.1178484423945747
  Basis Set: CC-PVTZ
  Basis Set:
  Basis Set: CC-PVTZ
  Basis Set:
  @DF-RHF Final Energy:  -270.11793128782722
    Total Energy =                       -270.1179312878272185
  Basis Set: CC-PVTZ
  Basis Set:
  Basis Set: CC-PVTZ
  Basis Set:
  @DF-RHF Final Energy:  -270.11792566272243
    Total Energy =                       -270.1179256627222571
  Basis Set: CC-PVTZ
  Basis Set:
  Charge       = 0
  Multiplicity = 1
  Basis Set: CC-PVTZ
  Basis Set:

    Orbital Energies (a.u.)
    -----------------------

    Doubly Occupied:

       1A    -20.552054     2A    -11.321664     3A    -11.233613
       4A    -11.232101     5A    -11.225387     6A    -11.214774
       7A     -1.407109     8A     -1.094815     9A     -1.017632
      10A     -0.906453    11A     -0.813097    12A     -0.787716
      13A     -0.684642    14A     -0.647309    15A     -0.631988
      16A     -0.603720    17A     -0.578127    18A     -0.553069
      19A     -0.528643    20A     -0.510894    21A     -0.485983
      22A     -0.480036    23A     -0.477393    24A     -0.410699

  @DF-RHF Final Energy:  -270.11793392355128

   => Energetics <=

    Nuclear Repulsion Energy =            230.8164382136311303
    One-Electron Energy =                -823.0709050775574269
    Two-Electron Energy =                 322.1365329403749911
    DFT Exchange-Correlation Energy =       0.0000000000000000
    Empirical Dispersion Energy =           0.0000000000000000
    PCM Polarization Energy =               0.0000000000000000
    EFP Energy =                            0.0000000000000000
    Total Energy =                       -270.1179339235512771
    Molecular point group: c1
  Basis Set: CC-PVTZ
  Basis Set:

  -Total Gradient:
     Atom            X                  Y                   Z
    ------   -----------------  -----------------  -----------------
       1        0.000003778046     0.000003174194     0.000023002712
       2        0.001306712774     0.001908673433    -0.000028437117
       3       -0.001167974551    -0.001731112783    -0.000841852002
       4       -0.000711450154    -0.001258253427     0.000063242445
       5        0.000034785074     0.000051194798     0.000019566490
       6        0.000605861509     0.001010306645     0.000705281651
       7       -0.000031403371     0.000047729774     0.000057024813
       8       -0.000046600809    -0.000005521669     0.000007601230
       9        0.000019884568    -0.000023693030    -0.000042041083
      10       -0.000009547673    -0.000033291809     0.000039490738
      11        0.000025302661     0.000016059142     0.000001516368
      12        0.000002606716     0.000010325086    -0.000022997242
      13       -0.000007875658     0.000015191623     0.000022863731
      14        0.000003494390    -0.000017105578    -0.000029713457
      15       -0.000027601337     0.000021794406    -0.000003091408
      16        0.000000027814    -0.000015470805     0.000028542130

  **** Optimization is complete! (in 6 steps) ****
    Final optimized geometry and variables:
    Molecular point group: c1

    Geometry (in Angstrom), charge = 0, multiplicity = 1:

    H            2.381162905627    -0.317003768105     1.362617064548
    C            2.006191298573    -0.155627746904     0.344425405714
    C            0.765479754455     0.691655078470     0.218421241760
    O            2.548810133593    -0.668833709518    -0.572583990600
    C           -0.487750598778    -0.186509623258     0.126592219373
    H            0.862990698260     1.305788697759    -0.668778974055
    H            0.692969698032     1.350741279861     1.077797906864
    C           -1.772229553172     0.629279216100     0.014812246730
    H           -0.390979308763    -0.840806630976    -0.732922403115
    H           -0.545217664926    -0.829713710237     1.001465805016
    C           -3.019945977026    -0.241360441164    -0.085871902802
    H           -1.709949281492     1.274281048812    -0.856851373705
    H           -1.858031445251     1.285901411157     0.876109671465
    H           -2.977437296477    -0.886106294636    -0.957024996383
    H           -3.914008048765     0.365691872663    -0.166562768296
    H           -3.127603217986    -0.874427446672     0.788538188180

  Mulliken Charges: (a.u.)
   Center  Symbol    Alpha    Beta     Spin     Total
       1     H     0.45914  0.45914  0.00000  0.08171
       2     C     2.91472  2.91472  0.00000  0.17055
       3     C     3.07978  3.07978  0.00000 -0.15957
       4     O     4.16771  4.16771  0.00000 -0.33542
       5     C     3.09625  3.09625  0.00000 -0.19250
       6     H     0.44285  0.44285  0.00000  0.11431
       7     H     0.45133  0.45133  0.00000  0.09734
       8     C     3.08503  3.08503  0.00000 -0.17006
       9     H     0.44165  0.44165  0.00000  0.11671
      10     H     0.45233  0.45233  0.00000  0.09534
      11     C     3.14917  3.14917  0.00000 -0.29833
      12     H     0.45154  0.45154  0.00000  0.09692
      13     H     0.45388  0.45388  0.00000  0.09223
      14     H     0.45273  0.45273  0.00000  0.09453
      15     H     0.44724  0.44724  0.00000  0.10553
      16     H     0.45465  0.45465  0.00000  0.09070

   Total alpha = 24.00000, Total beta = 24.00000, Total charge = -0.00000

*** Psi4 exiting successfully. Buy a developer a beer!
