  ==> Input File <==

--------------------------------------------------------------------------
set {
	reference rhf
	basis 6-31G*
}

set_num_threads( 4 )
memory 2 gb

molecule MOL {
0 1

H	 -3.261111	 -0.295142	 1.469456
C	 -3.306842	 -0.277400	 0.373456
C	 -2.660244	 0.921717	 -0.272021
O	 -3.838538	 -1.161155	 -0.216482
C	 -1.220012	 1.144545	 0.209990
H	 -2.705793	 0.797307	 -1.347733
H	 -3.263782	 1.790044	 -0.010477
C	 -0.252658	 0.041456	 -0.226725
H	 -0.873521	 2.100229	 -0.171974
H	 -1.211708	 1.231594	 1.295398
C	 1.180775	 0.282413	 0.250794
H	 -0.266029	 -0.034465	 -1.312038
H	 -0.597733	 -0.921000	 0.146291
C	 2.148627	 -0.814315	 -0.201312
H	 1.516199	 1.249228	 -0.115937
H	 1.192670	 0.346017	 1.338083
C	 3.580890	 -0.659131	 0.322722
H	 2.166869	 -0.852443	 -1.289387
H	 1.762857	 -1.776509	 0.128956
C	 4.306188	 -1.978882	 0.590716
H	 3.548004	 -0.086510	 1.246287
H	 4.159685	 -0.064928	 -0.381438
H	 3.741646	 -2.601400	 1.279941
H	 4.461695	 -2.549288	 -0.318915
H	 5.281789	 -1.799215	 1.032211

	symmetry c1
}
set optking {
	frozen_dihedral = ("
		20 17 14 18
	")
}

ee = optimize('scf')
oeprop('DIPOLE', 'QUADRUPOLE', 'MULLIKEN_CHARGES')
f=open( 'psi4out.xyz', 'w' )
f.write( "25  " )
f.write( str(ee) + "\n" )
f.write( MOL.save_string_xyz() )
f.close()
--------------------------------------------------------------------------

    Molecular point group: c1
  Charge       = 0
  Multiplicity = 1
  Basis Set: 6-31G*
  Basis Set:
  @DF-RHF Final Energy:  -387.11999264410451
    Total Energy =                       -387.1199926441042862
    Molecular point group: c1
  Basis Set: 6-31G*
  Basis Set:
  Basis Set: 6-31G*
  Basis Set:
  @DF-RHF Final Energy:  -387.12049257227778
    Total Energy =                       -387.1204925722773851
  Basis Set: 6-31G*
  Basis Set:
  Basis Set: 6-31G*
  Basis Set:
  @DF-RHF Final Energy:  -387.11633752559919
    Total Energy =                       -387.1163375255994197
  Basis Set: 6-31G*
  Basis Set:
  Basis Set: 6-31G*
  Basis Set:
  @DF-RHF Final Energy:  -387.12059057301980
    Total Energy =                       -387.1205905730201948
  Basis Set: 6-31G*
  Basis Set:
  Basis Set: 6-31G*
  Basis Set:
  @DF-RHF Final Energy:  -387.12068764818451
    Total Energy =                       -387.1206876481842301
  Basis Set: 6-31G*
  Basis Set:
  Basis Set: 6-31G*
  Basis Set:
  @DF-RHF Final Energy:  -387.12071843325219
    Total Energy =                       -387.1207184332523639
  Basis Set: 6-31G*
  Basis Set:
  Basis Set: 6-31G*
  Basis Set:
  @DF-RHF Final Energy:  -387.12072175041538
    Total Energy =                       -387.1207217504154414
  Basis Set: 6-31G*
  Basis Set:
  Charge       = 0
  Multiplicity = 1
  Basis Set: 6-31G*
  Basis Set:

    Orbital Energies (a.u.)
    -----------------------

    Doubly Occupied:

       1A    -20.562012     2A    -11.326168     3A    -11.235361
       4A    -11.234674     5A    -11.223796     6A    -11.220257
       7A    -11.217581     8A    -11.216652     9A    -11.210349
      10A     -1.401951    11A     -1.103680    12A     -1.069111
      13A     -1.014833    14A     -0.943513    15A     -0.867863
      16A     -0.814674    17A     -0.794056    18A     -0.787059
      19A     -0.664498    20A     -0.663975    21A     -0.637420
      22A     -0.617712    23A     -0.602176    24A     -0.595488
      25A     -0.569341    26A     -0.549100    27A     -0.540109
      28A     -0.522329    29A     -0.505902    30A     -0.498246
      31A     -0.488746    32A     -0.477798    33A     -0.466573
      34A     -0.462540    35A     -0.439270    36A     -0.409538

  @DF-RHF Final Energy:  -387.12072192990735

   => Energetics <=

    Nuclear Repulsion Energy =            435.5735312881316190
    One-Electron Energy =               -1387.4798023066236965
    Two-Electron Energy =                 564.7855490885842755
    DFT Exchange-Correlation Energy =       0.0000000000000000
    Empirical Dispersion Energy =           0.0000000000000000
    PCM Polarization Energy =               0.0000000000000000
    EFP Energy =                            0.0000000000000000
    Total Energy =                       -387.1207219299078588
    Molecular point group: c1
  Basis Set: 6-31G*
  Basis Set:

  -Total Gradient:
     Atom            X                  Y                   Z
    ------   -----------------  -----------------  -----------------
       1       -0.000003483869    -0.000011314803     0.000005251570
       2       -0.000004475881     0.000016444784    -0.000002050178
       3        0.000002662411     0.000010595282    -0.000014889046
       4        0.000002317720    -0.000005284039     0.000007597432
       5       -0.000005671301    -0.000009817734     0.000012731566
       6        0.000000204972     0.000001214256    -0.000003101528
       7        0.000000186551     0.000002681057    -0.000001203246
       8        0.000004625006    -0.000003154654     0.000000299065
       9       -0.000008955882    -0.000000962528    -0.000002470909
      10        0.000002286149    -0.000000218886     0.000000073107
      11        0.000017868065    -0.000010692996     0.000004604320
      12        0.000001673202    -0.000002261330     0.000002894728
      13        0.000005209890     0.000001421572    -0.000000063636
      14        0.000445956285    -0.005225727901     0.001458945337
      15        0.000003321994    -0.000003890754     0.000002207410
      16       -0.000005091957     0.000005438869     0.000003303531
      17        0.001139982057     0.000971878892    -0.004236768023
      18       -0.000652224781     0.004231919579    -0.000250064336
      19       -0.000008712111     0.000003269378     0.000004428513
      20       -0.000943735910     0.000023382188     0.003005821150
      21        0.000010188226     0.000001804532     0.000006676978
      22       -0.000004472748     0.000002282055    -0.000000577066
      23        0.000002605576    -0.000006086785    -0.000004670892
      24       -0.000002083437     0.000002356638    -0.000003075926
      25       -0.000000180230     0.000004723330     0.000004100078

  **** Optimization is complete! (in 8 steps) ****
    Final optimized geometry and variables:
    Molecular point group: c1

    Geometry (in Angstrom), charge = 0, multiplicity = 1:

    H           -3.312938728405     0.013331446580     1.326757788891
    C           -3.329353186235     0.051912318672     0.230360868997
    C           -2.640520141603     1.248211050952    -0.375592127958
    O           -3.869345737164    -0.806368206271    -0.389004784773
    C           -1.206691830910     1.426967638938     0.142788542628
    H           -2.664353253619     1.146350273370    -1.454426018699
    H           -3.229490934237     2.125153339960    -0.109900059960
    C           -0.253846937503     0.313184161294    -0.298994808078
    H           -0.830595813741     2.383631783226    -0.207979149079
    H           -1.220769146962     1.487815983447     1.229730054049
    C            1.175225163233     0.515933966148     0.206408810442
    H           -0.250555205669     0.258775930623    -1.385642991950
    H           -0.623950879146    -0.649535170119     0.049234659625
    C            2.133367951247    -0.597396145311    -0.227396408390
    H            1.551206790438     1.473156715190    -0.151843339771
    H            1.168191422829     0.579720101728     1.293201957081
    C            3.582811887816    -0.348618392026     0.221806065354
    H            2.098073503583    -0.664169479432    -1.312544735607
    H            1.777818650594    -1.547580811245     0.163692813843
    C            4.366585756122    -1.636103367771     0.476840424925
    H            3.578661995518     0.234323982082     1.140475339756
    H            4.096242352949     0.260244029760    -0.517407514805
    H            3.907843930201    -2.215298781995     1.272777144913
    H            4.399008027238    -2.263319203844    -0.410031807435
    H            5.390608648426    -1.423288947387     0.768090712330

  Mulliken Charges: (a.u.)
   Center  Symbol    Alpha    Beta     Spin     Total
       1     H     0.43263  0.43263  0.00000  0.13474
       2     C     2.83082  2.83082  0.00000  0.33835
       3     C     3.20813  3.20813  0.00000 -0.41627
       4     O     4.23775  4.23775  0.00000 -0.47551
       5     C     3.16657  3.16657  0.00000 -0.33314
       6     H     0.39973  0.39973  0.00000  0.20055
       7     H     0.40661  0.40661  0.00000  0.18677
       8     C     3.15531  3.15531  0.00000 -0.31061
       9     H     0.41281  0.41281  0.00000  0.17439
      10     H     0.41960  0.41960  0.00000  0.16080
      11     C     3.15413  3.15413  0.00000 -0.30826
      12     H     0.41817  0.41817  0.00000  0.16366
      13     H     0.41843  0.41843  0.00000  0.16314
      14     C     3.15279  3.15279  0.00000 -0.30557
      15     H     0.42279  0.42279  0.00000  0.15443
      16     H     0.42329  0.42329  0.00000  0.15342
      17     C     3.15341  3.15341  0.00000 -0.30683
      18     H     0.42114  0.42114  0.00000  0.15773
      19     H     0.42066  0.42066  0.00000  0.15867
      20     C     3.23976  3.23976  0.00000 -0.47951
      21     H     0.42261  0.42261  0.00000  0.15478
      22     H     0.42055  0.42055  0.00000  0.15890
      23     H     0.42138  0.42138  0.00000  0.15725
      24     H     0.42112  0.42112  0.00000  0.15775
      25     H     0.41981  0.41981  0.00000  0.16037

   Total alpha = 36.00000, Total beta = 36.00000, Total charge =  0.00000
