  ==> Input File <==

--------------------------------------------------------------------------
set {
	reference rhf
	basis 6-31G*
}

set_num_threads( 1 )
memory 2 gb

molecule MOL {
0 1

O	 -0.291628	 1.323815	 -0.000732
C	 -0.449655	 0.146360	 0.000961
C	 -1.783294	 -0.549321	 -0.000296
O	 0.550821	 -0.724572	 0.000672
H	 -1.863538	 -1.185371	 -0.874187
H	 -2.574672	 0.185258	 -0.002793
H	 -1.866414	 -1.182381	 0.875436
C	 0.255208	 -2.041446	 -0.429140
H	 -0.494060	 -2.489261	 0.207582
H	 1.181842	 -2.589353	 -0.359181
H	 -0.101406	 -2.036556	 -1.449016

	symmetry c1
}
set optking {
	frozen_dihedral = ("
		2 4 8 9
	")
}

ee = energy('scf')
oeprop('DIPOLE', 'QUADRUPOLE', 'MULLIKEN_CHARGES')
f=open( 'psi4out.xyz', 'w' )
f.write( "11  " )
f.write( str(ee) + "\n" )
f.write( MOL.save_string_xyz() )
f.close()
--------------------------------------------------------------------------

    Molecular point group: c1

    Geometry (in Angstrom), charge = 0, multiplicity = 1:

       Center              X                  Y                   Z               Mass
    ------------   -----------------  -----------------  -----------------  -----------------
           O          0.050770950409     1.717112252003     0.090538253681    15.994914619560
           C         -0.107256049591     0.539657252003     0.092231253681    12.000000000000
           C         -1.440895049591    -0.156023747997     0.090974253681    12.000000000000
           O          0.893219950409    -0.331274747997     0.091942253681    15.994914619560
           H         -1.521139049591    -0.792073747997    -0.782916746319     1.007825032070
           H         -2.232273049591     0.578555252003     0.088477253681     1.007825032070
           H         -1.524015049591    -0.789083747997     0.966706253681     1.007825032070
           C          0.597606950409    -1.648148747997    -0.337869746319    12.000000000000
           H         -0.151661049591    -2.095963747997     0.298852253681     1.007825032070
           H          1.524240950409    -2.196055747997    -0.267910746319     1.007825032070
           H          0.240992950409    -1.643258747997    -1.357745746319     1.007825032070

  Charge       = 0
  Multiplicity = 1
  Basis Set: 6-31G*
  Basis Set:

    Orbital Energies (a.u.)
    -----------------------

    Doubly Occupied:

       1A    -20.608392     2A    -20.546007     3A    -11.379132
       4A    -11.300118     5A    -11.241479     6A     -1.470335
       7A     -1.371079     8A     -1.026431     9A     -0.990700
      10A     -0.785183    11A     -0.701715    12A     -0.696012
      13A     -0.684839    14A     -0.609340    15A     -0.590779
      16A     -0.567138    17A     -0.555459    18A     -0.523261
      19A     -0.453201    20A     -0.436331

  @DF-RHF Final Energy:  -266.81138962269085

   => Energetics <=

    Nuclear Repulsion Energy =            185.1033124918994588
    One-Electron Energy =                -730.7554559263102192
    Two-Electron Energy =                 278.8407538117202762
    DFT Exchange-Correlation Energy =       0.0000000000000000
    Empirical Dispersion Energy =           0.0000000000000000
    PCM Polarization Energy =               0.0000000000000000
    EFP Energy =                            0.0000000000000000
    Total Energy =                       -266.8113896226904558

  Mulliken Charges: (a.u.)
   Center  Symbol    Alpha    Beta     Spin     Total
       1     O     4.26790  4.26790  0.00000 -0.53581
       2     C     2.60890  2.60890  0.00000  0.78220
       3     C     3.31837  3.31837  0.00000 -0.63675
       4     O     4.29234  4.29234  0.00000 -0.58468
       5     H     0.40291  0.40291  0.00000  0.19417
       6     H     0.38859  0.38859  0.00000  0.22282
       7     H     0.39851  0.39851  0.00000  0.20297
       8     C     3.10260  3.10260  0.00000 -0.20521
       9     H     0.41336  0.41336  0.00000  0.17329
      10     H     0.39527  0.39527  0.00000  0.20946
      11     H     0.41124  0.41124  0.00000  0.17753

   Total alpha = 20.00000, Total beta = 20.00000, Total charge =  0.00000
