  ==> Input File <==

--------------------------------------------------------------------------
set {
	reference rhf
	basis 6-31G*
}

set_num_threads( 1 )
memory 2 gb

molecule MOL {
0 1

O	 -0.389695	 0.092980	 2.453461
C	 -0.833093	 0.610524	 1.479901
C	 -1.689737	 1.847648	 1.474314
O	 -0.632575	 0.154573	 0.251549
H	 -2.647636	 1.627754	 1.017121
H	 -1.833848	 2.193421	 2.486988
H	 -1.213112	 2.620317	 0.882227
C	 0.160891	 -1.019931	 0.106212
C	 1.589627	 -0.672828	 0.480843
H	 0.089836	 -1.367806	 -0.916050
H	 -0.238459	 -1.792301	 0.749618
C	 2.246377	 0.346236	 -0.452210
H	 2.163194	 -1.597435	 0.473358
H	 1.604769	 -0.303424	 1.502885
C	 3.691736	 0.652107	 -0.061850
H	 2.219579	 -0.032311	 -1.472055
H	 1.666466	 1.263317	 -0.447249
H	 4.134505	 1.377213	 -0.737283
H	 4.305508	 -0.243868	 -0.089969
H	 3.748266	 1.059562	 0.943567

	symmetry c1
}
set optking {
	frozen_dihedral = ("
		16 12 9 8,
		12 9 8 10,
		1 2 4 8
	")
}

ee = energy('scf')
oeprop('DIPOLE', 'QUADRUPOLE', 'MULLIKEN_CHARGES')
f=open( 'psi4out.xyz', 'w' )
f.write( "20  " )
f.write( str(ee) + "\n" )
f.write( MOL.save_string_xyz() )
f.close()
--------------------------------------------------------------------------

    Molecular point group: c1

    Geometry (in Angstrom), charge = 0, multiplicity = 1:

       Center              X                  Y                   Z               Mass
    ------------   -----------------  -----------------  -----------------  -----------------
           O         -0.904384715617    -0.165167244968     1.729669139853    15.994914619560
           C         -1.347782715617     0.352376755032     0.756109139853    12.000000000000
           C         -2.204426715617     1.589500755032     0.750522139853    12.000000000000
           O         -1.147264715617    -0.103574244968    -0.472242860147    15.994914619560
           H         -3.162325715617     1.369606755032     0.293329139853     1.007825032070
           H         -2.348537715617     1.935273755032     1.763196139853     1.007825032070
           H         -1.727801715617     2.362169755032     0.158435139853     1.007825032070
           C         -0.353798715617    -1.278078244968    -0.617579860147    12.000000000000
           C          1.074937284383    -0.930975244968    -0.242948860147    12.000000000000
           H         -0.424853715617    -1.625953244968    -1.639841860147     1.007825032070
           H         -0.753148715617    -2.050448244968     0.025826139853     1.007825032070
           C          1.731687284383     0.088088755032    -1.176001860147    12.000000000000
           H          1.648504284383    -1.855582244968    -0.250433860147     1.007825032070
           H          1.090079284383    -0.561571244968     0.779093139853     1.007825032070
           C          3.177046284383     0.393959755032    -0.785641860147    12.000000000000
           H          1.704889284383    -0.290458244968    -2.195846860147     1.007825032070
           H          1.151776284383     1.005169755032    -1.171040860147     1.007825032070
           H          3.619815284383     1.119065755032    -1.461074860147     1.007825032070
           H          3.790818284383    -0.502015244968    -0.813760860147     1.007825032070
           H          3.233576284383     0.801414755032     0.219775139853     1.007825032070

  Charge       = 0
  Multiplicity = 1
  Basis Set: 6-31G*
  Basis Set:

    Orbital Energies (a.u.)
    -----------------------

    Doubly Occupied:

       1A    -20.601800     2A    -20.545245     3A    -11.377057
       4A    -11.283098     5A    -11.234533     6A    -11.217129
       7A    -11.212827     8A    -11.209873     9A     -1.470323
      10A     -1.364243    11A     -1.080585    12A     -1.028367
      13A     -0.977573    14A     -0.886358    15A     -0.814908
      16A     -0.753226    17A     -0.699320    18A     -0.686661
      19A     -0.663553    20A     -0.628026    21A     -0.598094
      22A     -0.593650    23A     -0.570202    24A     -0.565186
      25A     -0.539826    26A     -0.521876    27A     -0.513194
      28A     -0.491161    29A     -0.471134    30A     -0.465148
      31A     -0.442701    32A     -0.433273

  @DF-RHF Final Energy:  -383.93986529316692

   => Energetics <=

    Nuclear Repulsion Energy =            397.2652751616798241
    One-Electron Energy =               -1310.5299592763353758
    Two-Electron Energy =                 529.3248188214879519
    DFT Exchange-Correlation Energy =       0.0000000000000000
    Empirical Dispersion Energy =           0.0000000000000000
    PCM Polarization Energy =               0.0000000000000000
    EFP Energy =                            0.0000000000000000
    Total Energy =                       -383.9398652931675997

  Mulliken Charges: (a.u.)
   Center  Symbol    Alpha    Beta     Spin     Total
       1     O     4.28382  4.28382  0.00000 -0.56765
       2     C     2.61967  2.61967  0.00000  0.76065
       3     C     3.28158  3.28158  0.00000 -0.56316
       4     O     4.30741  4.30741  0.00000 -0.61482
       5     H     0.39957  0.39957  0.00000  0.20085
       6     H     0.39697  0.39697  0.00000  0.20606
       7     H     0.40054  0.40054  0.00000  0.19892
       8     C     3.00788  3.00788  0.00000 -0.01575
       9     C     3.18068  3.18068  0.00000 -0.36136
      10     H     0.40821  0.40821  0.00000  0.18358
      11     H     0.40501  0.40501  0.00000  0.18997
      12     C     3.15233  3.15233  0.00000 -0.30466
      13     H     0.42212  0.42212  0.00000  0.15576
      14     H     0.39135  0.39135  0.00000  0.21730
      15     C     3.23948  3.23948  0.00000 -0.47896
      16     H     0.42497  0.42497  0.00000  0.15006
      17     H     0.41839  0.41839  0.00000  0.16322
      18     H     0.41894  0.41894  0.00000  0.16212
      19     H     0.42149  0.42149  0.00000  0.15702
      20     H     0.41958  0.41958  0.00000  0.16083

   Total alpha = 32.00000, Total beta = 32.00000, Total charge = -0.00000
