                              Psi4 1.0.54 Driver

  ==> Input File <==

--------------------------------------------------------------------------
set {
	reference rhf
	basis cc-pvtz
}

set_num_threads( 4 )
memory 2 gb

molecule MOL {
0 1

H	 -3.144994	 -1.202467	 -0.018751
O	 -2.321472	 -0.864941	 -0.318626
C	 -2.021813	 0.336996	 0.342658
C	 -0.669613	 0.837286	 -0.127252
H	 -2.780861	 1.084746	 0.127159
H	 -2.006390	 0.184138	 1.420053
C	 0.490865	 -0.082543	 0.241244
H	 -0.708709	 0.967192	 -1.204587
H	 -0.507562	 1.822272	 0.303070
C	 1.839800	 0.429565	 -0.255472
H	 0.305636	 -1.070211	 -0.165276
H	 0.527397	 -0.195943	 1.322876
C	 1.960452	 1.948743	 -0.197785
H	 2.632656	 -0.016529	 0.338736
H	 2.000412	 0.094644	 -1.277098
H	 1.839542	 2.311526	 0.817442
H	 2.928870	 2.280546	 -0.554685
H	 1.201655	 2.425244	 -0.809846

	symmetry c1
}
set optking {
	frozen_dihedral = ("
		14 10 7 11
	")
}

ee,wfn = optimize('scf', return_wfn=True)
oeprop( wfn, 'DIPOLE', 'QUADRUPOLE', 'MULLIKEN_CHARGES')
f=open( 'psi4out.xyz', 'w' )
f.write( "18  " )
f.write( str(ee) + "\n" )
f.write( MOL.save_string_xyz() )
f.close()
--------------------------------------------------------------------------

    Molecular point group: c1
  Charge       = 0
  Multiplicity = 1
  Basis Set: CC-PVTZ
  Basis Set:
  @DF-RHF Final Energy:  -271.28010219908714
    Total Energy =                       -271.2801021990874233
    Molecular point group: c1
  Basis Set: CC-PVTZ
  Basis Set:
  Basis Set: CC-PVTZ
  Basis Set:
  @DF-RHF Final Energy:  -271.27627978892451
    Total Energy =                       -271.2762797889246258
  Basis Set: CC-PVTZ
  Basis Set:
  Basis Set: CC-PVTZ
  Basis Set:
  @DF-RHF Final Energy:  -271.28204065491650
    Total Energy =                       -271.2820406549165000
  Basis Set: CC-PVTZ
  Basis Set:
  Basis Set: CC-PVTZ
  Basis Set:
  @DF-RHF Final Energy:  -271.28232982905672
    Total Energy =                       -271.2823298290567209
  Basis Set: CC-PVTZ
  Basis Set:
  Basis Set: CC-PVTZ
  Basis Set:
  @DF-RHF Final Energy:  -271.28235133185797
    Total Energy =                       -271.2823513318578534
  Basis Set: CC-PVTZ
  Basis Set:
  Basis Set: CC-PVTZ
  Basis Set:
  @DF-RHF Final Energy:  -271.28236615085223
    Total Energy =                       -271.2823661508522832
  Basis Set: CC-PVTZ
  Basis Set:
  Charge       = 0
  Multiplicity = 1
  Basis Set: CC-PVTZ
  Basis Set:

    Orbital Energies (a.u.)
    -----------------------

    Doubly Occupied:

       1A    -20.546251     2A    -11.265715     3A    -11.209598
       4A    -11.209567     5A    -11.205198     6A    -11.203065
       7A     -1.364121     8A     -1.075321     9A     -1.006535
      10A     -0.916037    11A     -0.832570    12A     -0.767813
      13A     -0.708897    14A     -0.635877    15A     -0.626647
      16A     -0.603720    17A     -0.566861    18A     -0.552027
      19A     -0.526820    20A     -0.504587    21A     -0.494337
      22A     -0.462322    23A     -0.455343    24A     -0.450018
      25A     -0.428987

  @DF-RHF Final Energy:  -271.28236684208537

   => Energetics <=

    Nuclear Repulsion Energy =            252.3363590748783452
    One-Electron Energy =                -868.0009825621443724
    Two-Electron Energy =                 344.3822566451805756
    DFT Exchange-Correlation Energy =       0.0000000000000000
    Empirical Dispersion Energy =           0.0000000000000000
    PCM Polarization Energy =               0.0000000000000000
    EFP Energy =                            0.0000000000000000
    Total Energy =                       -271.2823668420854233
    Molecular point group: c1
  Basis Set: CC-PVTZ
  Basis Set:

  -Total Gradient:
     Atom            X                  Y                   Z
    ------   -----------------  -----------------  -----------------
       1        0.000026516123     0.000009562121    -0.000014958062
       2       -0.000096823233     0.000010776214    -0.000016914134
       3        0.000054618689    -0.000004439572     0.000077379705
       4       -0.000019897383     0.000000578515    -0.000066536107
       5        0.000025066417    -0.000054590766    -0.000004517888
       6       -0.000007730142     0.000016613055    -0.000025430060
       7        0.002241365310    -0.002585403388     0.006533630532
       8       -0.000012276849    -0.000001420980     0.000011211699
       9        0.000014845194    -0.000014253522    -0.000019176893
      10       -0.000250794383    -0.004448970447    -0.005742185430
      11       -0.001836924351     0.002902355831    -0.004594540283
      12        0.000002418923    -0.000008848476    -0.000017775023
      13        0.000024621283     0.000014097308    -0.000009919001
      14       -0.000147571054     0.004216041663     0.003836788707
      15       -0.000004645543    -0.000001937068     0.000015908017
      16        0.000013162835    -0.000000400290    -0.000027335302
      17       -0.000070223875    -0.000000524201     0.000009947126
      18        0.000044272033    -0.000049236000     0.000054422394

  **** Optimization is complete! (in 7 steps) ****
    Final optimized geometry and variables:
    Molecular point group: c1

    Geometry (in Angstrom), charge = 0, multiplicity = 1:

    H           -3.035023444246    -1.428263156480    -0.497852293047
    O           -2.168015824400    -1.102652912102    -0.653036619003
    C           -1.921800436506     0.021093013596     0.152402074782
    C           -0.500114011779     0.498138584778    -0.077445777106
    H           -2.616580832657     0.819525626448    -0.095086339864
    H           -2.064392268463    -0.225717317250     1.202767010864
    C            0.554151366380    -0.510039027479     0.383805469583
    H           -0.378928775313     0.703650087335    -1.137138491341
    H           -0.380841070344     1.442228996283     0.443389394523
    C            2.002637634208    -0.139705938812     0.031329723579
    H            0.313165124217    -1.449020719404    -0.098229181532
    H            0.461080420049    -0.652566439124     1.456807663182
    C            2.369271700770     1.331845141251     0.228842245720
    H            2.662115634232    -0.712848445266     0.675327893059
    H            2.215889078277    -0.426087321272    -0.993004433461
    H            2.157309169377     1.657731272135     1.242528222837
    H            3.427899831471     1.483765867860     0.051737452139
    H            1.829851122705     1.983451821915    -0.447302692899

  Mulliken Charges: (a.u.)
   Center  Symbol    Alpha    Beta     Spin     Total
       1     H     0.39564  0.39564  0.00000  0.20872
       2     O     4.19886  4.19886  0.00000 -0.39772
       3     C     2.97352  2.97352  0.00000  0.05297
       4     C     3.09453  3.09453  0.00000 -0.18906
       5     H     0.46496  0.46496  0.00000  0.07009
       6     H     0.47382  0.47382  0.00000  0.05237
       7     C     3.09600  3.09600  0.00000 -0.19200
       8     H     0.45135  0.45135  0.00000  0.09730
       9     H     0.45145  0.45145  0.00000  0.09711
      10     C     3.08939  3.08939  0.00000 -0.17878
      11     H     0.44145  0.44145  0.00000  0.11710
      12     H     0.45623  0.45623  0.00000  0.08754
      13     C     3.15735  3.15735  0.00000 -0.31470
      14     H     0.45145  0.45145  0.00000  0.09711
      15     H     0.45089  0.45089  0.00000  0.09823
      16     H     0.45509  0.45509  0.00000  0.08982
      17     H     0.44570  0.44570  0.00000  0.10860
      18     H     0.45235  0.45235  0.00000  0.09530

   Total alpha = 25.00000, Total beta = 25.00000, Total charge = -0.00000

*** Psi4 exiting successfully. Buy a developer a beer!
