  ==> Input File <==

--------------------------------------------------------------------------
set {
	reference rhf
	basis 6-31G*
}

set_num_threads( 1 )
memory 2 gb

molecule MOL {
0 1

H	 1.136379	 0.211822	 1.465562
C	 1.135357	 0.094285	 0.374742
C	 0.065331	 0.871482	 -0.349150
O	 1.941633	 -0.601957	 -0.151457
C	 -0.765785	 1.747107	 0.599538
H	 -0.559191	 0.170468	 -0.890874
H	 0.566195	 1.507249	 -1.077914
C	 -1.619199	 0.937975	 1.576990
H	 -1.407672	 2.387602	 0.003083
H	 -0.103844	 2.410922	 1.151647
H	 -2.312355	 0.293220	 1.045623
H	 -2.198529	 1.594099	 2.218235
H	 -1.009659	 0.306334	 2.216428

	symmetry c1
}
set optking {
	frozen_dihedral = ("
		6 3 5 9
	")
}

ee = energy('scf')
oeprop('DIPOLE', 'QUADRUPOLE', 'MULLIKEN_CHARGES')
f=open( 'psi4out.xyz', 'w' )
f.write( "13  " )
f.write( str(ee) + "\n" )
f.write( MOL.save_string_xyz() )
f.close()
--------------------------------------------------------------------------

    Molecular point group: c1

    Geometry (in Angstrom), charge = 0, multiplicity = 1:

       Center              X                  Y                   Z               Mass
    ------------   -----------------  -----------------  -----------------  -----------------
           H          0.984972904498    -0.386771400939     1.046692854683     1.007825032070
           C          0.983950904498    -0.504308400939    -0.044127145317    12.000000000000
           C         -0.086075095502     0.272888599061    -0.768019145317    12.000000000000
           O          1.790226904498    -1.200550400939    -0.570326145317    15.994914619560
           C         -0.917191095502     1.148513599061     0.180668854683    12.000000000000
           H         -0.710597095502    -0.428125400939    -1.309743145317     1.007825032070
           H          0.414788904498     0.908655599061    -1.496783145317     1.007825032070
           C         -1.770605095502     0.339381599061     1.158120854683    12.000000000000
           H         -1.559078095502     1.789008599061    -0.415786145317     1.007825032070
           H         -0.255250095502     1.812328599061     0.732777854683     1.007825032070
           H         -2.463761095502    -0.305373400939     0.626753854683     1.007825032070
           H         -2.349935095502     0.995505599061     1.799365854683     1.007825032070
           H         -1.161065095502    -0.292259400939     1.797558854683     1.007825032070

  Charge       = 0
  Multiplicity = 1
  Basis Set: 6-31G*
  Basis Set:

    Orbital Energies (a.u.)
    -----------------------

    Doubly Occupied:

       1A    -20.561852     2A    -11.327329     3A    -11.237317
       4A    -11.236448     5A    -11.225243     6A     -1.402313
       7A     -1.088964     8A     -0.973055     9A     -0.850204
      10A     -0.790973    11A     -0.661913    12A     -0.651493
      13A     -0.626482    14A     -0.591421    15A     -0.578343
      16A     -0.525474    17A     -0.508678    18A     -0.492869
      19A     -0.484252    20A     -0.409184

  @DF-RHF Final Energy:  -230.98216989560581

   => Energetics <=

    Nuclear Repulsion Energy =            172.7353448647469349
    One-Electron Energy =                -654.9874752048566506
    Two-Electron Energy =                 251.2699604445039654
    DFT Exchange-Correlation Energy =       0.0000000000000000
    Empirical Dispersion Energy =           0.0000000000000000
    PCM Polarization Energy =               0.0000000000000000
    EFP Energy =                            0.0000000000000000
    Total Energy =                       -230.9821698956057503

  Mulliken Charges: (a.u.)
   Center  Symbol    Alpha    Beta     Spin     Total
       1     H     0.42989  0.42989  0.00000  0.14022
       2     C     2.83508  2.83508  0.00000  0.32983
       3     C     3.20546  3.20546  0.00000 -0.41092
       4     O     4.24118  4.24118  0.00000 -0.48236
       5     C     3.16864  3.16864  0.00000 -0.33728
       6     H     0.39860  0.39860  0.00000  0.20280
       7     H     0.39751  0.39751  0.00000  0.20498
       8     C     3.24479  3.24479  0.00000 -0.48957
       9     H     0.41176  0.41176  0.00000  0.17649
      10     H     0.41741  0.41741  0.00000  0.16519
      11     H     0.41713  0.41713  0.00000  0.16573
      12     H     0.41339  0.41339  0.00000  0.17322
      13     H     0.41917  0.41917  0.00000  0.16166

   Total alpha = 20.00000, Total beta = 20.00000, Total charge = -0.00000
