                              Psi4 1.0.54 Driver

  ==> Input File <==

--------------------------------------------------------------------------
set {
	reference rhf
	basis cc-pvtz
}

set_num_threads( 4 )
memory 2 gb

molecule MOL {
0 1

H	 2.614283	 2.028610	 0.296620
O	 3.358864	 1.662087	 -0.142800
C	 3.565468	 0.338079	 0.273842
C	 3.342306	 0.129467	 1.764267
H	 2.859345	 -0.261059	 -0.285090
H	 4.563012	 0.003860	 -0.004822
C	 4.342160	 0.861411	 2.656680
H	 2.332922	 0.445599	 2.009951
H	 3.396267	 -0.938059	 1.963952
C	 4.107199	 0.602075	 4.144086
H	 4.283433	 1.927088	 2.462036
H	 5.352466	 0.550768	 2.395782
C	 5.125956	 1.251862	 5.082258
H	 3.108152	 0.937714	 4.411437
H	 4.120379	 -0.471055	 4.313462
C	 5.086878	 2.778513	 5.121646
H	 4.952425	 0.875985	 6.086813
H	 6.126203	 0.924766	 4.807178
C	 6.051504	 3.374546	 6.143727
H	 4.075099	 3.104720	 5.352646
H	 5.320927	 3.183719	 4.141834
C	 6.017750	 4.898753	 6.183019
H	 5.815672	 2.983950	 7.129828
H	 7.061762	 3.042736	 5.919351
H	 5.027294	 5.261854	 6.436775
H	 6.711056	 5.288434	 6.919621
H	 6.286379	 5.321539	 5.220500

	symmetry c1
}
set optking {
	frozen_dihedral = ("
		4 3 2 1
	")
}

ee,wfn = optimize('scf', return_wfn=True)
oeprop( wfn, 'DIPOLE', 'QUADRUPOLE', 'MULLIKEN_CHARGES')
f=open( 'psi4out.xyz', 'w' )
f.write( "27  " )
f.write( str(ee) + "\n" )
f.write( MOL.save_string_xyz() )
f.close()
--------------------------------------------------------------------------

    Molecular point group: c1
  Charge       = 0
  Multiplicity = 1
  Basis Set: CC-PVTZ
  Basis Set:
  @DF-RHF Final Energy:  -388.42599813602783
    Total Energy =                       -388.4259981360272604
    Molecular point group: c1
  Basis Set: CC-PVTZ
  Basis Set:
  Basis Set: CC-PVTZ
  Basis Set:
  @DF-RHF Final Energy:  -388.42706170302927
    Total Energy =                       -388.4270617030292669
  Basis Set: CC-PVTZ
  Basis Set:
  Basis Set: CC-PVTZ
  Basis Set:
  @DF-RHF Final Energy:  -388.42745464880863
    Total Energy =                       -388.4274546488082933
  Basis Set: CC-PVTZ
  Basis Set:
  Basis Set: CC-PVTZ
  Basis Set:
  @DF-RHF Final Energy:  -388.42746578983480
    Total Energy =                       -388.4274657898346277
  Basis Set: CC-PVTZ
  Basis Set:
  Basis Set: CC-PVTZ
  Basis Set:
  @DF-RHF Final Energy:  -388.42746736450118
    Total Energy =                       -388.4274673645013536
  Basis Set: CC-PVTZ
  Basis Set:
  Charge       = 0
  Multiplicity = 1
  Basis Set: CC-PVTZ
  Basis Set:

    Orbital Energies (a.u.)
    -----------------------

    Doubly Occupied:

       1A    -20.545196     2A    -11.265026     3A    -11.218885
       4A    -11.213515     5A    -11.212376     6A    -11.212103
       7A    -11.211544     8A    -11.209788     9A    -11.205588
      10A     -1.363287    11A     -1.094774    12A     -1.061773
      13A     -1.012003    14A     -0.947474    15A     -0.886698
      16A     -0.824484    17A     -0.803430    18A     -0.777607
      19A     -0.672049    20A     -0.653848    21A     -0.643723
      22A     -0.624746    23A     -0.606796    24A     -0.585546
      25A     -0.572578    26A     -0.562319    27A     -0.537774
      28A     -0.521599    29A     -0.513628    30A     -0.488479
      31A     -0.481702    32A     -0.477453    33A     -0.466236
      34A     -0.458645    35A     -0.453707    36A     -0.443935
      37A     -0.423443

  @DF-RHF Final Energy:  -388.42746767995374

   => Energetics <=

    Nuclear Repulsion Energy =            460.4272243404199685
    One-Electron Energy =               -1439.2018647431918907
    Two-Electron Energy =                 590.3471727228177315
    DFT Exchange-Correlation Energy =       0.0000000000000000
    Empirical Dispersion Energy =           0.0000000000000000
    PCM Polarization Energy =               0.0000000000000000
    EFP Energy =                            0.0000000000000000
    Total Energy =                       -388.4274676799541339
    Molecular point group: c1
  Basis Set: CC-PVTZ
  Basis Set:

  -Total Gradient:
     Atom            X                  Y                   Z
    ------   -----------------  -----------------  -----------------
       1        0.001311135178     0.000614009727     0.001374285779
       2       -0.002144518545    -0.000863329107    -0.001760421402
       3        0.002072191302     0.000513573720     0.000575170575
       4       -0.001183792016    -0.000274440055    -0.000219651450
       5        0.000015613535     0.000018130113     0.000015392612
       6       -0.000047089437    -0.000013264101     0.000020382848
       7       -0.000007051799    -0.000004545546     0.000009300416
       8        0.000013593354    -0.000005940599    -0.000020067222
       9       -0.000014739393     0.000019900643     0.000020183522
      10       -0.000001686084     0.000015728061     0.000005655172
      11       -0.000028240255    -0.000019784242    -0.000017085031
      12       -0.000002017120    -0.000008476613    -0.000003674587
      13        0.000009044432     0.000001221480    -0.000010821485
      14        0.000009049855     0.000002725587    -0.000009937728
      15       -0.000004921304     0.000005322712     0.000006755736
      16        0.000007444245    -0.000000619486    -0.000003975474
      17        0.000008195513    -0.000001093079    -0.000007933143
      18       -0.000007502786     0.000004687982    -0.000007132623
      19       -0.000007519269    -0.000000025798     0.000010515162
      20        0.000001914165    -0.000001363407    -0.000007481518
      21        0.000003275027    -0.000004647404     0.000026021452
      22       -0.000002322635    -0.000000492543     0.000001318466
      23        0.000004422597     0.000003345454     0.000000705653
      24       -0.000008170583     0.000002252341    -0.000000911391
      25        0.000005477985    -0.000001441449    -0.000001278396
      26        0.000000423958     0.000002159351     0.000000675714
      27       -0.000002209920    -0.000003593742     0.000004008337

  **** Optimization is complete! (in 6 steps) ****
    Final optimized geometry and variables:
    Molecular point group: c1

    Geometry (in Angstrom), charge = 0, multiplicity = 1:

    H           -1.968219395875     0.186607429974    -3.027229903845
    O           -1.234177985307    -0.168647896476    -3.494306987548
    C           -1.007428140218    -1.495348940653    -3.095749212913
    C           -1.183647463615    -1.720472730458    -1.602058309032
    H           -1.670996988557    -2.162393505072    -3.640318860664
    H            0.005820389562    -1.732319859619    -3.395212392824
    C           -0.191114001336    -0.951350628991    -0.733197163142
    H           -2.202400156874    -1.452372997034    -1.324022405104
    H           -1.091003841638    -2.785744739024    -1.408655866787
    C           -0.417940789001    -1.171812184423     0.761299457639
    H           -0.253096379014     0.103465340998    -0.971114281172
    H            0.818206850650    -1.262610001441    -0.992355142253
    C            0.607099937365    -0.496107682409     1.674026552315
    H           -1.415127395813    -0.828727577183     1.028348624304
    H           -0.404004700179    -2.239945019247     0.961261193487
    C            0.568197399649     1.030954227799     1.668163465478
    H            0.441039025885    -0.842403121802     2.690440103008
    H            1.605002451119    -0.831131909391     1.400750934235
    C            1.543865011505     1.657284675915     2.661105424100
    H           -0.441090579592     1.363668588432     1.901620234777
    H            0.790559492128     1.406025009493     0.674116818360
    C            1.508988780661     3.181913900881     2.655951674770
    H            1.320490413843     1.295588207181     3.661099949847
    H            2.551618464734     1.320023900905     2.434153519184
    H            0.521613391558     3.551645217581     2.912300235830
    H            2.211619763984     3.593716644611     3.371373086879
    H            1.764071193265     3.576011886300     1.677839999909

  Mulliken Charges: (a.u.)
   Center  Symbol    Alpha    Beta     Spin     Total
       1     H     0.39415  0.39415  0.00000  0.21170
       2     O     4.20498  4.20498  0.00000 -0.40997
       3     C     2.96659  2.96659  0.00000  0.06683
       4     C     3.11211  3.11211  0.00000 -0.22422
       5     H     0.46275  0.46275  0.00000  0.07450
       6     H     0.46238  0.46238  0.00000  0.07523
       7     C     3.08893  3.08893  0.00000 -0.17786
       8     H     0.45738  0.45738  0.00000  0.08525
       9     H     0.44989  0.44989  0.00000  0.10023
      10     C     3.09918  3.09918  0.00000 -0.19836
      11     H     0.44738  0.44738  0.00000  0.10525
      12     H     0.45362  0.45362  0.00000  0.09275
      13     C     3.09771  3.09771  0.00000 -0.19542
      14     H     0.45412  0.45412  0.00000  0.09175
      15     H     0.44875  0.44875  0.00000  0.10250
      16     C     3.08865  3.08865  0.00000 -0.17730
      17     H     0.44849  0.44849  0.00000  0.10302
      18     H     0.45339  0.45339  0.00000  0.09323
      19     C     3.08399  3.08399  0.00000 -0.16798
      20     H     0.45612  0.45612  0.00000  0.08775
      21     H     0.45187  0.45187  0.00000  0.09627
      22     C     3.14977  3.14977  0.00000 -0.29954
      23     H     0.45434  0.45434  0.00000  0.09131
      24     H     0.45447  0.45447  0.00000  0.09107
      25     H     0.45560  0.45560  0.00000  0.08879
      26     H     0.44855  0.44855  0.00000  0.10289
      27     H     0.45484  0.45484  0.00000  0.09032

   Total alpha = 37.00000, Total beta = 37.00000, Total charge = -0.00000

*** Psi4 exiting successfully. Buy a developer a beer!
