  ==> Input File <==

--------------------------------------------------------------------------
set {
	reference rhf
	basis 6-31G*
}

set_num_threads( 1 )
memory 2 gb

molecule MOL {
0 1

H	 3.419946	 -0.523549	 -1.243770
O	 2.500796	 -0.733091	 -1.109565
C	 2.077727	 -0.067559	 -0.035091
C	 0.624473	 -0.343591	 0.253101
O	 2.794441	 0.645294	 0.588750
C	 -0.265902	 0.883932	 0.072916
H	 0.324016	 -1.163849	 -0.390541
H	 0.565024	 -0.726111	 1.268924
C	 -1.728698	 0.646073	 0.462102
H	 -0.209144	 1.219470	 -0.958188
H	 0.135059	 1.692851	 0.673903
C	 -2.482460	 -0.343073	 -0.431425
H	 -2.245265	 1.602650	 0.432430
H	 -1.779332	 0.308348	 1.496285
C	 -3.960546	 -0.461025	 -0.060175
H	 -2.395034	 -0.026811	 -1.468912
H	 -2.024850	 -1.327147	 -0.371646
H	 -4.472726	 -1.168004	 -0.705284
H	 -4.465146	 0.496508	 -0.151489
H	 -4.081218	 -0.800940	 0.964585

	symmetry c1
}
set optking {
	frozen_dihedral = ("
		16 12 9 6,
		7 4 6 10,
		12 9 6 10,
		1 2 3 5
	")
}

ee = energy('scf')
oeprop('DIPOLE', 'QUADRUPOLE', 'MULLIKEN_CHARGES')
f=open( 'psi4out.xyz', 'w' )
f.write( "20  " )
f.write( str(ee) + "\n" )
f.write( MOL.save_string_xyz() )
f.close()
--------------------------------------------------------------------------

    Molecular point group: c1

    Geometry (in Angstrom), charge = 0, multiplicity = 1:

       Center              X                  Y                   Z               Mass
    ------------   -----------------  -----------------  -----------------  -----------------
           H          3.432794425828    -0.540372500626    -1.195093852908     1.007825032070
           O          2.513644425828    -0.749914500626    -1.060888852908    15.994914619560
           C          2.090575425828    -0.084382500626     0.013585147092    12.000000000000
           C          0.637321425828    -0.360414500626     0.301777147092    12.000000000000
           O          2.807289425828     0.628470499374     0.637426147092    15.994914619560
           C         -0.253053574172     0.867108499374     0.121592147092    12.000000000000
           H          0.336864425828    -1.180672500626    -0.341864852908     1.007825032070
           H          0.577872425828    -0.742934500626     1.317600147092     1.007825032070
           C         -1.715849574172     0.629249499374     0.510778147092    12.000000000000
           H         -0.196295574172     1.202646499374    -0.909511852908     1.007825032070
           H          0.147907425828     1.676027499374     0.722579147092     1.007825032070
           C         -2.469611574172    -0.359896500626    -0.382748852908    12.000000000000
           H         -2.232416574172     1.585826499374     0.481106147092     1.007825032070
           H         -1.766483574172     0.291524499374     1.544961147092     1.007825032070
           C         -3.947697574172    -0.477848500626    -0.011498852908    12.000000000000
           H         -2.382185574172    -0.043634500626    -1.420235852908     1.007825032070
           H         -2.012001574172    -1.343970500626    -0.322969852908     1.007825032070
           H         -4.459877574172    -1.184827500626    -0.656607852908     1.007825032070
           H         -4.452297574172     0.479684499374    -0.102812852908     1.007825032070
           H         -4.068369574172    -0.817763500626     1.013261147092     1.007825032070

  Charge       = 0
  Multiplicity = 1
  Basis Set: 6-31G*
  Basis Set:

    Orbital Energies (a.u.)
    -----------------------

    Doubly Occupied:

       1A    -20.613420     2A    -20.549229     3A    -11.380256
       4A    -11.238005     5A    -11.231288     6A    -11.223942
       7A    -11.221909     8A    -11.213685     9A     -1.474044
      10A     -1.364411    11A     -1.099231    12A     -1.042150
      13A     -0.961973    14A     -0.868860    15A     -0.818208
      16A     -0.786665    17A     -0.701964    18A     -0.686594
      19A     -0.643507    20A     -0.640659    21A     -0.613251
      22A     -0.594425    23A     -0.575857    24A     -0.555283
      25A     -0.546823    26A     -0.513632    27A     -0.502208
      28A     -0.478924    29A     -0.474645    30A     -0.467022
      31A     -0.460280    32A     -0.438092

  @DF-RHF Final Energy:  -383.94633130449483

   => Energetics <=

    Nuclear Repulsion Energy =            375.9702130930819521
    One-Electron Energy =               -1267.8721998211572100
    Two-Electron Energy =                 507.9556554235812200
    DFT Exchange-Correlation Energy =       0.0000000000000000
    Empirical Dispersion Energy =           0.0000000000000000
    PCM Polarization Energy =               0.0000000000000000
    EFP Energy =                            0.0000000000000000
    Total Energy =                       -383.9463313044940378

  Mulliken Charges: (a.u.)
   Center  Symbol    Alpha    Beta     Spin     Total
       1     H     0.26873  0.26873  0.00000  0.46253
       2     O     4.34749  4.34749  0.00000 -0.69498
       3     C     2.62758  2.62758  0.00000  0.74483
       4     C     3.20814  3.20814  0.00000 -0.41628
       5     O     4.27902  4.27902  0.00000 -0.55805
       6     C     3.16378  3.16378  0.00000 -0.32757
       7     H     0.39752  0.39752  0.00000  0.20495
       8     H     0.40010  0.40010  0.00000  0.19979
       9     C     3.15493  3.15493  0.00000 -0.30987
      10     H     0.41462  0.41462  0.00000  0.17076
      11     H     0.40302  0.40302  0.00000  0.19396
      12     C     3.15471  3.15471  0.00000 -0.30942
      13     H     0.41758  0.41758  0.00000  0.16485
      14     H     0.42096  0.42096  0.00000  0.15807
      15     C     3.23958  3.23958  0.00000 -0.47915
      16     H     0.42144  0.42144  0.00000  0.15711
      17     H     0.42124  0.42124  0.00000  0.15751
      18     H     0.41785  0.41785  0.00000  0.16431
      19     H     0.42073  0.42073  0.00000  0.15853
      20     H     0.42095  0.42095  0.00000  0.15810

   Total alpha = 32.00000, Total beta = 32.00000, Total charge = -0.00000
