  ==> Input File <==

--------------------------------------------------------------------------
set {
	reference rhf
	basis 6-31G*
}

set_num_threads( 4 )
memory 2 gb

molecule MOL {
0 1

H	 -3.892951	 0.981613	 -0.358725
C	 -3.196921	 0.361773	 0.172313
C	 -2.076860	 -0.007332	 -0.404944
H	 -3.439953	 0.057760	 1.173024
O	 -1.748574	 0.392374	 -1.661656
H	 -1.347455	 -0.627766	 0.085185
C	 -0.638775	 -0.179825	 -2.263973
C	 -0.988605	 -1.470279	 -2.970118
H	 0.154269	 -0.387553	 -1.554308
H	 -0.271754	 0.514406	 -3.005475
F	 0.093595	 -1.957843	 -3.559126
F	 -1.433656	 -2.386493	 -2.126132
F	 -1.909758	 -1.294539	 -3.894770

	symmetry c1
}
set optking {
	frozen_dihedral = ("
		6 3 2 1
	")
}

ee = optimize('scf')
oeprop('DIPOLE', 'QUADRUPOLE', 'MULLIKEN_CHARGES')
f=open( 'psi4out.xyz', 'w' )
f.write( "13  " )
f.write( str(ee) + "\n" )
f.write( MOL.save_string_xyz() )
f.close()
--------------------------------------------------------------------------

    Molecular point group: c1
  Charge       = 0
  Multiplicity = 1
  Basis Set: 6-31G*
  Basis Set:
  @DF-RHF Final Energy:  -527.53579679151596
    Total Energy =                       -527.5357967915161908
    Molecular point group: c1
  Basis Set: 6-31G*
  Basis Set:
  Basis Set: 6-31G*
  Basis Set:
  @DF-RHF Final Energy:  -527.53590544879887
    Total Energy =                       -527.5359054487984167
  Basis Set: 6-31G*
  Basis Set:
  Basis Set: 6-31G*
  Basis Set:
  @DF-RHF Final Energy:  -527.53591276742884
    Total Energy =                       -527.5359127674290676
  Basis Set: 6-31G*
  Basis Set:
  Basis Set: 6-31G*
  Basis Set:
  @DF-RHF Final Energy:  -527.53591397523371
    Total Energy =                       -527.5359139752340525
  Basis Set: 6-31G*
  Basis Set:
  Charge       = 0
  Multiplicity = 1
  Basis Set: 6-31G*
  Basis Set:

    Orbital Energies (a.u.)
    -----------------------

    Doubly Occupied:

       1A    -26.344651     2A    -26.343709     3A    -26.340575
       4A    -20.608425     5A    -11.503161     6A    -11.318964
       7A    -11.299441     8A    -11.215765     9A     -1.741763
      10A     -1.639894    11A     -1.638271    12A     -1.438293
      13A     -1.084247    14A     -1.016481    15A     -0.925347
      16A     -0.836582    17A     -0.830997    18A     -0.821284
      19A     -0.791871    20A     -0.721851    21A     -0.711352
      22A     -0.696458    23A     -0.675873    24A     -0.660414
      25A     -0.654663    26A     -0.643128    27A     -0.634300
      28A     -0.584665    29A     -0.563087    30A     -0.523967
      31A     -0.514159    32A     -0.351466

  @DF-RHF Final Energy:  -527.53591416797394

   => Energetics <=

    Nuclear Repulsion Energy =            413.5202168886576146
    One-Electron Energy =               -1550.7620612393852753
    Two-Electron Energy =                 609.7059301827537183
    DFT Exchange-Correlation Energy =       0.0000000000000000
    Empirical Dispersion Energy =           0.0000000000000000
    PCM Polarization Energy =               0.0000000000000000
    EFP Energy =                            0.0000000000000000
    Total Energy =                       -527.5359141679739423
    Molecular point group: c1
  Basis Set: 6-31G*
  Basis Set:

  -Total Gradient:
     Atom            X                  Y                   Z
    ------   -----------------  -----------------  -----------------
       1        0.000142891056     0.000227259192     0.000107492953
       2       -0.000123903938    -0.000216241429    -0.000132389081
       3       -0.000139125740    -0.000255732734    -0.000056438328
       4        0.000001137752    -0.000008267740     0.000009387852
       5        0.000006962406     0.000016923641    -0.000058067357
       6        0.000131681165     0.000238033778     0.000097936824
       7       -0.000019121901    -0.000006817115     0.000026102607
       8        0.000004691030     0.000003179250    -0.000002984648
       9        0.000004623876    -0.000001233077     0.000002589857
      10       -0.000007483001     0.000005350087     0.000005135755
      11        0.000004180182    -0.000001325756    -0.000002939672
      12       -0.000004271777    -0.000000557977     0.000002830062
      13       -0.000002261108    -0.000000570124     0.000001343181

  **** Optimization is complete! (in 5 steps) ****
    Final optimized geometry and variables:
    Molecular point group: c1

    Geometry (in Angstrom), charge = 0, multiplicity = 1:

    H           -2.475829625073     1.904209837165     1.862338584146
    C           -1.761739220320     1.285123149200     2.372084860602
    C           -0.641046534530     0.913447319497     1.797797572932
    H           -1.977602151503     0.972377200309     3.375228755679
    O           -0.308696259770     1.312290035220     0.541802404617
    H            0.087031320888     0.293881606439     2.290866691180
    C            0.801748283020     0.738020301327    -0.057235035037
    C            0.451738076351    -0.551929471105    -0.764189973014
    H            1.592452086687     0.528952874426     0.654675364233
    H            1.172048882957     1.431459205832    -0.797789763786
    F            1.534653857479    -1.041309482859    -1.350302255568
    F            0.002837888647    -1.467315364360     0.078644730500
    F           -0.466686098663    -0.374613919798    -1.691258970548

  Mulliken Charges: (a.u.)
   Center  Symbol    Alpha    Beta     Spin     Total
       1     H     0.40181  0.40181  0.00000  0.19638
       2     C     3.23566  3.23566  0.00000 -0.47133
       3     C     2.89521  2.89521  0.00000  0.20957
       4     H     0.40707  0.40707  0.00000  0.18585
       5     O     4.30166  4.30166  0.00000 -0.60331
       6     H     0.40678  0.40678  0.00000  0.18644
       7     C     3.06397  3.06397  0.00000 -0.12794
       8     C     2.45565  2.45565  0.00000  1.08870
       9     H     0.40556  0.40556  0.00000  0.18889
      10     H     0.38975  0.38975  0.00000  0.22050
      11     F     4.68280  4.68280  0.00000 -0.36560
      12     F     4.67960  4.67960  0.00000 -0.35919
      13     F     4.67448  4.67448  0.00000 -0.34895

   Total alpha = 32.00000, Total beta = 32.00000, Total charge = -0.00000
