  ==> Input File <==

--------------------------------------------------------------------------
set {
	reference rhf
	basis cc-pvtz
}

set_num_threads( 4 )
memory 2 gb

molecule MOL {
0 1

H	 -2.290159	 1.196317	 -1.153029
C	 -1.441098	 1.858806	 -1.050925
C	 -0.134428	 1.081896	 -1.093802
H	 -1.549374	 2.384756	 -0.111847
H	 -1.473722	 2.583885	 -1.855350
C	 0.000000	 0.039916	 0.000014
H	 0.716730	 1.752958	 -1.015671
H	 -0.017573	 0.574859	 -2.047820
C	 1.286532	 -0.763243	 0.000268
O	 -0.851764	 -0.136620	 0.808539
C	 2.547023	 0.087626	 -0.000114
H	 1.264245	 -1.421103	 -0.864380
H	 1.264290	 -1.420353	 0.865489
H	 2.584452	 0.725630	 -0.872909
H	 3.427035	 -0.544422	 0.000125
H	 2.584484	 0.726356	 0.872143

	symmetry c1
}
set optking {
	frozen_dihedral = ("
		3 6 9 12
	")
}

ee = optimize('scf')
oeprop('DIPOLE', 'QUADRUPOLE', 'MULLIKEN_CHARGES')
f=open( 'psi4out.xyz', 'w' )
f.write( "16  " )
f.write( str(ee) + "\n" )
f.write( MOL.save_string_xyz() )
f.close()
--------------------------------------------------------------------------

    Molecular point group: c1
  Charge       = 0
  Multiplicity = 1
  Basis Set: CC-PVTZ
  Basis Set:
  @DF-RHF Final Energy:  -270.12796948676066
    Total Energy =                       -270.1279694867606622
    Molecular point group: c1
  Basis Set: CC-PVTZ
  Basis Set:
  Basis Set: CC-PVTZ
  Basis Set:
  @DF-RHF Final Energy:  -270.12829181593213
    Total Energy =                       -270.1282918159319024
  Basis Set: CC-PVTZ
  Basis Set:
  Basis Set: CC-PVTZ
  Basis Set:
  @DF-RHF Final Energy:  -270.12891318666436
    Total Energy =                       -270.1289131866642492
  Basis Set: CC-PVTZ
  Basis Set:
  Basis Set: CC-PVTZ
  Basis Set:
  @DF-RHF Final Energy:  -270.12903329905862
    Total Energy =                       -270.1290332990589036
  Basis Set: CC-PVTZ
  Basis Set:
  Basis Set: CC-PVTZ
  Basis Set:
  @DF-RHF Final Energy:  -270.12899673839161
    Total Energy =                       -270.1289967383916064
  Basis Set: CC-PVTZ
  Basis Set:
  Basis Set: CC-PVTZ
  Basis Set:
  @DF-RHF Final Energy:  -270.12907670058939
    Total Energy =                       -270.1290767005894509
  Basis Set: CC-PVTZ
  Basis Set:
  Basis Set: CC-PVTZ
  Basis Set:
  @DF-RHF Final Energy:  -270.12907853676575
    Total Energy =                       -270.1290785367657463
  Basis Set: CC-PVTZ
  Basis Set:
  Charge       = 0
  Multiplicity = 1
  Basis Set: CC-PVTZ
  Basis Set:

    Orbital Energies (a.u.)
    -----------------------

    Doubly Occupied:

       1A    -20.537776     2A    -11.317261     3A    -11.232017
       4A    -11.231195     5A    -11.227333     6A    -11.211603
       7A     -1.397689     8A     -1.074003     9A     -1.036158
      10A     -0.909785    11A     -0.864292    12A     -0.725180
      13A     -0.662673    14A     -0.640957    15A     -0.633959
      16A     -0.608967    17A     -0.558272    18A     -0.544641
      19A     -0.535313    20A     -0.511535    21A     -0.506549
      22A     -0.495769    23A     -0.483446    24A     -0.398655

  @DF-RHF Final Energy:  -270.12907875858718

   => Energetics <=

    Nuclear Repulsion Energy =            240.9072163968798179
    One-Electron Energy =                -843.3825327261045004
    Two-Electron Energy =                 332.3462375706375838
    DFT Exchange-Correlation Energy =       0.0000000000000000
    Empirical Dispersion Energy =           0.0000000000000000
    PCM Polarization Energy =               0.0000000000000000
    EFP Energy =                            0.0000000000000000
    Total Energy =                       -270.1290787585871271
    Molecular point group: c1
  Basis Set: CC-PVTZ
  Basis Set:

  -Total Gradient:
     Atom            X                  Y                   Z
    ------   -----------------  -----------------  -----------------
       1       -0.000001483848    -0.000000129832     0.000000574311
       2        0.000006637515    -0.000000394282    -0.000000179628
       3        0.000144074591     0.000203876797     0.000189836932
       4       -0.000001343725     0.000000107971    -0.000000136272
       5       -0.000000971023     0.000000711270     0.000000392600
       6       -0.000260704068    -0.000361318105    -0.000227764883
       7        0.000002525453     0.000000439482     0.000001392333
       8        0.000002029140     0.000001086716    -0.000001561281
       9        0.000301147623     0.000436125208    -0.000204853854
      10        0.000001630687    -0.000002427855     0.000000304692
      11        0.000003716945     0.000003985188     0.000009621689
      12       -0.000196200763    -0.000286498817     0.000231644805
      13        0.000001143480     0.000004070140     0.000000773779
      14       -0.000004492498    -0.000003365283    -0.000000028880
      15       -0.000001186019     0.000000621326    -0.000001075091
      16        0.000003476511     0.000003110076     0.000001058749

  **** Optimization is complete! (in 8 steps) ****
    Final optimized geometry and variables:
    Molecular point group: c1

    Geometry (in Angstrom), charge = 0, multiplicity = 1:

    H           -2.505029403896     0.676546964541    -1.080823052572
    C           -1.740949586473     1.416291771814    -0.879835722701
    C           -0.361145950720     0.777760551177    -0.829744207758
    H           -1.983639126319     1.887595112128     0.062354648869
    H           -1.779139831037     2.166968942710    -1.660212229942
    C           -0.216426451327    -0.280874154610     0.246839345042
    H            0.398318498343     1.532561803871    -0.647100089746
    H           -0.103360650300     0.329723207807    -1.785394257920
    C            1.028960824571    -1.148155699292     0.220421024873
    O           -1.050712926922    -0.441561837030     1.077585123795
    C            2.350407434321    -0.381104845447     0.159423968153
    H            0.948366961009    -1.802712567470    -0.643900202585
    H            0.992954508615    -1.772958267400     1.101717119370
    H            2.453800807363     0.181433419699    -0.759767155006
    H            3.181472440350    -1.072664082993     0.215211662640
    H            2.440517628650     0.310170880939     0.989707958933

  Mulliken Charges: (a.u.)
   Center  Symbol    Alpha    Beta     Spin     Total
       1     H     0.44966  0.44966  0.00000  0.10068
       2     C     3.14169  3.14169  0.00000 -0.28339
       3     C     3.10869  3.10869  0.00000 -0.21737
       4     H     0.44541  0.44541  0.00000  0.10917
       5     H     0.45088  0.45088  0.00000  0.09824
       6     C     2.86375  2.86375  0.00000  0.27251
       7     H     0.44374  0.44374  0.00000  0.11252
       8     H     0.44427  0.44427  0.00000  0.11146
       9     C     3.09509  3.09509  0.00000 -0.19019
      10     O     4.17249  4.17249  0.00000 -0.34497
      11     C     3.15755  3.15755  0.00000 -0.31510
      12     H     0.44929  0.44929  0.00000  0.10142
      13     H     0.43652  0.43652  0.00000  0.12696
      14     H     0.45177  0.45177  0.00000  0.09646
      15     H     0.44176  0.44176  0.00000  0.11648
      16     H     0.44744  0.44744  0.00000  0.10511

   Total alpha = 24.00000, Total beta = 24.00000, Total charge =  0.00000
