  ==> Input File <==

--------------------------------------------------------------------------
set {
	reference rhf
	basis 6-31G*
}

set_num_threads( 4 )
memory 2 gb

molecule MOL {
0 1

H	 0.985416	 -4.307850	 3.834881
C	 1.066822	 -3.753111	 2.905694
C	 -0.147443	 -2.849410	 2.696293
H	 1.984829	 -3.173663	 2.947271
H	 1.167455	 -4.473797	 2.099014
C	 -0.073185	 -2.051274	 1.398656
H	 -0.244783	 -2.154459	 3.524518
H	 -1.051405	 -3.456232	 2.693005
N	 -1.225830	 -1.184917	 1.249341
H	 0.815422	 -1.425863	 1.412870
H	 0.044950	 -2.737119	 0.553056
C	 -1.217365	 -0.386708	 0.039277
H	 -2.062635	 -1.736225	 1.278610
C	 -2.452633	 0.504241	 -0.042481
H	 -0.326862	 0.235939	 0.055809
H	 -1.148329	 -1.001009	 -0.864742
C	 -3.758029	 -0.289423	 -0.010781
H	 -2.394220	 1.093569	 -0.952170
H	 -2.440793	 1.210787	 0.785871
H	 -3.816659	 -0.981993	 -0.845726
H	 -4.617837	 0.370165	 -0.069296
H	 -3.847478	 -0.867502	 0.904682

	symmetry c1
}
set optking {
	frozen_dihedral = ("
		15 12 14 18
	")
}

ee = optimize('scf')
oeprop('DIPOLE', 'QUADRUPOLE', 'MULLIKEN_CHARGES')
f=open( 'psi4out.xyz', 'w' )
f.write( "22  " )
f.write( str(ee) + "\n" )
f.write( MOL.save_string_xyz() )
f.close()
--------------------------------------------------------------------------

    Molecular point group: c1
  Charge       = 0
  Multiplicity = 1
  Basis Set: 6-31G*
  Basis Set:
  @DF-RHF Final Energy:  -290.38111130144853
    Total Energy =                       -290.3811113014485272
    Molecular point group: c1
  Basis Set: 6-31G*
  Basis Set:
  Basis Set: 6-31G*
  Basis Set:
  @DF-RHF Final Energy:  -290.38156291170316
    Total Energy =                       -290.3815629117029289
  Basis Set: 6-31G*
  Basis Set:
  Basis Set: 6-31G*
  Basis Set:
  @DF-RHF Final Energy:  -290.38197786366152
    Total Energy =                       -290.3819778636614615
  Basis Set: 6-31G*
  Basis Set:
  Basis Set: 6-31G*
  Basis Set:
  @DF-RHF Final Energy:  -290.38200685962812
    Total Energy =                       -290.3820068596283477
  Basis Set: 6-31G*
  Basis Set:
  Basis Set: 6-31G*
  Basis Set:
  @DF-RHF Final Energy:  -290.38200947280467
    Total Energy =                       -290.3820094728048389
  Basis Set: 6-31G*
  Basis Set:
  Charge       = 0
  Multiplicity = 1
  Basis Set: 6-31G*
  Basis Set:

    Orbital Energies (a.u.)
    -----------------------

    Doubly Occupied:

       1A    -15.533338     2A    -11.238130     3A    -11.238067
       4A    -11.213702     5A    -11.213139     6A    -11.209833
       7A    -11.209752     8A     -1.205602     9A     -1.058613
      10A     -1.023300    11A     -0.928519    12A     -0.879726
      13A     -0.805065    14A     -0.788006    15A     -0.669012
      16A     -0.633840    17A     -0.623038    18A     -0.586978
      19A     -0.573769    20A     -0.572627    21A     -0.544148
      22A     -0.528922    23A     -0.505817    24A     -0.486444
      25A     -0.480469    26A     -0.472196    27A     -0.467028
      28A     -0.450876    29A     -0.358801

  @DF-RHF Final Energy:  -290.38200970539560

   => Energetics <=

    Nuclear Repulsion Energy =            317.4643020174532921
    One-Electron Energy =               -1020.6951117556193367
    Two-Electron Energy =                 412.8488000327704981
    DFT Exchange-Correlation Energy =       0.0000000000000000
    Empirical Dispersion Energy =           0.0000000000000000
    PCM Polarization Energy =               0.0000000000000000
    EFP Energy =                            0.0000000000000000
    Total Energy =                       -290.3820097053955465
    Molecular point group: c1
  Basis Set: 6-31G*
  Basis Set:

  -Total Gradient:
     Atom            X                  Y                   Z
    ------   -----------------  -----------------  -----------------
       1       -0.000001133975     0.000000766075    -0.000000265558
       2        0.000000210210     0.000002673346    -0.000003608103
       3       -0.000004303901     0.000001626784    -0.000001832439
       4       -0.000000067332    -0.000000307184    -0.000000167144
       5        0.000000290581    -0.000000278886     0.000000045122
       6       -0.000008691677     0.000007912726     0.000001045405
       7        0.000000068271     0.000000532282     0.000000256591
       8       -0.000000486828     0.000000558118     0.000000026748
       9       -0.000017367588    -0.000024906932    -0.000008261359
      10        0.000004285883     0.000001284416    -0.000001022839
      11       -0.000000421466    -0.000001384707    -0.000000358335
      12       -0.000063142953    -0.000210981444    -0.001635869062
      13       -0.000005594447    -0.000006306376     0.000016210446
      14        0.000784473480     0.001057724283     0.001024287716
      15       -0.000034372749     0.000051104695     0.001227542596
      16       -0.000007675979     0.000006661137    -0.000002415393
      17       -0.000007341890    -0.000006045562    -0.000005834354
      18       -0.000639701454    -0.000867223717    -0.000613067257
      19        0.000014403056    -0.000002498915    -0.000002138307
      20       -0.000006646436    -0.000002496377     0.000000233976
      21       -0.000000534197    -0.000004498619     0.000004562277
      22       -0.000006248607    -0.000003915143     0.000000629274

  **** Optimization is complete! (in 6 steps) ****
    Final optimized geometry and variables:
    Molecular point group: c1

    Geometry (in Angstrom), charge = 0, multiplicity = 1:

    H            2.163847925928    -2.849518808786     2.665776561906
    C            2.241332430185    -2.279158395732     1.745743063966
    C            0.991669502362    -1.429730494542     1.518317244531
    H            3.130157639337    -1.658583336856     1.816646966075
    H            2.394262116474    -2.983492403264     0.932864982177
    C            1.059933708102    -0.610881806501     0.233342133218
    H            0.842461232708    -0.751623310475     2.352770172461
    H            0.117288215274    -2.077749923813     1.485210661890
    N           -0.127566020492     0.205212001149     0.068666619503
    H            1.919429554475     0.052548033086     0.276529755506
    H            1.227477636672    -1.279311891930    -0.617873540251
    C           -0.126991947581     1.009732570848    -1.138918125503
    H           -0.934282690940    -0.387812050552     0.080039255899
    C           -1.326592539661     1.952941866649    -1.206403572819
    H            0.780625458966     1.605651804465    -1.127658322968
    H           -0.090820488772     0.397394700666    -2.046095422318
    C           -2.684058240123     1.246713474753    -1.207126252048
    H           -1.241491834326     2.539546547296    -2.118209560526
    H           -1.276512785467     2.644216182124    -0.370952979090
    H           -2.746928817888     0.513410291102    -2.007523627291
    H           -3.488552051780     1.960611513360    -1.352617273730
    H           -2.873560253862     0.737734135319    -0.267568251504

  Mulliken Charges: (a.u.)
   Center  Symbol    Alpha    Beta     Spin     Total
       1     H     0.41771  0.41771  0.00000  0.16457
       2     C     3.24327  3.24327  0.00000 -0.48655
       3     C     3.15589  3.15589  0.00000 -0.31177
       4     H     0.42065  0.42065  0.00000  0.15870
       5     H     0.42163  0.42163  0.00000  0.15675
       6     C     3.04651  3.04651  0.00000 -0.09302
       7     H     0.41299  0.41299  0.00000  0.17401
       8     H     0.42676  0.42676  0.00000  0.14648
       9     N     3.85878  3.85878  0.00000 -0.71756
      10     H     0.42182  0.42182  0.00000  0.15636
      11     H     0.43629  0.43629  0.00000  0.12743
      12     C     3.05348  3.05348  0.00000 -0.10695
      13     H     0.33162  0.33162  0.00000  0.33676
      14     C     3.15076  3.15076  0.00000 -0.30152
      15     H     0.42002  0.42002  0.00000  0.15996
      16     H     0.43612  0.43612  0.00000  0.12775
      17     C     3.24828  3.24828  0.00000 -0.49656
      18     H     0.42312  0.42312  0.00000  0.15375
      19     H     0.41492  0.41492  0.00000  0.17015
      20     H     0.42331  0.42331  0.00000  0.15338
      21     H     0.41691  0.41691  0.00000  0.16618
      22     H     0.41915  0.41915  0.00000  0.16169

   Total alpha = 29.00000, Total beta = 29.00000, Total charge = -0.00000
