                              Psi4 1.0.54 Driver

  ==> Input File <==

--------------------------------------------------------------------------
set {
	reference rhf
	basis cc-pvtz
}

set_num_threads( 4 )
memory 2 gb

molecule MOL {
0 1

H	 -4.340537	 -0.784487	 0.000000
O	 -3.958786	 0.074640	 0.000000
C	 -2.613554	 0.009900	 0.000000
C	 -1.953249	 0.398538	 1.153747
C	 -1.889080	 -0.423502	 -1.093702
H	 -2.525322	 0.733046	 1.996184
C	 -0.577911	 0.352317	 1.208546
H	 -2.394253	 -0.726632	 -1.992301
C	 -0.507991	 -0.469306	 -1.037001
H	 -0.068952	 0.653358	 2.101912
C	 0.142035	 -0.081951	 0.111866
H	 0.049649	 -0.806056	 -1.887495
Br	 2.037702	 -0.143803	 0.192489

	symmetry c1
}
set optking {
	frozen_dihedral = ("
		4 3 2 1
	")
}

ee,wfn = optimize('scf', return_wfn=True)
oeprop( wfn, 'DIPOLE', 'QUADRUPOLE', 'MULLIKEN_CHARGES')
f=open( 'psi4out.xyz', 'w' )
f.write( "13  " )
f.write( str(ee) + "\n" )
f.write( MOL.save_string_xyz() )
f.close()
--------------------------------------------------------------------------

    Molecular point group: c1
  Charge       = 0
  Multiplicity = 1
  Basis Set: CC-PVTZ
  Basis Set:
  @DF-RHF Final Energy: -2877.54260737551567
    Total Energy =                      -2877.5426073755120342
    Molecular point group: c1
  Basis Set: CC-PVTZ
  Basis Set:
  Basis Set: CC-PVTZ
  Basis Set:
  @DF-RHF Final Energy: -2877.54311816781228
    Total Energy =                      -2877.5431181678113717
  Basis Set: CC-PVTZ
  Basis Set:
  Basis Set: CC-PVTZ
  Basis Set:
  @DF-RHF Final Energy: -2877.54316450216811
    Total Energy =                      -2877.5431645021662916
  Basis Set: CC-PVTZ
  Basis Set:
  Basis Set: CC-PVTZ
  Basis Set:
  @DF-RHF Final Energy: -2877.54316960015422
    Total Energy =                      -2877.5431696001537603
  Basis Set: CC-PVTZ
  Basis Set:
  Charge       = 0
  Multiplicity = 1
  Basis Set: CC-PVTZ
  Basis Set:

    Orbital Energies (a.u.)
    -----------------------

    Doubly Occupied:

       1A   -490.020788     2A    -65.161121     3A    -58.516345
       4A    -58.514980     5A    -58.514966     6A    -20.583706
       7A    -11.303732     8A    -11.293587     9A    -11.252392
      10A    -11.251735    11A    -11.242782    12A    -11.241020
      13A     -9.834925    14A     -7.446547    15A     -7.439762
      16A     -7.439738    17A     -3.190240    18A     -3.186696
      19A     -3.186553    20A     -3.177915    21A     -3.177911
      22A     -1.411791    23A     -1.180767    24A     -1.067705
      25A     -1.041900    26A     -0.970620    27A     -0.862921
      28A     -0.826556    29A     -0.753380    30A     -0.679401
      31A     -0.662461    32A     -0.646045    33A     -0.610478
      34A     -0.600502    35A     -0.549858    36A     -0.531699
      37A     -0.502627    38A     -0.490038    39A     -0.434410
      40A     -0.415597    41A     -0.359116    42A     -0.328429

  @DF-RHF Final Energy: -2877.54317065865507

   => Energetics <=

    Nuclear Repulsion Energy =            525.1644826091434197
    One-Electron Energy =               -5041.6078207881246271
    Two-Electron Energy =                1638.9001675203248851
    DFT Exchange-Correlation Energy =       0.0000000000000000
    Empirical Dispersion Energy =           0.0000000000000000
    PCM Polarization Energy =               0.0000000000000000
    EFP Energy =                            0.0000000000000000
    Total Energy =                      -2877.5431706586564360
    Molecular point group: c1
  Basis Set: CC-PVTZ
  Basis Set:

  -Total Gradient:
     Atom            X                  Y                   Z
    ------   -----------------  -----------------  -----------------
       1       -0.000047161597     0.000027807890     0.001455986455
       2       -0.000158595786    -0.000518468929    -0.001594645409
       3        0.000351494524     0.001439239046    -0.000391487209
       4       -0.000057327071    -0.000950134968     0.000472809614
       5       -0.000162766215    -0.000014222712     0.000050200356
       6        0.000015427382    -0.000000555427    -0.000021993630
       7       -0.000089360773    -0.000012185837     0.000054916588
       8       -0.000016421171     0.000012339037    -0.000003150585
       9        0.000145943701     0.000038152309     0.000089286285
      10        0.000033923128    -0.000001550809    -0.000013895343
      11        0.000021577479    -0.000030093227    -0.000131947424
      12       -0.000011188694     0.000003864572     0.000010697964
      13       -0.000025544487     0.000005809103     0.000023222299

  **** Optimization is complete! (in 5 steps) ****
    Final optimized geometry and variables:
    Molecular point group: c1

    Geometry (in Angstrom), charge = 0, multiplicity = 1:

    H           -4.348106752449    -0.706154106845    -0.138068008513
    O           -3.965791974172     0.153832910743    -0.139779947359
    C           -2.605022880319     0.077756651413    -0.096081359105
    C           -1.944714253886     0.469577857650     1.051379194777
    C           -1.885937289460    -0.352285937539    -1.194335880098
    H           -2.514419112078     0.807216483737     1.894478552089
    C           -0.564791868580     0.433998550709     1.102846726193
    H           -2.405236435643    -0.640338698117    -2.087925904672
    C           -0.506108019701    -0.397755294603    -1.144682400579
    H           -0.051321138842     0.740573041831     1.991556314856
    C            0.145540759685    -0.003219046255     0.004617145530
    H            0.052175647668    -0.731372625201    -1.995806634844
    BR           2.041405511590    -0.059088851287     0.074624484988

  Mulliken Charges: (a.u.)
   Center  Symbol    Alpha    Beta     Spin     Total
       1     H     0.38606  0.38606  0.00000  0.22788
       2     O     4.18760  4.18760  0.00000 -0.37520
       3     C     2.87974  2.87974  0.00000  0.24051
       4     C     3.09049  3.09049  0.00000 -0.18098
       5     C     3.09959  3.09959  0.00000 -0.19919
       6     H     0.41289  0.41289  0.00000  0.17422
       7     C     3.08721  3.08721  0.00000 -0.17441
       8     H     0.41579  0.41579  0.00000  0.16842
       9     C     3.08865  3.08865  0.00000 -0.17729
      10     H     0.41008  0.41008  0.00000  0.17983
      11     C     2.96743  2.96743  0.00000  0.06515
      12     H     0.41019  0.41019  0.00000  0.17962
      13    BR    17.56427 17.56427  0.00000 -0.12855

   Total alpha = 42.00000, Total beta = 42.00000, Total charge = -0.00000

*** Psi4 exiting successfully. Buy a developer a beer!
