  ==> Input File <==

--------------------------------------------------------------------------
set {
	reference rhf
	basis 6-31G*
}

set_num_threads( 1 )
memory 2 gb

molecule MOL {
0 1

H	 1.919516	 -0.717330	 0.891042
O	 1.586534	 -0.678666	 -0.000226
C	 0.489431	 0.077273	 0.000046
C	 -0.764129	 -0.759190	 0.000191
O	 0.537743	 1.263962	 0.000257
C	 -2.038368	 0.075731	 -0.000248
H	 -0.717284	 -1.412404	 -0.866059
H	 -0.717458	 -1.411724	 0.866967
H	 -2.086483	 0.712501	 -0.875098
H	 -2.908485	 -0.571682	 -0.000042
H	 -2.086576	 0.713280	 0.874068

	symmetry c1
}
set optking {
	frozen_dihedral = ("
		2 3 4 7
	")
}

ee = energy('scf')
oeprop('DIPOLE', 'QUADRUPOLE', 'MULLIKEN_CHARGES')
f=open( 'psi4out.xyz', 'w' )
f.write( "11  " )
f.write( str(ee) + "\n" )
f.write( MOL.save_string_xyz() )
f.close()
--------------------------------------------------------------------------

    Molecular point group: c1

    Geometry (in Angstrom), charge = 0, multiplicity = 1:

       Center              X                  Y                   Z               Mass
    ------------   -----------------  -----------------  -----------------  -----------------
           H          1.925290868880    -0.708944166257     0.878910016435     1.007825032070
           O          1.592308868880    -0.670280166257    -0.012357983565    15.994914619560
           C          0.495205868880     0.085658833743    -0.012085983565    12.000000000000
           C         -0.758354131120    -0.750804166257    -0.011940983565    12.000000000000
           O          0.543517868880     1.272347833743    -0.011874983565    15.994914619560
           C         -2.032593131120     0.084116833743    -0.012379983565    12.000000000000
           H         -0.711509131120    -1.404018166257    -0.878190983565     1.007825032070
           H         -0.711683131120    -1.403338166257     0.854835016435     1.007825032070
           H         -2.080708131120     0.720886833743    -0.887229983565     1.007825032070
           H         -2.902710131120    -0.563296166257    -0.012173983565     1.007825032070
           H         -2.080801131120     0.721665833743     0.861936016435     1.007825032070

  Charge       = 0
  Multiplicity = 1
  Basis Set: 6-31G*
  Basis Set:

    Orbital Energies (a.u.)
    -----------------------

    Doubly Occupied:

       1A    -20.599286     2A    -20.560848     3A    -11.380799
       4A    -11.244609     5A    -11.220399     6A     -1.470336
       7A     -1.369538     8A     -1.064214     9A     -0.910564
      10A     -0.808881    11A     -0.712077    12A     -0.680828
      13A     -0.661671    14A     -0.616624    15A     -0.568505
      16A     -0.527815    17A     -0.519922    18A     -0.498035
      19A     -0.490133    20A     -0.446320

  @DF-RHF Final Energy:  -266.82429261780749

   => Energetics <=

    Nuclear Repulsion Energy =            179.7927613936318210
    One-Electron Energy =                -720.5313187530435926
    Two-Electron Energy =                 273.9142647416059049
    DFT Exchange-Correlation Energy =       0.0000000000000000
    Empirical Dispersion Energy =           0.0000000000000000
    PCM Polarization Energy =               0.0000000000000000
    EFP Energy =                            0.0000000000000000
    Total Energy =                       -266.8242926178058383

  Mulliken Charges: (a.u.)
   Center  Symbol    Alpha    Beta     Spin     Total
       1     H     0.26466  0.26466  0.00000  0.47069
       2     O     4.35650  4.35650  0.00000 -0.71301
       3     C     2.63859  2.63859  0.00000  0.72281
       4     C     3.20633  3.20633  0.00000 -0.41267
       5     O     4.25265  4.25265  0.00000 -0.50529
       6     C     3.24018  3.24018  0.00000 -0.48035
       7     H     0.39679  0.39679  0.00000  0.20643
       8     H     0.40801  0.40801  0.00000  0.18398
       9     H     0.40794  0.40794  0.00000  0.18413
      10     H     0.41746  0.41746  0.00000  0.16508
      11     H     0.41090  0.41090  0.00000  0.17821

   Total alpha = 20.00000, Total beta = 20.00000, Total charge = -0.00000
