  ==> Input File <==

--------------------------------------------------------------------------
set {
	reference rhf
	basis 6-31G*
}

set_num_threads( 4 )
memory 2 gb

molecule MOL {
0 1

H	 3.729471	 -0.928294	 -0.070608
O	 2.826016	 -1.159218	 0.122261
C	 2.077727	 -0.067559	 -0.035091
C	 0.624473	 -0.343591	 0.253101
O	 2.542965	 0.974826	 -0.363729
C	 -0.265902	 0.883932	 0.072916
H	 0.324016	 -1.163849	 -0.390541
H	 0.565024	 -0.726111	 1.268924
C	 -1.728698	 0.646073	 0.462102
H	 -0.209144	 1.219470	 -0.958188
H	 0.135059	 1.692851	 0.673903
C	 -2.482460	 -0.343073	 -0.431425
H	 -2.245265	 1.602650	 0.432430
H	 -1.779332	 0.308348	 1.496285
C	 -3.705333	 -0.945096	 0.260405
H	 -2.795922	 0.163864	 -1.341810
H	 -1.821371	 -1.148235	 -0.741354
H	 -4.221563	 -1.643286	 -0.391016
H	 -4.413722	 -0.172830	 0.546097
H	 -3.421257	 -1.481597	 1.161351

	symmetry c1
}
set optking {
	frozen_dihedral = ("
		16 12 9 6
	")
}

ee = optimize('scf')
oeprop('DIPOLE', 'QUADRUPOLE', 'MULLIKEN_CHARGES')
f=open( 'psi4out.xyz', 'w' )
f.write( "20  " )
f.write( str(ee) + "\n" )
f.write( MOL.save_string_xyz() )
f.close()
--------------------------------------------------------------------------

    Molecular point group: c1
  Charge       = 0
  Multiplicity = 1
  Basis Set: 6-31G*
  Basis Set:
  @DF-RHF Final Energy:  -383.94650648219994
    Total Energy =                       -383.9465064821998794
    Molecular point group: c1
  Basis Set: 6-31G*
  Basis Set:
  Basis Set: 6-31G*
  Basis Set:
  @DF-RHF Final Energy:  -383.94668561249904
    Total Energy =                       -383.9466856124988681
  Basis Set: 6-31G*
  Basis Set:
  Basis Set: 6-31G*
  Basis Set:
  @DF-RHF Final Energy:  -383.94690076816613
    Total Energy =                       -383.9469007681665289
  Basis Set: 6-31G*
  Basis Set:
  Basis Set: 6-31G*
  Basis Set:
  @DF-RHF Final Energy:  -383.94690435813982
    Total Energy =                       -383.9469043581391929
  Basis Set: 6-31G*
  Basis Set:
  Basis Set: 6-31G*
  Basis Set:
  @DF-RHF Final Energy:  -383.94691189032784
    Total Energy =                       -383.9469118903273284
  Basis Set: 6-31G*
  Basis Set:
  Basis Set: 6-31G*
  Basis Set:
  @DF-RHF Final Energy:  -383.94690924436043
    Total Energy =                       -383.9469092443603699
  Basis Set: 6-31G*
  Basis Set:
  Basis Set: 6-31G*
  Basis Set:
  @DF-RHF Final Energy:  -383.94692145180767
    Total Energy =                       -383.9469214518074978
  Basis Set: 6-31G*
  Basis Set:
  Charge       = 0
  Multiplicity = 1
  Basis Set: 6-31G*
  Basis Set:

    Orbital Energies (a.u.)
    -----------------------

    Doubly Occupied:

       1A    -20.612662     2A    -20.551741     3A    -11.381365
       4A    -11.240528     5A    -11.223095     6A    -11.220641
       7A    -11.220020     8A    -11.212315     9A     -1.474730
      10A     -1.365788    11A     -1.095816    12A     -1.040762
      13A     -0.961011    14A     -0.868708    15A     -0.814495
      16A     -0.779161    17A     -0.699669    18A     -0.690836
      19A     -0.663416    20A     -0.633759    21A     -0.605564
      22A     -0.592472    23A     -0.578341    24A     -0.553132
      25A     -0.540012    26A     -0.510773    27A     -0.499156
      28A     -0.479427    29A     -0.469550    30A     -0.466776
      31A     -0.456498    32A     -0.443901

  @DF-RHF Final Energy:  -383.94692150978449

   => Energetics <=

    Nuclear Repulsion Energy =            376.3779978328982452
    One-Electron Energy =               -1268.7575965392265971
    Two-Electron Energy =                 508.4326771965436933
    DFT Exchange-Correlation Energy =       0.0000000000000000
    Empirical Dispersion Energy =           0.0000000000000000
    PCM Polarization Energy =               0.0000000000000000
    EFP Energy =                            0.0000000000000000
    Total Energy =                       -383.9469215097846586
    Molecular point group: c1
  Basis Set: 6-31G*
  Basis Set:

  -Total Gradient:
     Atom            X                  Y                   Z
    ------   -----------------  -----------------  -----------------
       1        0.000000033697     0.000000261265     0.000000027303
       2       -0.000001475280    -0.000002923683    -0.000006214200
       3        0.000000048521     0.000010023945     0.000010119079
       4       -0.000000282797    -0.000001376204    -0.000007264864
       5        0.000001037342    -0.000003308395    -0.000003452962
       6        0.000807006362    -0.002136365615     0.001533539522
       7        0.000000329015     0.000001074847     0.000003258450
       8        0.000002264698     0.000001776715     0.000003610937
       9       -0.001862924636     0.003249612032    -0.001752457099
      10       -0.000001327132     0.000002277800    -0.000006811070
      11        0.000000301249    -0.000007585711    -0.000001055662
      12        0.004210769208    -0.001991012133    -0.001506172217
      13       -0.000003400324    -0.000000053016     0.000011272281
      14        0.000012501249     0.000001251160    -0.000004614786
      15       -0.000006442520     0.000004792065    -0.000012354311
      16       -0.003151530958     0.000873270134     0.001746274834
      17       -0.000008737811    -0.000007728002    -0.000007202490
      18        0.000000655247    -0.000004448242     0.000002265731
      19       -0.000004519319     0.000001175439    -0.000003213588
      20        0.000005694184     0.000009285600     0.000000445112

  **** Optimization is complete! (in 8 steps) ****
    Final optimized geometry and variables:
    Molecular point group: c1

    Geometry (in Angstrom), charge = 0, multiplicity = 1:

    H            3.713331479111    -0.842157170088    -0.113723590410
    O            2.822643686667    -1.063935128249     0.139747572001
    C            2.051176386732    -0.001275360300    -0.088277119923
    C            0.616273634306    -0.265131030272     0.289288124886
    O            2.485357175566     1.010092952569    -0.534995451471
    C           -0.299823207479     0.930385413300     0.037846680223
    H            0.300810964961    -1.147027504440    -0.258646289788
    H            0.607493595665    -0.549788048483     1.338194388073
    C           -1.755050573729     0.676494978150     0.449162496524
    H           -0.251551766888     1.207272037710    -1.011066672754
    H            0.087019169983     1.780649046847     0.589198449827
    C           -2.530495409299    -0.270298872233    -0.478476730105
    H           -2.280650963398     1.626112969092     0.498024390554
    H           -1.765622250821     0.277384436382     1.462549426040
    C           -3.764313245679    -0.871588931793     0.197135065577
    H           -2.859591698531     0.284733256975    -1.353570915780
    H           -1.892917322881    -1.073924285024    -0.834577087026
    H           -4.326725957223    -1.494009817241    -0.491916883429
    H           -4.430553492279    -0.092838630422     0.557958687791
    H           -3.485499454571    -1.486423715835     1.048195334991

  Mulliken Charges: (a.u.)
   Center  Symbol    Alpha    Beta     Spin     Total
       1     H     0.26782  0.26782  0.00000  0.46435
       2     O     4.35156  4.35156  0.00000 -0.70311
       3     C     2.62235  2.62235  0.00000  0.75531
       4     C     3.21202  3.21202  0.00000 -0.42404
       5     O     4.27915  4.27915  0.00000 -0.55830
       6     C     3.15500  3.15500  0.00000 -0.31000
       7     H     0.39767  0.39767  0.00000  0.20466
       8     H     0.39875  0.39875  0.00000  0.20250
       9     C     3.15721  3.15721  0.00000 -0.31442
      10     H     0.41120  0.41120  0.00000  0.17760
      11     H     0.40909  0.40909  0.00000  0.18181
      12     C     3.15437  3.15437  0.00000 -0.30875
      13     H     0.41607  0.41607  0.00000  0.16785
      14     H     0.42415  0.42415  0.00000  0.15170
      15     C     3.23978  3.23978  0.00000 -0.47956
      16     H     0.41948  0.41948  0.00000  0.16105
      17     H     0.42284  0.42284  0.00000  0.15432
      18     H     0.41879  0.41879  0.00000  0.16242
      19     H     0.42086  0.42086  0.00000  0.15828
      20     H     0.42184  0.42184  0.00000  0.15633

   Total alpha = 32.00000, Total beta = 32.00000, Total charge =  0.00000
