  ==> Input File <==

--------------------------------------------------------------------------
set {
	reference rhf
	basis 6-31G*
}

set_num_threads( 4 )
memory 2 gb

molecule MOL {
0 1

O	 3.225979	 0.970355	 -0.599647
C	 2.701189	 0.057885	 -0.047330
C	 1.245376	 -0.013843	 0.345420
O	 3.347903	 -1.046386	 0.304773
C	 0.455112	 1.231400	 -0.050772
H	 0.838542	 -0.913825	 -0.103701
H	 1.208210	 -0.175333	 1.419774
C	 -0.998893	 1.219485	 0.433193
H	 0.482531	 1.345121	 -1.130325
H	 0.957290	 2.103070	 0.354729
C	 -1.883438	 0.145884	 -0.207175
H	 -1.431207	 2.195402	 0.224832
H	 -1.019646	 1.105716	 1.516076
C	 -2.792157	 0.701207	 -1.305740
H	 -1.251133	 -0.636135	 -0.624855
H	 -2.500341	 -0.332143	 0.550382
C	 -3.684405	 -0.361794	 -1.949210
H	 -2.181141	 1.170040	 -2.075214
H	 -3.417174	 1.490645	 -0.891202
C	 -4.585988	 0.200232	 -3.047834
H	 -3.061480	 -1.151934	 -2.363077
H	 -4.299047	 -0.828537	 -1.182303
H	 -5.205947	 -0.576767	 -3.484333
H	 -3.999519	 0.643579	 -3.847642
H	 -5.246137	 0.969876	 -2.657803
C	 4.728119	 -1.109107	 -0.004993
H	 4.882018	 -1.033965	 -1.071845
H	 5.068212	 -2.067527	 0.355250
H	 5.265056	 -0.311663	 0.488280

	symmetry c1
}
set optking {
	frozen_dihedral = ("
		15 11 8 5
	")
}

ee = optimize('scf')
oeprop('DIPOLE', 'QUADRUPOLE', 'MULLIKEN_CHARGES')
f=open( 'psi4out.xyz', 'w' )
f.write( "29  " )
f.write( str(ee) + "\n" )
f.write( MOL.save_string_xyz() )
f.close()
--------------------------------------------------------------------------

    Molecular point group: c1
  Charge       = 0
  Multiplicity = 1
  Basis Set: 6-31G*
  Basis Set:
  @DF-RHF Final Energy:  -501.03909935682657
    Total Energy =                       -501.0390993568269096
    Molecular point group: c1
  Basis Set: 6-31G*
  Basis Set:
  Basis Set: 6-31G*
  Basis Set:
  @DF-RHF Final Energy:  -501.03943638285818
    Total Energy =                       -501.0394363828581845
  Basis Set: 6-31G*
  Basis Set:
  Basis Set: 6-31G*
  Basis Set:
  @DF-RHF Final Energy:  -501.03972508039408
    Total Energy =                       -501.0397250803948737
  Basis Set: 6-31G*
  Basis Set:
  Basis Set: 6-31G*
  Basis Set:
  @DF-RHF Final Energy:  -501.03973197557275
    Total Energy =                       -501.0397319755718399
  Basis Set: 6-31G*
  Basis Set:
  @DF-RHF Final Energy:  -501.03967575806917
    Total Energy =                       -501.0396757580693929
  Basis Set: 6-31G*
  Basis Set:
  @DF-RHF Final Energy:  -501.03974653073510
    Total Energy =                       -501.0397465307352149
  Basis Set: 6-31G*
  Basis Set:
  Basis Set: 6-31G*
  Basis Set:
  @DF-RHF Final Energy:  -501.03974737707017
    Total Energy =                       -501.0397473770708530
  Basis Set: 6-31G*
  Basis Set:
  Basis Set: 6-31G*
  Basis Set:
  @DF-RHF Final Energy:  -501.03975194987811
    Total Energy =                       -501.0397519498778820
  Basis Set: 6-31G*
  Basis Set:
  Charge       = 0
  Multiplicity = 1
  Basis Set: 6-31G*
  Basis Set:

    Orbital Energies (a.u.)
    -----------------------

    Doubly Occupied:

       1A    -20.603499     2A    -20.545315     3A    -11.372141
       4A    -11.280766     5A    -11.234883     6A    -11.219490
       7A    -11.217416     8A    -11.215759     9A    -11.215075
      10A    -11.213768    11A    -11.208333    12A     -1.469191
      13A     -1.362632    14A     -1.097265    15A     -1.066054
      16A     -1.018168    17A     -0.976492    18A     -0.927491
      19A     -0.862575    20A     -0.802631    21A     -0.787344
      22A     -0.763244    23A     -0.700540    24A     -0.682898
      25A     -0.671723    26A     -0.649837    27A     -0.627236
      28A     -0.606563    29A     -0.593349    30A     -0.575258
      31A     -0.565328    32A     -0.558307    33A     -0.532955
      34A     -0.525966    35A     -0.519670    36A     -0.510505
      37A     -0.493355    38A     -0.477291    39A     -0.473341
      40A     -0.459411    41A     -0.456499    42A     -0.454046
      43A     -0.441506    44A     -0.435033

  @DF-RHF Final Energy:  -501.03975286741013

   => Energetics <=

    Nuclear Repulsion Energy =            615.0233632043315311
    One-Electron Energy =               -1901.1859398532305931
    Two-Electron Energy =                 785.1228237814882505
    DFT Exchange-Correlation Energy =       0.0000000000000000
    Empirical Dispersion Energy =           0.0000000000000000
    PCM Polarization Energy =               0.0000000000000000
    EFP Energy =                            0.0000000000000000
    Total Energy =                       -501.0397528674109253
    Molecular point group: c1
  Basis Set: 6-31G*
  Basis Set:

  -Total Gradient:
     Atom            X                  Y                   Z
    ------   -----------------  -----------------  -----------------
       1       -0.000002089333     0.000007819126     0.000009866271
       2       -0.000001350291     0.000002132717    -0.000009390489
       3       -0.000008622659    -0.000009593242    -0.000016458150
       4       -0.000004122802    -0.000008471342    -0.000002790600
       5        0.000484060368    -0.001172069067     0.001288031368
       6        0.000001731058     0.000004760125     0.000009458316
       7        0.000004244519     0.000007088181     0.000011999584
       8       -0.000654280610     0.002015657236    -0.002276700204
       9       -0.000004271234     0.000002678183    -0.000011338486
      10        0.000008095875    -0.000011150582    -0.000004215857
      11        0.000135718920    -0.002102265002     0.003123375881
      12        0.000007559491    -0.000000235948     0.000014841981
      13        0.000016924861     0.000014095194    -0.000004920971
      14        0.000006488214    -0.000022998258    -0.000017097858
      15        0.000023263596     0.001271193960    -0.002113251986
      16       -0.000000686198    -0.000000615612    -0.000010599475
      17       -0.000017453067     0.000006002167     0.000007656423
      18       -0.000003218769     0.000006398911    -0.000002311581
      19        0.000008582890    -0.000006081959     0.000010264162
      20        0.000007469570    -0.000006264811    -0.000011770676
      21       -0.000002542648    -0.000000660209     0.000006317210
      22       -0.000006189950     0.000001719722     0.000001415186
      23        0.000002173892     0.000000208289    -0.000006042766
      24       -0.000001333164     0.000005310588    -0.000000183354
      25       -0.000000109507    -0.000005410163     0.000002270952
      26       -0.000000228016     0.000000826935     0.000000942480
      27        0.000000105310     0.000000051550     0.000000424867
      28       -0.000000096957    -0.000000094889     0.000000339470
      29        0.000000176637    -0.000000031797    -0.000000131700

  **** Optimization is complete! (in 9 steps) ****
    Final optimized geometry and variables:
    Molecular point group: c1

    Geometry (in Angstrom), charge = 0, multiplicity = 1:

    O            2.959424933078     0.701172157490    -0.216624921622
    C            2.490392456979    -0.121543854670     0.501899940032
    C            1.070611993970    -0.135606792590     1.014054662130
    O            3.175844725760    -1.162153115244     0.958801234024
    C            0.240637293739     1.047555864973     0.521467727949
    H            0.635180034573    -1.087200244012     0.725863486512
    H            1.118585722244    -0.150477197162     2.099660444257
    C           -1.204318791786     1.023123032541     1.035771996263
    H            0.249865104884     1.068688040550    -0.564151180823
    H            0.723700960963     1.964561687721     0.842103331270
    C           -2.103383632572    -0.041415716006     0.371242070423
    H           -1.644086518925     2.004779990243     0.883750651849
    H           -1.186023324722     0.872467181112     2.112848653107
    C           -3.013322957544     0.540378287389    -0.715450407205
    H           -1.490289063725    -0.814481259509    -0.085677402854
    H           -2.717331003174    -0.536258138001     1.118656836755
    C           -3.860919037983    -0.515450431754    -1.426447681476
    H           -2.405977857123     1.067618192107    -1.449801596462
    H           -3.668544125555     1.287572906242    -0.270977659844
    C           -4.773747904546     0.074795863243    -2.500820211581
    H           -3.206763479020    -1.258433768190    -1.878028917248
    H           -4.463974647001    -1.046572160688    -0.692766008992
    H           -5.360007257105    -0.698415235123    -2.987723771341
    H           -4.197618384896     0.585119076180    -3.267502805549
    H           -5.465943311003     0.795410345832    -2.074465113140
    C            4.528480570591    -1.268580222732     0.553842973807
    H            4.598098665520    -1.349870810772    -0.521362742425
    H            4.907062730322    -2.163938009063     1.021804318378
    H            5.092411043300    -0.407334478580     0.882116747172

  Mulliken Charges: (a.u.)
   Center  Symbol    Alpha    Beta     Spin     Total
       1     O     4.28592  4.28592  0.00000 -0.57184
       2     C     2.60548  2.60548  0.00000  0.78904
       3     C     3.20845  3.20845  0.00000 -0.41690
       4     O     4.30733  4.30733  0.00000 -0.61465
       5     C     3.15504  3.15504  0.00000 -0.31007
       6     H     0.39926  0.39926  0.00000  0.20147
       7     H     0.40086  0.40086  0.00000  0.19828
       8     C     3.16119  3.16119  0.00000 -0.32238
       9     H     0.41160  0.41160  0.00000  0.17680
      10     H     0.41060  0.41060  0.00000  0.17879
      11     C     3.15576  3.15576  0.00000 -0.31151
      12     H     0.41561  0.41561  0.00000  0.16877
      13     H     0.42188  0.42188  0.00000  0.15625
      14     C     3.15240  3.15240  0.00000 -0.30479
      15     H     0.42340  0.42340  0.00000  0.15319
      16     H     0.41989  0.41989  0.00000  0.16022
      17     C     3.15193  3.15193  0.00000 -0.30385
      18     H     0.42262  0.42262  0.00000  0.15477
      19     H     0.42335  0.42335  0.00000  0.15330
      20     C     3.23927  3.23927  0.00000 -0.47854
      21     H     0.42332  0.42332  0.00000  0.15335
      22     H     0.42332  0.42332  0.00000  0.15336
      23     H     0.41940  0.41940  0.00000  0.16119
      24     H     0.42130  0.42130  0.00000  0.15741
      25     H     0.42174  0.42174  0.00000  0.15652
      26     C     3.09239  3.09239  0.00000 -0.18478
      27     H     0.40913  0.40913  0.00000  0.18174
      28     H     0.40848  0.40848  0.00000  0.18305
      29     H     0.40909  0.40909  0.00000  0.18183

   Total alpha = 44.00000, Total beta = 44.00000, Total charge =  0.00000
