  ==> Input File <==

--------------------------------------------------------------------------
set {
	reference rhf
	basis cc-pvtz
}

set_num_threads( 4 )
memory 2 gb

molecule MOL {
0 1

H	 2.171227	 -1.321984	 -0.154743
N	 2.433987	 -0.362316	 -0.080024
C	 1.263552	 0.494993	 0.021953
H	 2.969320	 -0.139312	 -0.893059
C	 -0.016533	 -0.325589	 -0.026925
H	 1.280915	 1.180773	 -0.818522
H	 1.263064	 1.106893	 0.925038
C	 -1.280353	 0.525521	 0.047747
H	 -0.016686	 -0.912532	 -0.939714
H	 -0.014099	 -1.037598	 0.796369
C	 -2.560681	 -0.301323	 -0.007747
H	 -1.279957	 1.241025	 -0.770189
H	 -1.270445	 1.110526	 0.963468
H	 -2.617064	 -0.872870	 -0.928010
H	 -3.439525	 0.331102	 0.043462
H	 -2.609427	 -1.002736	 0.818585

	symmetry c1
}
set optking {
	frozen_dihedral = ("
		1 2 3 6
	")
}

ee = optimize('scf')
oeprop('DIPOLE', 'QUADRUPOLE', 'MULLIKEN_CHARGES')
f=open( 'psi4out.xyz', 'w' )
f.write( "16  " )
f.write( str(ee) + "\n" )
f.write( MOL.save_string_xyz() )
f.close()
--------------------------------------------------------------------------

    Molecular point group: c1
  Charge       = 0
  Multiplicity = 1
  Basis Set: CC-PVTZ
  Basis Set:
  @DF-RHF Final Energy:  -212.39537017870143
    Total Energy =                       -212.3953701787013983
    Molecular point group: c1
  Basis Set: CC-PVTZ
  Basis Set:
  Basis Set: CC-PVTZ
  Basis Set:
  @DF-RHF Final Energy:  -212.39637166013014
    Total Energy =                       -212.3963716601302849
  Basis Set: CC-PVTZ
  Basis Set:
  Basis Set: CC-PVTZ
  Basis Set:
  @DF-RHF Final Energy:  -212.39652331350217
    Total Energy =                       -212.3965233135021435
  Basis Set: CC-PVTZ
  Basis Set:
  Basis Set: CC-PVTZ
  Basis Set:
  @DF-RHF Final Energy:  -212.39652582135497
    Total Energy =                       -212.3965258213551124
  Basis Set: CC-PVTZ
  Basis Set:
  Charge       = 0
  Multiplicity = 1
  Basis Set: CC-PVTZ
  Basis Set:

    Orbital Energies (a.u.)
    -----------------------

    Doubly Occupied:

       1A    -15.522999     2A    -11.237775     3A    -11.215934
       4A    -11.213825     5A    -11.208576     6A     -1.175093
       7A     -1.063500     8A     -0.961262     9A     -0.847389
      10A     -0.798150    11A     -0.665461    12A     -0.638968
      13A     -0.597704    14A     -0.584422    15A     -0.568162
      16A     -0.520225    17A     -0.512067    18A     -0.473499
      19A     -0.472554    20A     -0.464846    21A     -0.377082

  @DF-RHF Final Energy:  -212.39652627409802

   => Energetics <=

    Nuclear Repulsion Energy =            186.5364756918541218
    One-Electron Energy =                -655.6270202923872148
    Two-Electron Energy =                 256.6940183264352981
    DFT Exchange-Correlation Energy =       0.0000000000000000
    Empirical Dispersion Energy =           0.0000000000000000
    PCM Polarization Energy =               0.0000000000000000
    EFP Energy =                            0.0000000000000000
    Total Energy =                       -212.3965262740978233
    Molecular point group: c1
  Basis Set: CC-PVTZ
  Basis Set:

  -Total Gradient:
     Atom            X                  Y                   Z
    ------   -----------------  -----------------  -----------------
       1       -0.000013922374    -0.000033021501     0.000235946890
       2        0.000089392945     0.000037870119    -0.000238266680
       3       -0.000200657473    -0.000167646340    -0.000094220402
       4       -0.000008739172    -0.000002235560    -0.000025996528
       5        0.000082650851     0.000017027084    -0.000007022557
       6        0.000106495803     0.000137762107     0.000117243752
       7       -0.000022587544    -0.000006549447     0.000007313462
       8        0.000003744121     0.000000943552    -0.000001772362
       9        0.000016081466     0.000006666633     0.000005965931
      10       -0.000004748422     0.000006366023    -0.000016965508
      11       -0.000034195196     0.000012879829     0.000020356334
      12        0.000008218490    -0.000008454625     0.000000772727
      13       -0.000009555545     0.000001932598    -0.000006993294
      14        0.000007282908     0.000009431342     0.000003040539
      15       -0.000016769536    -0.000009149966     0.000002157540
      16       -0.000002691318    -0.000003821847    -0.000001559845

  **** Optimization is complete! (in 5 steps) ****
    Final optimized geometry and variables:
    Molecular point group: c1

    Geometry (in Angstrom), charge = 0, multiplicity = 1:

    H            2.242163601043    -1.311129850297    -0.093660704106
    N            2.466408394590    -0.343315882044    -0.017284958454
    C            1.267813859472     0.490700647159     0.004427477711
    H            3.070272551159    -0.112007977824    -0.773943462174
    C           -0.019488761222    -0.321793534646    -0.036780107646
    H            1.277314624572     1.185261555520    -0.830638879048
    H            1.271478975222     1.096365048493     0.905924686388
    C           -1.277454990704     0.534172472520     0.071660391006
    H           -0.048295283473    -0.896348410980    -0.959909331314
    H           -0.004354296919    -1.043260173153     0.777411354862
    C           -2.563207292860    -0.285287130302     0.034867628311
    H           -1.289884131777     1.258843008809    -0.737917133013
    H           -1.242828813528     1.107644373107     0.993435446185
    H           -2.644623777368    -0.844643181510    -0.891178250766
    H           -3.436777362830     0.351392948753     0.114093314086
    H           -2.597093469396    -0.996549406938     0.853352572121

  Mulliken Charges: (a.u.)
   Center  Symbol    Alpha    Beta     Spin     Total
       1     H     0.42851  0.42851  0.00000  0.14297
       2     N     3.69681  3.69681  0.00000 -0.39363
       3     C     3.01585  3.01585  0.00000 -0.03170
       4     H     0.42740  0.42740  0.00000  0.14519
       5     C     3.08852  3.08852  0.00000 -0.17704
       6     H     0.46372  0.46372  0.00000  0.07255
       7     H     0.46319  0.46319  0.00000  0.07362
       8     C     3.08929  3.08929  0.00000 -0.17858
       9     H     0.45751  0.45751  0.00000  0.08498
      10     H     0.45373  0.45373  0.00000  0.09254
      11     C     3.14912  3.14912  0.00000 -0.29823
      12     H     0.45497  0.45497  0.00000  0.09005
      13     H     0.45328  0.45328  0.00000  0.09343
      14     H     0.45526  0.45526  0.00000  0.08948
      15     H     0.44820  0.44820  0.00000  0.10360
      16     H     0.45463  0.45463  0.00000  0.09075

   Total alpha = 21.00000, Total beta = 21.00000, Total charge =  0.00000
