  ==> Input File <==

--------------------------------------------------------------------------
set {
	reference rhf
	basis 6-31G*
}

set_num_threads( 1 )
memory 2 gb

molecule MOL {
0 1

H	 -2.195663	 1.087246	 -1.997792
N	 -1.215393	 0.995918	 -1.814206
C	 -0.777363	 -0.372476	 -2.025708
H	 -1.065802	 1.250529	 -0.857176
C	 0.697569	 -0.498373	 -1.706549
H	 -1.322114	 -1.105011	 -1.428514
H	 -0.927691	 -0.627351	 -3.070324
O	 0.874168	 -0.245412	 -0.342030
H	 1.051538	 -1.499786	 -1.950507
H	 1.262416	 0.217800	 -2.299236
C	 2.202317	 -0.244239	 0.074611
H	 2.711377	 -1.041390	 -0.449894
H	 2.692099	 0.699270	 -0.159667
H	 2.283185	 -0.418429	 1.145558

	symmetry c1
}
set optking {
	frozen_dihedral = ("
		8 5 3 6,
		6 3 2 4,
		11 8 5 3
	")
}

ee = energy('scf')
oeprop('DIPOLE', 'QUADRUPOLE', 'MULLIKEN_CHARGES')
f=open( 'psi4out.xyz', 'w' )
f.write( "14  " )
f.write( str(ee) + "\n" )
f.write( MOL.save_string_xyz() )
f.close()
--------------------------------------------------------------------------

    Molecular point group: c1

    Geometry (in Angstrom), charge = 0, multiplicity = 1:

       Center              X                  Y                   Z               Mass
    ------------   -----------------  -----------------  -----------------  -----------------
           H         -2.554772154739     1.151305619819    -0.853221267838     1.007825032070
           N         -1.574502154739     1.059977619819    -0.669635267838    14.003074004780
           C         -1.136472154739    -0.308416380181    -0.881137267838    12.000000000000
           H         -1.424911154739     1.314588619819     0.287394732162     1.007825032070
           C          0.338459845261    -0.434313380181    -0.561978267838    12.000000000000
           H         -1.681223154739    -1.040951380181    -0.283943267838     1.007825032070
           H         -1.286800154739    -0.563291380181    -1.925753267838     1.007825032070
           O          0.515058845261    -0.181352380181     0.802540732162    15.994914619560
           H          0.692428845261    -1.435726380181    -0.805936267838     1.007825032070
           H          0.903306845261     0.281859619819    -1.154665267838     1.007825032070
           C          1.843207845261    -0.180179380181     1.219181732162    12.000000000000
           H          2.352267845261    -0.977330380181     0.694676732162     1.007825032070
           H          2.332989845261     0.763329619819     0.984903732162     1.007825032070
           H          1.924075845261    -0.354369380181     2.290128732162     1.007825032070

  Charge       = 0
  Multiplicity = 1
  Basis Set: 6-31G*
  Basis Set:

    Orbital Energies (a.u.)
    -----------------------

    Doubly Occupied:

       1A    -20.555759     2A    -15.528386     3A    -11.266388
       4A    -11.266330     5A    -11.240987     6A     -1.380934
       7A     -1.173602     8A     -0.998473     9A     -0.907341
      10A     -0.815977    11A     -0.684906    12A     -0.673261
      13A     -0.642428    14A     -0.612968    15A     -0.605569
      16A     -0.539862    17A     -0.531283    18A     -0.497635
      19A     -0.471527    20A     -0.415772    21A     -0.380114

  @DF-RHF Final Energy:  -248.12313052602181

   => Energetics <=

    Nuclear Repulsion Energy =            194.7317172195018031
    One-Electron Energy =                -723.3306593789164936
    Two-Electron Energy =                 280.4758116333927660
    DFT Exchange-Correlation Energy =       0.0000000000000000
    Empirical Dispersion Energy =           0.0000000000000000
    PCM Polarization Energy =               0.0000000000000000
    EFP Energy =                            0.0000000000000000
    Total Energy =                       -248.1231305260219528

  Mulliken Charges: (a.u.)
   Center  Symbol    Alpha    Beta     Spin     Total
       1     H     0.33288  0.33288  0.00000  0.33425
       2     N     3.92527  3.92527  0.00000 -0.85053
       3     C     3.06869  3.06869  0.00000 -0.13737
       4     H     0.32357  0.32357  0.00000  0.35286
       5     C     2.99092  2.99092  0.00000  0.01816
       6     H     0.42652  0.42652  0.00000  0.14695
       7     H     0.42045  0.42045  0.00000  0.15911
       8     O     4.31097  4.31097  0.00000 -0.62195
       9     H     0.43043  0.43043  0.00000  0.13915
      10     H     0.42246  0.42246  0.00000  0.15507
      11     C     3.07709  3.07709  0.00000 -0.15418
      12     H     0.43095  0.43095  0.00000  0.13810
      13     H     0.42574  0.42574  0.00000  0.14852
      14     H     0.41407  0.41407  0.00000  0.17187

   Total alpha = 21.00000, Total beta = 21.00000, Total charge =  0.00000
