                              Psi4 1.0.54 Driver

  ==> Input File <==

--------------------------------------------------------------------------
set {
	reference rhf
	basis cc-pvtz
}

set_num_threads( 4 )
memory 2 gb

molecule MOL {
0 1

H	 1.897389	 -0.582363	 -1.270572
C	 1.557736	 0.441161	 -1.063961
C	 0.692262	 0.592428	 0.156232
O	 1.874026	 1.325419	 -1.782071
C	 -0.554654	 -0.292621	 0.086567
H	 0.429085	 1.636567	 0.262757
H	 1.291282	 0.304817	 1.017819
C	 -1.846385	 0.513195	 -0.016346
H	 -0.473986	 -0.956115	 -0.769708
H	 -0.597929	 -0.929215	 0.966651
C	 -3.089953	 -0.365049	 -0.098564
H	 -1.798267	 1.154820	 -0.891143
H	 -1.925398	 1.173265	 0.842889
H	 -3.055079	 -1.012299	 -0.968245
H	 -3.988403	 0.236438	 -0.170014
H	 -3.183055	 -0.995885	 0.779079

	symmetry c1
}
set optking {
	frozen_dihedral = ("
		6 3 5 9
	")
}

ee,wfn = optimize('scf', return_wfn=True)
oeprop( wfn, 'DIPOLE', 'QUADRUPOLE', 'MULLIKEN_CHARGES')
f=open( 'psi4out.xyz', 'w' )
f.write( "16  " )
f.write( str(ee) + "\n" )
f.write( MOL.save_string_xyz() )
f.close()
--------------------------------------------------------------------------

    Molecular point group: c1
  Charge       = 0
  Multiplicity = 1
  Basis Set: CC-PVTZ
  Basis Set:
  @DF-RHF Final Energy:  -270.11428853828670
    Total Energy =                       -270.1142885382864733
    Molecular point group: c1
  Basis Set: CC-PVTZ
  Basis Set:
  Basis Set: CC-PVTZ
  Basis Set:
  @DF-RHF Final Energy:  -270.11438489399461
    Total Energy =                       -270.1143848939944974
  Basis Set: CC-PVTZ
  Basis Set:
  Basis Set: CC-PVTZ
  Basis Set:
  @DF-RHF Final Energy:  -270.11447799372536
    Total Energy =                       -270.1144779937254725
  Basis Set: CC-PVTZ
  Basis Set:
  Basis Set: CC-PVTZ
  Basis Set:
  @DF-RHF Final Energy:  -270.11459453982229
    Total Energy =                       -270.1145945398223489
  Basis Set: CC-PVTZ
  Basis Set:
  Basis Set: CC-PVTZ
  Basis Set:
  @DF-RHF Final Energy:  -270.11461940700150
    Total Energy =                       -270.1146194070014417
  Basis Set: CC-PVTZ
  Basis Set:
  Basis Set: CC-PVTZ
  Basis Set:
  @DF-RHF Final Energy:  -270.11462100659253
    Total Energy =                       -270.1146210065921878
  Basis Set: CC-PVTZ
  Basis Set:
  Basis Set: CC-PVTZ
  Basis Set:
  @DF-RHF Final Energy:  -270.11462213580916
    Total Energy =                       -270.1146221358094408
  Basis Set: CC-PVTZ
  Basis Set:
  Charge       = 0
  Multiplicity = 1
  Basis Set: CC-PVTZ
  Basis Set:

    Orbital Energies (a.u.)
    -----------------------

    Doubly Occupied:

       1A    -20.551970     2A    -11.321471     3A    -11.234494
       4A    -11.233810     5A    -11.225446     6A    -11.215180
       7A     -1.407078     8A     -1.095147     9A     -1.018073
      10A     -0.906497    11A     -0.813130    12A     -0.794890
      13A     -0.674370    14A     -0.655138    15A     -0.621680
      16A     -0.605868    17A     -0.592060    18A     -0.536356
      19A     -0.530338    20A     -0.526976    21A     -0.485895
      22A     -0.481844    23A     -0.469304    24A     -0.412637

  @DF-RHF Final Energy:  -270.11462266396234

   => Energetics <=

    Nuclear Repulsion Energy =            231.1866274349555681
    One-Electron Energy =                -823.7831967329393592
    Two-Electron Energy =                 322.4819466340215968
    DFT Exchange-Correlation Energy =       0.0000000000000000
    Empirical Dispersion Energy =           0.0000000000000000
    PCM Polarization Energy =               0.0000000000000000
    EFP Energy =                            0.0000000000000000
    Total Energy =                       -270.1146226639622228
    Molecular point group: c1
  Basis Set: CC-PVTZ
  Basis Set:

  -Total Gradient:
     Atom            X                  Y                   Z
    ------   -----------------  -----------------  -----------------
       1       -0.000010069753     0.000010771415     0.000012259802
       2       -0.000025735902    -0.000009885713     0.000000296789
       3        0.000004008549     0.000162334448     0.002188691085
       4       -0.000006531566    -0.000012269597     0.000015006396
       5        0.000982251334    -0.001659567504     0.000780374984
       6       -0.000068287616     0.000184355050    -0.001939515862
       7       -0.000019408950    -0.000010750915    -0.000008020727
       8        0.000002008190     0.000010008989     0.000010443637
       9       -0.000878194747     0.001318942575    -0.001062209372
      10        0.000011672794    -0.000002136775     0.000008486993
      11        0.000014569725     0.000004389696     0.000005755394
      12       -0.000011174825     0.000000396497    -0.000007194503
      13       -0.000007986418    -0.000001893200    -0.000005149412
      14        0.000003220120     0.000002268585    -0.000002940168
      15        0.000008929726     0.000004610559     0.000001529916
      16        0.000000729340    -0.000001574109     0.000002185046

  **** Optimization is complete! (in 8 steps) ****
    Final optimized geometry and variables:
    Molecular point group: c1

    Geometry (in Angstrom), charge = 0, multiplicity = 1:

    H            2.085188474383    -0.931829788432    -0.880223097731
    C            1.780657127986     0.091452940160    -0.623649431228
    C            0.941901037437     0.214022807236     0.620152004585
    O            2.110417148539     0.996544382927    -1.308713064759
    C           -0.315939387600    -0.681119313384     0.564106671479
    H            0.683047160583     1.257775115179     0.733724646771
    H            1.573296294948    -0.070903682483     1.456234647222
    C           -1.610129240897     0.123835464470     0.455118244715
    H           -0.256630891074    -1.346801270972    -0.292993273900
    H           -0.361332791709    -1.316656639133     1.440431768238
    C           -2.850690341704    -0.756712616051     0.361623585309
    H           -1.555856417401     0.769969572440    -0.416165256137
    H           -1.694961793581     0.779712218802     1.316480148911
    H           -2.811751049911    -1.397555932090    -0.512862002102
    H           -3.750289945891    -0.156849035590     0.291473460002
    H           -2.945543615241    -1.394459681146     1.234241720446

  Mulliken Charges: (a.u.)
   Center  Symbol    Alpha    Beta     Spin     Total
       1     H     0.46529  0.46529  0.00000  0.06942
       2     C     2.90324  2.90324  0.00000  0.19352
       3     C     3.08930  3.08930  0.00000 -0.17861
       4     O     4.16529  4.16529  0.00000 -0.33058
       5     C     3.10349  3.10349  0.00000 -0.20697
       6     H     0.44297  0.44297  0.00000  0.11406
       7     H     0.44210  0.44210  0.00000  0.11580
       8     C     3.08323  3.08323  0.00000 -0.16646
       9     H     0.45545  0.45545  0.00000  0.08910
      10     H     0.44520  0.44520  0.00000  0.10960
      11     C     3.14972  3.14972  0.00000 -0.29943
      12     H     0.44796  0.44796  0.00000  0.10409
      13     H     0.45143  0.45143  0.00000  0.09714
      14     H     0.45408  0.45408  0.00000  0.09184
      15     H     0.44626  0.44626  0.00000  0.10749
      16     H     0.45500  0.45500  0.00000  0.09000

   Total alpha = 24.00000, Total beta = 24.00000, Total charge =  0.00000

*** Psi4 exiting successfully. Buy a developer a beer!
