  ==> Input File <==

--------------------------------------------------------------------------
set {
	reference rhf
	basis cc-pvtz
}

set_num_threads( 4 )
memory 2 gb

molecule MOL {
0 1

H	 -2.698799	 -0.000846	 0.036018
C	 -1.694291	 -0.000483	 0.434279
O	 -0.828718	 -0.000608	 -0.655022
H	 -1.576855	 0.881100	 1.056504
H	 -1.576401	 -0.881658	 1.057001
C	 -1.241794	 0.614806	 -1.850225
C	 -2.445482	 -0.077383	 -2.479733
C	 -1.454315	 2.116240	 -1.692803
H	 -0.395089	 0.468655	 -2.509276
H	 -2.276342	 -1.145375	 -2.541734
H	 -2.603699	 0.300885	 -3.483041
H	 -3.356790	 0.094373	 -1.918840
H	 -0.597783	 2.569535	 -1.209149
H	 -1.576616	 2.574262	 -2.667498
H	 -2.339249	 2.346188	 -1.110946

	symmetry c1
}
set optking {
	frozen_dihedral = ("
		6 3 2 1
	")
}

ee = optimize('scf')
oeprop('DIPOLE', 'QUADRUPOLE', 'MULLIKEN_CHARGES')
f=open( 'psi4out.xyz', 'w' )
f.write( "15  " )
f.write( str(ee) + "\n" )
f.write( MOL.save_string_xyz() )
f.close()
--------------------------------------------------------------------------

    Molecular point group: c1
  Charge       = 0
  Multiplicity = 1
  Basis Set: CC-PVTZ
  Basis Set:
  @DF-RHF Final Energy:  -232.22257401644507
    Total Energy =                       -232.2225740164449235
    Molecular point group: c1
  Basis Set: CC-PVTZ
  Basis Set:
  Basis Set: CC-PVTZ
  Basis Set:
  @DF-RHF Final Energy:  -232.22431574536179
    Total Energy =                       -232.2243157453616504
  Basis Set: CC-PVTZ
  Basis Set:
  Basis Set: CC-PVTZ
  Basis Set:
  @DF-RHF Final Energy:  -232.22509265950194
    Total Energy =                       -232.2250926595016267
  Basis Set: CC-PVTZ
  Basis Set:
  Basis Set: CC-PVTZ
  Basis Set:
  @DF-RHF Final Energy:  -232.22511144302786
    Total Energy =                       -232.2251114430279131
  Basis Set: CC-PVTZ
  Basis Set:
  Basis Set: CC-PVTZ
  Basis Set:
  @DF-RHF Final Energy:  -232.22511658384497
    Total Energy =                       -232.2251165838450220
  Basis Set: CC-PVTZ
  Basis Set:
  Basis Set: CC-PVTZ
  Basis Set:
  @DF-RHF Final Energy:  -232.22511963020386
    Total Energy =                       -232.2251196302038352
  Basis Set: CC-PVTZ
  Basis Set:
  Charge       = 0
  Multiplicity = 1
  Basis Set: CC-PVTZ
  Basis Set:

    Orbital Energies (a.u.)
    -----------------------

    Doubly Occupied:

       1A    -20.540583     2A    -11.272972     3A    -11.258938
       4A    -11.209325     5A    -11.208048     6A     -1.372413
       7A     -1.051182     8A     -0.940666     9A     -0.931387
      10A     -0.781711    11A     -0.677041    12A     -0.641182
      13A     -0.634073    14A     -0.571730    15A     -0.563797
      16A     -0.553239    17A     -0.536234    18A     -0.500553
      19A     -0.498173    20A     -0.444415    21A     -0.407189

  @DF-RHF Final Energy:  -232.22512002389084

   => Energetics <=

    Nuclear Repulsion Energy =            199.0185515551301023
    One-Electron Energy =                -709.2976390811261354
    Two-Electron Energy =                 278.0539675021051380
    DFT Exchange-Correlation Energy =       0.0000000000000000
    Empirical Dispersion Energy =           0.0000000000000000
    PCM Polarization Energy =               0.0000000000000000
    EFP Energy =                            0.0000000000000000
    Total Energy =                       -232.2251200238908950
    Molecular point group: c1
  Basis Set: CC-PVTZ
  Basis Set:

  -Total Gradient:
     Atom            X                  Y                   Z
    ------   -----------------  -----------------  -----------------
       1        0.000175122065     0.001916904558     0.000005792598
       2       -0.000620371629    -0.003125709740    -0.000216471066
       3        0.001167658185     0.002489250551     0.000664006452
       4       -0.000005597751    -0.000005216083     0.000010848420
       5        0.000001853595     0.000005541415    -0.000000307995
       6       -0.000703094794    -0.001302027042    -0.000445500731
       7        0.000007562092     0.000002531361     0.000014878810
       8       -0.000014619463     0.000015661581    -0.000011745406
       9       -0.000011655065    -0.000000822227    -0.000017183974
      10       -0.000001553050    -0.000006545134    -0.000004071200
      11        0.000010926881     0.000005534032     0.000007850147
      12        0.000001320459     0.000001188657    -0.000002854018
      13        0.000002140524    -0.000008729914    -0.000011243175
      14       -0.000006130278     0.000007655656    -0.000001030959
      15       -0.000003561770     0.000004782329     0.000007032100

  **** Optimization is complete! (in 7 steps) ****
    Final optimized geometry and variables:
    Molecular point group: c1

    Geometry (in Angstrom), charge = 0, multiplicity = 1:

    H           -1.198241231815    -0.377994901184     1.411496207879
    C           -0.152277576913    -0.472817897365     1.678609699337
    O            0.686127975970    -0.562111449840     0.568898382357
    H            0.109360648133     0.378827486670     2.300138838413
    H           -0.026346791551    -1.373696692956     2.263053223872
    C            0.307256424874     0.079113145667    -0.623687841965
    C           -0.874413961415    -0.608890558696    -1.298131009622
    C            0.086205461801     1.575784590929    -0.438145637258
    H            1.170915052376    -0.051298257698    -1.263853272742
    H           -0.683372120772    -1.670553601673    -1.392450693093
    H           -1.022994117963    -0.199087164538    -2.290761708887
    H           -1.798851955515    -0.475060498834    -0.748730443741
    H            0.945603739282     2.027342484503     0.042326403732
    H           -0.054658102711     2.052891935747    -1.401031244229
    H           -0.791007029247     1.784879266484     0.163757272880

  Mulliken Charges: (a.u.)
   Center  Symbol    Alpha    Beta     Spin     Total
       1     H     0.46994  0.46994  0.00000  0.06011
       2     C     3.04012  3.04012  0.00000 -0.08023
       3     O     4.18557  4.18557  0.00000 -0.37113
       4     H     0.46302  0.46302  0.00000  0.07396
       5     H     0.44485  0.44485  0.00000  0.11031
       6     C     2.93805  2.93805  0.00000  0.12390
       7     C     3.15363  3.15363  0.00000 -0.30725
       8     C     3.15818  3.15818  0.00000 -0.31637
       9     H     0.44652  0.44652  0.00000  0.10696
      10     H     0.44477  0.44477  0.00000  0.11046
      11     H     0.45129  0.45129  0.00000  0.09742
      12     H     0.45582  0.45582  0.00000  0.08835
      13     H     0.44438  0.44438  0.00000  0.11124
      14     H     0.44861  0.44861  0.00000  0.10279
      15     H     0.45525  0.45525  0.00000  0.08949

   Total alpha = 21.00000, Total beta = 21.00000, Total charge = -0.00000
