                              Psi4 1.0.54 Driver

  ==> Input File <==

--------------------------------------------------------------------------
set {
	reference rhf
	basis cc-pvtz
}

set_num_threads( 4 )
memory 2 gb

molecule MOL {
0 1

H	 -3.436473	 1.252944	 -1.023892
O	 -3.458596	 0.315260	 -0.960865
C	 -3.176635	 -0.080824	 0.355601
C	 -1.763371	 0.265266	 0.799691
H	 -3.321825	 -1.153438	 0.379502
H	 -3.895468	 0.357385	 1.043382
C	 -0.673390	 -0.426948	 -0.013392
H	 -1.631049	 1.344913	 0.747560
H	 -1.664587	 -0.001624	 1.849167
C	 0.737842	 -0.043159	 0.423759
H	 -0.806103	 -0.190518	 -1.063345
H	 -0.797221	 -1.503753	 0.074146
C	 0.757560	 0.800126	 1.697152
H	 1.319747	 -0.948195	 0.569314
H	 1.226513	 0.508265	 -0.376859
C	 2.144254	 1.277914	 2.131488
H	 0.303878	 0.235128	 2.508200
H	 0.125666	 1.671026	 1.545948
C	 3.094606	 0.165833	 2.568810
H	 2.024205	 1.975462	 2.954768
H	 2.598948	 1.842208	 1.321398
H	 2.663604	 -0.419714	 3.374693
H	 4.030944	 0.578900	 2.926426
H	 3.327968	 -0.511610	 1.756272

	symmetry c1
}
set optking {
	frozen_dihedral = ("
		13 10 7 11
	")
}

ee,wfn = optimize('scf', return_wfn=True)
oeprop( wfn, 'DIPOLE', 'QUADRUPOLE', 'MULLIKEN_CHARGES')
f=open( 'psi4out.xyz', 'w' )
f.write( "24  " )
f.write( str(ee) + "\n" )
f.write( MOL.save_string_xyz() )
f.close()
--------------------------------------------------------------------------

    Molecular point group: c1
  Charge       = 0
  Multiplicity = 1
  Basis Set: CC-PVTZ
  Basis Set:
  @DF-RHF Final Energy:  -349.36497039331135
    Total Energy =                       -349.3649703933112960
    Molecular point group: c1
  Basis Set: CC-PVTZ
  Basis Set:
  Basis Set: CC-PVTZ
  Basis Set:
  @DF-RHF Final Energy:  -349.18850879227818
    Total Energy =                       -349.1885087922780144
  Basis Set: CC-PVTZ
  Basis Set:
  Basis Set: CC-PVTZ
  Basis Set:
  @DF-RHF Final Energy:  -349.30751000194311
    Total Energy =                       -349.3075100019428874
  Basis Set: CC-PVTZ
  Basis Set:
  Basis Set: CC-PVTZ
  Basis Set:
  @DF-RHF Final Energy:  -349.36445506062279
    Total Energy =                       -349.3644550606225607
  Basis Set: CC-PVTZ
  Basis Set:
  @DF-RHF Final Energy:  -349.36948953086147
    Total Energy =                       -349.3694895308615855
  @DF-RHF Final Energy:  -349.37010650669083
    Total Energy =                       -349.3701065066902629
  Basis Set: CC-PVTZ
  Basis Set:
  @DF-RHF Final Energy:  -349.37015897328769
    Total Energy =                       -349.3701589732877437
  Basis Set: CC-PVTZ
  Basis Set:
  Basis Set: CC-PVTZ
  Basis Set:
  @DF-RHF Final Energy:  -349.37015376789924
    Total Energy =                       -349.3701537678996374
  Basis Set: CC-PVTZ
  Basis Set:
  Basis Set: CC-PVTZ
  Basis Set:
  @DF-RHF Final Energy:  -349.37016920915215
    Total Energy =                       -349.3701692091519817
  Basis Set: CC-PVTZ
  Basis Set:
  Charge       = 0
  Multiplicity = 1
  Basis Set: CC-PVTZ
  Basis Set:

    Orbital Energies (a.u.)
    -----------------------

    Doubly Occupied:

       1A    -20.546120     2A    -11.265101     3A    -11.214324
       4A    -11.212978     5A    -11.211009     6A    -11.210237
       7A    -11.209402     8A    -11.205630     9A     -1.363945
      10A     -1.087230    11A     -1.047188    12A     -0.983464
      13A     -0.917779    14A     -0.856146    15A     -0.810649
      16A     -0.762618    17A     -0.679176    18A     -0.651083
      19A     -0.628742    20A     -0.622470    21A     -0.600676
      22A     -0.581444    23A     -0.556907    24A     -0.545822
      25A     -0.518494    26A     -0.513694    27A     -0.500459
      28A     -0.480251    29A     -0.474093    30A     -0.455400
      31A     -0.443197    32A     -0.438752    33A     -0.426378

  @DF-RHF Final Energy:  -349.37016908950352

   => Energetics <=

    Nuclear Repulsion Energy =            388.8040219441780891
    One-Electron Energy =               -1244.3066582056953848
    Two-Electron Energy =                 506.1324671720137758
    DFT Exchange-Correlation Energy =       0.0000000000000000
    Empirical Dispersion Energy =           0.0000000000000000
    PCM Polarization Energy =               0.0000000000000000
    EFP Energy =                            0.0000000000000000
    Total Energy =                       -349.3701690895035199
    Molecular point group: c1
  Basis Set: CC-PVTZ
  Basis Set:

  -Total Gradient:
     Atom            X                  Y                   Z
    ------   -----------------  -----------------  -----------------
       1       -0.000000591270    -0.000005979899     0.000017424959
       2        0.000010866156    -0.000065381597    -0.000044097840
       3       -0.000015552736     0.000121142098     0.000002825860
       4       -0.000053342271    -0.000050693489     0.000015306028
       5        0.000007222155     0.000011014310    -0.000023132376
       6       -0.000036644211    -0.000008675673     0.000006673272
       7        0.001113017796    -0.002526929787    -0.001413606971
       8        0.000002701023     0.000009436566     0.000016112278
       9       -0.000003275845    -0.000002843221    -0.000029848925
      10       -0.001217708805    -0.002278030902     0.001367540450
      11       -0.000653111020     0.002783958226     0.000826029177
      12        0.000006471288    -0.000002314376    -0.000004643164
      13        0.000779999092     0.002045680880    -0.000794572766
      14        0.000038345877    -0.000041251291    -0.000000030500
      15       -0.000004547981    -0.000000807039     0.000030378403
      16       -0.000034726134     0.000009991025     0.000094317076
      17        0.000035019652     0.000006352880    -0.000004180252
      18       -0.000016146646     0.000011057420    -0.000003596503
      19        0.000032988383    -0.000000302199    -0.000060804617
      20        0.000000292796     0.000017886251     0.000018615352
      21        0.000009682564    -0.000006976142     0.000013433641
      22       -0.000011739493     0.000020222797     0.000005881673
      23        0.000013115639    -0.000001421810    -0.000003279813
      24       -0.000002336006    -0.000045135023    -0.000032744450

  **** Optimization is complete! (in 10 steps) ****
    Final optimized geometry and variables:
    Molecular point group: c1

    Geometry (in Angstrom), charge = 0, multiplicity = 1:

    H           -1.825792347428     1.872447340443    -2.807137355311
    O           -2.000619392940     0.955684158374    -2.919441027947
    C           -2.435379853292     0.401657954734    -1.705462355722
    C           -1.368935049806     0.409805900225    -0.619017652844
    H           -2.728299997749    -0.615528448948    -1.932965502755
    H           -3.322243441392     0.921006713827    -1.350972805331
    C           -0.148586477216    -0.438895255585    -0.982589038508
    H           -1.074913980567     1.439899663138    -0.432346124366
    H           -1.827786975629     0.052067350681     0.297292542827
    C            1.019671897409    -0.479454416224     0.039037625460
    H            0.226687221668    -0.063824251940    -1.925623111593
    H           -0.493325681328    -1.450422123407    -1.171209720607
    C            0.782455857701     0.161611311355     1.408535367619
    H            1.314179299555    -1.512408630625     0.176868085084
    H            1.881160724254     0.012853971796    -0.402753249400
    C            2.004722095721     0.119757956610     2.329521472568
    H           -0.050154938424    -0.323290412363     1.911562548470
    H            0.496501976975     1.199153364794     1.277364937728
    C            2.410839131690    -1.276234151882     2.796338992169
    H            1.793495555010     0.728194361148     3.203728294681
    H            2.846762227804     0.591456813757     1.829665134823
    H            1.584956799827    -1.775544374712     3.293119228872
    H            3.232933605070    -1.220559108426     3.500838473494
    H            2.730683547595    -1.904546499281     1.974174865828

  Mulliken Charges: (a.u.)
   Center  Symbol    Alpha    Beta     Spin     Total
       1     H     0.39511  0.39511  0.00000  0.20977
       2     O     4.20432  4.20432  0.00000 -0.40864
       3     C     2.97714  2.97714  0.00000  0.04573
       4     C     3.10726  3.10726  0.00000 -0.21452
       5     H     0.45893  0.45893  0.00000  0.08213
       6     H     0.45955  0.45955  0.00000  0.08090
       7     C     3.09299  3.09299  0.00000 -0.18599
       8     H     0.45757  0.45757  0.00000  0.08487
       9     H     0.45085  0.45085  0.00000  0.09829
      10     C     3.10043  3.10043  0.00000 -0.20086
      11     H     0.44279  0.44279  0.00000  0.11442
      12     H     0.45242  0.45242  0.00000  0.09515
      13     C     3.09960  3.09960  0.00000 -0.19921
      14     H     0.44783  0.44783  0.00000  0.10434
      15     H     0.45204  0.45204  0.00000  0.09593
      16     C     3.09044  3.09044  0.00000 -0.18089
      17     H     0.45284  0.45284  0.00000  0.09432
      18     H     0.44664  0.44664  0.00000  0.10672
      19     C     3.15207  3.15207  0.00000 -0.30413
      20     H     0.44876  0.44876  0.00000  0.10248
      21     H     0.45488  0.45488  0.00000  0.09023
      22     H     0.45538  0.45538  0.00000  0.08923
      23     H     0.44671  0.44671  0.00000  0.10659
      24     H     0.45344  0.45344  0.00000  0.09312

   Total alpha = 33.00000, Total beta = 33.00000, Total charge = -0.00000

*** Psi4 exiting successfully. Buy a developer a beer!
