  ==> Input File <==

--------------------------------------------------------------------------
set {
	reference rhf
	basis cc-pvtz
}

set_num_threads( 4 )
memory 2 gb

molecule MOL {
0 1

H	 0.553073	 -1.247011	 -0.764282
C	 0.581007	 -0.248881	 -1.222316
C	 0.062554	 0.862911	 -0.350953
O	 1.003646	 -0.112171	 -2.317689
C	 -1.339253	 0.577611	 0.196911
H	 0.087729	 1.784955	 -0.917252
H	 0.758358	 0.959577	 0.479461
C	 -1.813142	 -0.849710	 -0.061612
H	 -2.032833	 1.276441	 -0.256032
H	 -1.357249	 0.782269	 1.263793
H	 -1.839268	 -1.063526	 -1.124230
H	 -2.810118	 -1.001930	 0.334000
H	 -1.159274	 -1.579980	 0.402282

	symmetry c1
}
set optking {
	frozen_dihedral = ("
		6 3 5 9
	")
}

ee = optimize('scf')
oeprop('DIPOLE', 'QUADRUPOLE', 'MULLIKEN_CHARGES')
f=open( 'psi4out.xyz', 'w' )
f.write( "13  " )
f.write( str(ee) + "\n" )
f.write( MOL.save_string_xyz() )
f.close()
--------------------------------------------------------------------------

    Molecular point group: c1
  Charge       = 0
  Multiplicity = 1
  Basis Set: CC-PVTZ
  Basis Set:
  @DF-RHF Final Energy:  -231.05997902307973
    Total Energy =                       -231.0599790230797907
    Molecular point group: c1
  Basis Set: CC-PVTZ
  Basis Set:
  Basis Set: CC-PVTZ
  Basis Set:
  @DF-RHF Final Energy:  -231.06059787971012
    Total Energy =                       -231.0605978797100022
  Basis Set: CC-PVTZ
  Basis Set:
  Basis Set: CC-PVTZ
  Basis Set:
  @DF-RHF Final Energy:  -231.06248544297219
    Total Energy =                       -231.0624854429723598
  Basis Set: CC-PVTZ
  Basis Set:
  Basis Set: CC-PVTZ
  Basis Set:
  @DF-RHF Final Energy:  -231.06255390166149
    Total Energy =                       -231.0625539016616017
  Basis Set: CC-PVTZ
  Basis Set:
  @DF-RHF Final Energy:  -231.06168975246086
    Total Energy =                       -231.0616897524606372
  @DF-RHF Final Energy:  -231.06293219953432
    Total Energy =                       -231.0629321995343162
  Basis Set: CC-PVTZ
  Basis Set:
  @DF-RHF Final Energy:  -231.06294116317261
    Total Energy =                       -231.0629411631723542
  Basis Set: CC-PVTZ
  Basis Set:
  Basis Set: CC-PVTZ
  Basis Set:
  @DF-RHF Final Energy:  -231.06295181886767
    Total Energy =                       -231.0629518188674751
  Basis Set: CC-PVTZ
  Basis Set:
  Basis Set: CC-PVTZ
  Basis Set:
  @DF-RHF Final Energy:  -231.06295377718629
    Total Energy =                       -231.0629537771862374
  Basis Set: CC-PVTZ
  Basis Set:
  Charge       = 0
  Multiplicity = 1
  Basis Set: CC-PVTZ
  Basis Set:

    Orbital Energies (a.u.)
    -----------------------

    Doubly Occupied:

       1A    -20.551154     2A    -11.320464     3A    -11.237164
       4A    -11.234173     5A    -11.223219     6A     -1.405913
       7A     -1.082477     8A     -0.974673     9A     -0.858890
      10A     -0.776835    11A     -0.678891    12A     -0.639387
      13A     -0.625074    14A     -0.604017    15A     -0.560759
      16A     -0.533123    17A     -0.518328    18A     -0.488102
      19A     -0.478808    20A     -0.410723

  @DF-RHF Final Energy:  -231.06295384272039

   => Energetics <=

    Nuclear Repulsion Energy =            174.2811625331617620
    One-Electron Energy =                -658.2838847664409059
    Two-Electron Energy =                 252.9397683905587826
    DFT Exchange-Correlation Energy =       0.0000000000000000
    Empirical Dispersion Energy =           0.0000000000000000
    PCM Polarization Energy =               0.0000000000000000
    EFP Energy =                            0.0000000000000000
    Total Energy =                       -231.0629538427203613
    Molecular point group: c1
  Basis Set: CC-PVTZ
  Basis Set:

  -Total Gradient:
     Atom            X                  Y                   Z
    ------   -----------------  -----------------  -----------------
       1       -0.000001461727     0.000003481834    -0.000000579514
       2       -0.000011737420     0.000010213868    -0.000007669437
       3        0.000908725482     0.002424865456     0.003893124074
       4        0.000004965448    -0.000010767104    -0.000000312350
       5       -0.000708804607    -0.002841504707    -0.003565964219
       6       -0.000643852001    -0.001594819782    -0.002713307410
       7       -0.000008095255     0.000001048648     0.000006241657
       8        0.000002854815    -0.000005340969    -0.000008994518
       9        0.000455688062     0.002010816496     0.002393867720
      10        0.000005243243     0.000005017168     0.000004291627
      11       -0.000001294531    -0.000004537530     0.000000232644
      12        0.000000378132     0.000001721964     0.000000640747
      13       -0.000002609641    -0.000000195342    -0.000001571025

  **** Optimization is complete! (in 10 steps) ****
    Final optimized geometry and variables:
    Molecular point group: c1

    Geometry (in Angstrom), charge = 0, multiplicity = 1:

    H            1.160978214890    -1.239784200759    -0.023362267476
    C            0.974525097006    -0.258964740984    -0.473800215463
    C            0.412162013512     0.794407941973     0.446048977788
    O            1.230839263067    -0.078093759752    -1.614479190334
    C           -1.027725676608     0.511920067986     0.952982260752
    H            0.441649791214     1.723177011070    -0.105762864610
    H            1.093228767126     0.870268153129     1.288107319390
    C           -1.562947577291    -0.903364921583     0.744504021340
    H           -1.697101754086     1.221960484481     0.483749047822
    H           -1.066838004282     0.741321398010     2.011442764974
    H           -1.584252532129    -1.177236693499    -0.304284411143
    H           -2.576275243980    -0.972265085090     1.120431289754
    H           -0.970044794886    -1.642600081965     1.271386349522

  Mulliken Charges: (a.u.)
   Center  Symbol    Alpha    Beta     Spin     Total
       1     H     0.46237  0.46237  0.00000  0.07527
       2     C     2.90515  2.90515  0.00000  0.18970
       3     C     3.08783  3.08783  0.00000 -0.17567
       4     O     4.16618  4.16618  0.00000 -0.33236
       5     C     3.09102  3.09102  0.00000 -0.18204
       6     H     0.44148  0.44148  0.00000  0.11704
       7     H     0.44933  0.44933  0.00000  0.10134
       8     C     3.15938  3.15938  0.00000 -0.31875
       9     H     0.44530  0.44530  0.00000  0.10940
      10     H     0.44922  0.44922  0.00000  0.10156
      11     H     0.44785  0.44785  0.00000  0.10430
      12     H     0.44312  0.44312  0.00000  0.11375
      13     H     0.45177  0.45177  0.00000  0.09646

   Total alpha = 20.00000, Total beta = 20.00000, Total charge = -0.00000
