                              Psi4 1.0.54 Driver

  ==> Input File <==

--------------------------------------------------------------------------
set {
	reference rhf
	basis cc-pvtz
}

set_num_threads( 4 )
memory 2 gb

molecule MOL {
0 1

H	 -0.963074	 -0.946430	 -0.919693
O	 -1.432053	 -0.565244	 -0.200812
C	 -0.727158	 0.534527	 0.310686
C	 0.680222	 0.664433	 -0.252229
H	 -1.306802	 1.408001	 0.044211
H	 -0.690821	 0.490158	 1.397609
C	 1.605391	 -0.489360	 0.123098
H	 0.615089	 0.745647	 -1.332226
H	 1.101414	 1.597893	 0.110950
H	 1.247627	 -1.432485	 -0.275204
H	 2.601435	 -0.332816	 -0.273062
H	 1.691776	 -0.589902	 1.200774

	symmetry c1
}
set optking {
	frozen_dihedral = ("
		1 2 3 4
	")
}

ee,wfn = optimize('scf', return_wfn=True)
oeprop( wfn, 'DIPOLE', 'QUADRUPOLE', 'MULLIKEN_CHARGES')
f=open( 'psi4out.xyz', 'w' )
f.write( "12  " )
f.write( str(ee) + "\n" )
f.write( MOL.save_string_xyz() )
f.close()
--------------------------------------------------------------------------

    Molecular point group: c1
  Charge       = 0
  Multiplicity = 1
  Basis Set: CC-PVTZ
  Basis Set:
  @DF-RHF Final Energy:  -193.18763474272856
    Total Energy =                       -193.1876347427287044
    Molecular point group: c1
  Basis Set: CC-PVTZ
  Basis Set:
  Basis Set: CC-PVTZ
  Basis Set:
  @DF-RHF Final Energy:  -193.18814694601807
    Total Energy =                       -193.1881469460181791
  Basis Set: CC-PVTZ
  Basis Set:
  Basis Set: CC-PVTZ
  Basis Set:
  @DF-RHF Final Energy:  -193.18836572118244
    Total Energy =                       -193.1883657211823220
  Basis Set: CC-PVTZ
  Basis Set:
  Basis Set: CC-PVTZ
  Basis Set:
  @DF-RHF Final Energy:  -193.18837202943800
    Total Energy =                       -193.1883720294380566
  Basis Set: CC-PVTZ
  Basis Set:
  Basis Set: CC-PVTZ
  Basis Set:
  @DF-RHF Final Energy:  -193.18837598126552
    Total Energy =                       -193.1883759812654944
  Basis Set: CC-PVTZ
  Basis Set:
  Charge       = 0
  Multiplicity = 1
  Basis Set: CC-PVTZ
  Basis Set:

    Orbital Energies (a.u.)
    -----------------------

    Doubly Occupied:

       1A    -20.543639     2A    -11.265480     3A    -11.225233
       4A    -11.216348     5A     -1.362100     6A     -1.055256
       7A     -0.928391     8A     -0.820957     9A     -0.666169
      10A     -0.645978    11A     -0.636897    12A     -0.575265
      13A     -0.549660    14A     -0.512776    15A     -0.492722
      16A     -0.466433    17A     -0.434549

  @DF-RHF Final Energy:  -193.18837618087923

   => Energetics <=

    Nuclear Repulsion Energy =            133.2450952706743692
    One-Electron Energy =                -526.0712350087057985
    Two-Electron Energy =                 199.6377635571521409
    DFT Exchange-Correlation Energy =       0.0000000000000000
    Empirical Dispersion Energy =           0.0000000000000000
    PCM Polarization Energy =               0.0000000000000000
    EFP Energy =                            0.0000000000000000
    Total Energy =                       -193.1883761808792883
    Molecular point group: c1
  Basis Set: CC-PVTZ
  Basis Set:

  -Total Gradient:
     Atom            X                  Y                   Z
    ------   -----------------  -----------------  -----------------
       1        0.000629047494    -0.000875584413     0.000930032115
       2       -0.000899625143     0.001317727977    -0.001436383457
       3        0.000554339519    -0.000947952363     0.001195433700
       4       -0.000275331404     0.000517635922    -0.000676358448
       5       -0.000005339475    -0.000009810740    -0.000007815513
       6       -0.000003176931    -0.000004288558    -0.000003990413
       7       -0.000001505873    -0.000001728966    -0.000014474877
       8        0.000008100225    -0.000004111793     0.000010057507
       9       -0.000002063270     0.000005821380     0.000007322277
      10       -0.000001420123    -0.000004901082     0.000003468553
      11       -0.000000193667     0.000000040708    -0.000001443708
      12       -0.000002831351     0.000007151928    -0.000005847734

  **** Optimization is complete! (in 6 steps) ****
    Final optimized geometry and variables:
    Molecular point group: c1

    Geometry (in Angstrom), charge = 0, multiplicity = 1:

    H           -0.961135422504    -0.935822848776    -0.953135402337
    O           -1.444022273500    -0.540792823944    -0.252176768609
    C           -0.731122376799     0.539412015940     0.295342148818
    C            0.702578549530     0.643783771815    -0.199956867746
    H           -1.258586976227     1.457893711204     0.058451698298
    H           -0.742233060045     0.427141097726     1.374338852765
    C            1.590755549986    -0.527680578140     0.211981667396
    H            0.694531481518     0.742356047581    -1.283349880049
    H            1.122442401454     1.567576614657     0.185117956105
    H            1.213513892911    -1.473388878474    -0.160209611049
    H            2.596789352484    -0.403300246810    -0.170625549256
    H            1.651372361941    -0.604788237871     1.291874655066

  Mulliken Charges: (a.u.)
   Center  Symbol    Alpha    Beta     Spin     Total
       1     H     0.39229  0.39229  0.00000  0.21542
       2     O     4.20790  4.20790  0.00000 -0.41580
       3     C     2.95228  2.95228  0.00000  0.09544
       4     C     3.10651  3.10651  0.00000 -0.21301
       5     H     0.46520  0.46520  0.00000  0.06960
       6     H     0.47145  0.47145  0.00000  0.05711
       7     C     3.14230  3.14230  0.00000 -0.28460
       8     H     0.45357  0.45357  0.00000  0.09285
       9     H     0.45074  0.45074  0.00000  0.09853
      10     H     0.45718  0.45718  0.00000  0.08564
      11     H     0.44798  0.44798  0.00000  0.10404
      12     H     0.45261  0.45261  0.00000  0.09478

   Total alpha = 17.00000, Total beta = 17.00000, Total charge =  0.00000

*** Psi4 exiting successfully. Buy a developer a beer!
