  ==> Input File <==

--------------------------------------------------------------------------
set {
	reference rhf
	basis 6-31G*
}

set_num_threads( 1 )
memory 2 gb

molecule MOL {
0 1

O	 -0.988096	 -1.408613	 0.050699
C	 -0.676749	 -0.249230	 -0.009274
C	 -1.746085	 0.827156	 -0.009539
N	 0.623947	 0.147590	 -0.102813
H	 -1.701500	 1.431508	 -0.908902
H	 -2.703425	 0.330732	 0.036390
H	 -1.647323	 1.487769	 0.845106
C	 1.660869	 -0.865656	 -0.104235
C	 1.078454	 1.498407	 0.144090
H	 2.445622	 -0.578365	 -0.795353
H	 1.241230	 -1.807603	 -0.411770
H	 2.100506	 -0.982426	 0.883948
H	 1.941930	 1.701029	 -0.478320
H	 0.320243	 2.224023	 -0.103966
H	 1.371424	 1.645175	 1.182088

	symmetry c1
}
set optking {
	frozen_dihedral = ("
		2 4 8 10
	")
}

ee = energy('scf')
oeprop('DIPOLE', 'QUADRUPOLE', 'MULLIKEN_CHARGES')
f=open( 'psi4out.xyz', 'w' )
f.write( "15  " )
f.write( str(ee) + "\n" )
f.write( MOL.save_string_xyz() )
f.close()
--------------------------------------------------------------------------

    Molecular point group: c1

    Geometry (in Angstrom), charge = 0, multiplicity = 1:

       Center              X                  Y                   Z               Mass
    ------------   -----------------  -----------------  -----------------  -----------------
           O         -0.989538544946    -1.403544524346     0.052135763384    15.994914619560
           C         -0.678191544946    -0.244161524346    -0.007837236616    12.000000000000
           C         -1.747527544946     0.832224475654    -0.008102236616    12.000000000000
           N          0.622504455054     0.152658475654    -0.101376236616    14.003074004780
           H         -1.702942544946     1.436576475654    -0.907465236616     1.007825032070
           H         -2.704867544946     0.335800475654     0.037826763384     1.007825032070
           H         -1.648765544946     1.492837475654     0.846542763384     1.007825032070
           C          1.659426455054    -0.860587524346    -0.102798236616    12.000000000000
           C          1.077011455054     1.503475475654     0.145526763384    12.000000000000
           H          2.444179455054    -0.573296524346    -0.793916236616     1.007825032070
           H          1.239787455054    -1.802534524346    -0.410333236616     1.007825032070
           H          2.099063455054    -0.977357524346     0.885384763384     1.007825032070
           H          1.940487455054     1.706097475654    -0.476883236616     1.007825032070
           H          0.318800455054     2.229091475654    -0.102529236616     1.007825032070
           H          1.369981455054     1.650243475654     1.183524763384     1.007825032070

  Charge       = 0
  Multiplicity = 1
  Basis Set: 6-31G*
  Basis Set:

    Orbital Energies (a.u.)
    -----------------------

    Doubly Occupied:

       1A    -20.514648     2A    -15.583595     3A    -11.341622
       4A    -11.266467     5A    -11.247744     6A    -11.228139
       7A     -1.384363     8A     -1.243509     9A     -1.014014
      10A     -0.972746    11A     -0.919071    12A     -0.737890
      13A     -0.680868    14A     -0.658945    15A     -0.651309
      16A     -0.590044    17A     -0.576047    18A     -0.567822
      19A     -0.561098    20A     -0.546705    21A     -0.529699
      22A     -0.502787    23A     -0.410415    24A     -0.366512

  @DF-RHF Final Energy:  -286.02957949317511

   => Energetics <=

    Nuclear Repulsion Energy =            252.3488144529154340
    One-Electron Energy =                -888.5644090093041996
    Two-Electron Energy =                 350.1860150632135742
    DFT Exchange-Correlation Energy =       0.0000000000000000
    Empirical Dispersion Energy =           0.0000000000000000
    PCM Polarization Energy =               0.0000000000000000
    EFP Energy =                            0.0000000000000000
    Total Energy =                       -286.0295794931751630

  Mulliken Charges: (a.u.)
   Center  Symbol    Alpha    Beta     Spin     Total
       1     O     4.30394  4.30394  0.00000 -0.60787
       2     C     2.62453  2.62453  0.00000  0.75093
       3     C     3.29829  3.29829  0.00000 -0.59659
       4     N     3.82340  3.82340  0.00000 -0.64680
       5     H     0.40625  0.40625  0.00000  0.18750
       6     H     0.39056  0.39056  0.00000  0.21888
       7     H     0.40814  0.40814  0.00000  0.18372
       8     C     3.14401  3.14401  0.00000 -0.28801
       9     C     3.14228  3.14228  0.00000 -0.28456
      10     H     0.41897  0.41897  0.00000  0.16205
      11     H     0.38578  0.38578  0.00000  0.22843
      12     H     0.41969  0.41969  0.00000  0.16062
      13     H     0.41104  0.41104  0.00000  0.17793
      14     H     0.40696  0.40696  0.00000  0.18608
      15     H     0.41615  0.41615  0.00000  0.16769

   Total alpha = 24.00000, Total beta = 24.00000, Total charge = -0.00000
