  ==> Input File <==

--------------------------------------------------------------------------
set {
	reference rhf
	basis 6-31G*
}

set_num_threads( 4 )
memory 2 gb

molecule MOL {
0 1

H	 1.037396	 1.856451	 -0.068305
O	 0.213659	 1.378772	 -0.071567
C	 0.489431	 0.077273	 0.000046
C	 -0.764129	 -0.759190	 0.000191
O	 1.602877	 -0.332285	 0.055398
C	 -2.038368	 0.075731	 -0.000248
H	 -0.717284	 -1.412404	 -0.866059
H	 -0.717458	 -1.411724	 0.866967
H	 -2.086483	 0.712501	 -0.875098
H	 -2.908485	 -0.571682	 -0.000042
H	 -2.086576	 0.713280	 0.874068

	symmetry c1
}
set optking {
	frozen_dihedral = ("
		2 3 4 7
	")
}

ee = optimize('scf')
oeprop('DIPOLE', 'QUADRUPOLE', 'MULLIKEN_CHARGES')
f=open( 'psi4out.xyz', 'w' )
f.write( "11  " )
f.write( str(ee) + "\n" )
f.write( MOL.save_string_xyz() )
f.close()
--------------------------------------------------------------------------

    Molecular point group: c1
  Charge       = 0
  Multiplicity = 1
  Basis Set: 6-31G*
  Basis Set:
  @DF-RHF Final Energy:  -266.84213461198920
    Total Energy =                       -266.8421346119890245
    Molecular point group: c1
  Basis Set: 6-31G*
  Basis Set:
  Basis Set: 6-31G*
  Basis Set:
  @DF-RHF Final Energy:  -266.84302919096092
    Total Energy =                       -266.8430291909611469
  Basis Set: 6-31G*
  Basis Set:
  Basis Set: 6-31G*
  Basis Set:
  @DF-RHF Final Energy:  -266.84319348168282
    Total Energy =                       -266.8431934816827606
  Basis Set: 6-31G*
  Basis Set:
  Basis Set: 6-31G*
  Basis Set:
  @DF-RHF Final Energy:  -266.84330661005112
    Total Energy =                       -266.8433066100511155
  Basis Set: 6-31G*
  Basis Set:
  Basis Set: 6-31G*
  Basis Set:
  @DF-RHF Final Energy:  -266.84336088942553
    Total Energy =                       -266.8433608894252984
  Basis Set: 6-31G*
  Basis Set:
  Basis Set: 6-31G*
  Basis Set:
  @DF-RHF Final Energy:  -266.84337734435633
    Total Energy =                       -266.8433773443562131
  Basis Set: 6-31G*
  Basis Set:
  Basis Set: 6-31G*
  Basis Set:
  @DF-RHF Final Energy:  -266.84337608112850
    Total Energy =                       -266.8433760811284401
  Basis Set: 6-31G*
  Basis Set:
  Charge       = 0
  Multiplicity = 1
  Basis Set: 6-31G*
  Basis Set:

    Orbital Energies (a.u.)
    -----------------------

    Doubly Occupied:

       1A    -20.616636     2A    -20.547558     3A    -11.382634
       4A    -11.244655     5A    -11.224326     6A     -1.476809
       7A     -1.365199     8A     -1.066206     9A     -0.908961
      10A     -0.824270    11A     -0.701725    12A     -0.672951
      13A     -0.662274    14A     -0.595435    15A     -0.586314
      16A     -0.554636    17A     -0.523363    18A     -0.517429
      19A     -0.469856    20A     -0.439980

  @DF-RHF Final Energy:  -266.84337857001958

   => Energetics <=

    Nuclear Repulsion Energy =            180.0526686548295459
    One-Electron Energy =                -721.0296606413139671
    Two-Electron Energy =                 274.1336134164649252
    DFT Exchange-Correlation Energy =       0.0000000000000000
    Empirical Dispersion Energy =           0.0000000000000000
    PCM Polarization Energy =               0.0000000000000000
    EFP Energy =                            0.0000000000000000
    Total Energy =                       -266.8433785700195244
    Molecular point group: c1
  Basis Set: 6-31G*
  Basis Set:

  -Total Gradient:
     Atom            X                  Y                   Z
    ------   -----------------  -----------------  -----------------
       1       -0.000001573059     0.000000429854    -0.000003641419
       2        0.000001231035    -0.000001100680     0.000130835890
       3        0.000017550662    -0.000033586616    -0.000148233435
       4       -0.000099279066     0.000152958243    -0.000060510399
       5        0.000003969945     0.000006116736    -0.000002221413
       6        0.000013143302    -0.000012768157    -0.000001939066
       7        0.000072793728    -0.000114598804     0.000080521296
       8        0.000002370118    -0.000005720088    -0.000000436992
       9       -0.000003296786    -0.000001196808     0.000002622258
      10       -0.000002871040     0.000004557478     0.000001134137
      11       -0.000004038845     0.000004908844     0.000001869145

  **** Optimization is complete! (in 8 steps) ****
    Final optimized geometry and variables:
    Molecular point group: c1

    Geometry (in Angstrom), charge = 0, multiplicity = 1:

    H            1.225273974102     1.706655452112    -0.069550565854
    O            0.373493491402     1.280265379029    -0.073285562935
    C            0.574945648485    -0.031570713504     0.005411864391
    C           -0.693759851811    -0.852883775102     0.003013834843
    O            1.665881864869    -0.499622586348     0.066740383689
    C           -2.006812939805    -0.075613175760     0.004751968012
    H           -0.627683405454    -1.501163337777    -0.865333761867
    H           -0.626721310316    -1.508321523919     0.864892524729
    H           -2.095271234074     0.555286953654    -0.871206181298
    H           -2.841508683896    -0.768205179774     0.008356007375
    H           -2.090977943939     0.557741221694     0.879814494916

  Mulliken Charges: (a.u.)
   Center  Symbol    Alpha    Beta     Spin     Total
       1     H     0.26714  0.26714  0.00000  0.46571
       2     O     4.34827  4.34827  0.00000 -0.69653
       3     C     2.62364  2.62364  0.00000  0.75271
       4     C     3.21171  3.21171  0.00000 -0.42341
       5     O     4.28211  4.28211  0.00000 -0.56422
       6     C     3.23972  3.23972  0.00000 -0.47943
       7     H     0.39546  0.39546  0.00000  0.20909
       8     H     0.39514  0.39514  0.00000  0.20972
       9     H     0.41011  0.41011  0.00000  0.17977
      10     H     0.41549  0.41549  0.00000  0.16902
      11     H     0.41121  0.41121  0.00000  0.17757

   Total alpha = 20.00000, Total beta = 20.00000, Total charge = -0.00000
