                              Psi4 1.0.54 Driver

  ==> Input File <==

--------------------------------------------------------------------------
set {
	reference rhf
	basis cc-pvtz
}

set_num_threads( 4 )
memory 2 gb

molecule MOL {
0 1

H	 2.295242	 2.495517	 -0.308869
N	 1.512285	 1.882401	 -0.390631
C	 1.860978	 0.530248	 0.016256
H	 1.220497	 1.903095	 -1.345503
C	 0.644130	 -0.381765	 -0.031064
H	 2.234071	 0.576300	 1.033895
H	 2.657825	 0.097027	 -0.589805
C	 -0.678115	 0.376691	 0.025731
H	 0.693998	 -0.977147	 -0.936845
H	 0.693309	 -1.082142	 0.800523
C	 -1.900706	 -0.535531	 -0.022488
H	 -0.725296	 1.079516	 -0.802982
H	 -0.715474	 0.974884	 0.933278
C	 -3.220513	 0.226854	 0.028039
H	 -1.865036	 -1.134397	 -0.928236
H	 -1.857948	 -1.236381	 0.806820
H	 -3.309098	 0.911849	 -0.808725
H	 -4.066838	 -0.449485	 -0.008086
H	 -3.301685	 0.809374	 0.939860

	symmetry c1
}
set optking {
	frozen_dihedral = ("
		6 3 5 9
	")
}

ee,wfn = optimize('scf', return_wfn=True)
oeprop( wfn, 'DIPOLE', 'QUADRUPOLE', 'MULLIKEN_CHARGES')
f=open( 'psi4out.xyz', 'w' )
f.write( "19  " )
f.write( str(ee) + "\n" )
f.write( MOL.save_string_xyz() )
f.close()
--------------------------------------------------------------------------

    Molecular point group: c1
  Charge       = 0
  Multiplicity = 1
  Basis Set: CC-PVTZ
  Basis Set:
  @DF-RHF Final Energy:  -251.43862973217915
    Total Energy =                       -251.4386297321791517
    Molecular point group: c1
  Basis Set: CC-PVTZ
  Basis Set:
  Basis Set: CC-PVTZ
  Basis Set:
  @DF-RHF Final Energy:  -251.43986562681334
    Total Energy =                       -251.4398656268132868
  Basis Set: CC-PVTZ
  Basis Set:
  Basis Set: CC-PVTZ
  Basis Set:
  @DF-RHF Final Energy:  -251.44146086901466
    Total Energy =                       -251.4414608690145201
  Basis Set: CC-PVTZ
  Basis Set:
  Basis Set: CC-PVTZ
  Basis Set:
  @DF-RHF Final Energy:  -251.44159185867599
    Total Energy =                       -251.4415918586759062
  Basis Set: CC-PVTZ
  Basis Set:
  Basis Set: CC-PVTZ
  Basis Set:
  @DF-RHF Final Energy:  -251.44160249549549
    Total Energy =                       -251.4416024954954310
  Basis Set: CC-PVTZ
  Basis Set:
  Basis Set: CC-PVTZ
  Basis Set:
  @DF-RHF Final Energy:  -251.44160365845698
    Total Energy =                       -251.4416036584570975
  Basis Set: CC-PVTZ
  Basis Set:
  Charge       = 0
  Multiplicity = 1
  Basis Set: CC-PVTZ
  Basis Set:

    Orbital Energies (a.u.)
    -----------------------

    Doubly Occupied:

       1A    -15.527543     2A    -11.239207     3A    -11.208430
       4A    -11.207338     5A    -11.202526     6A    -11.201454
       7A     -1.178616     8A     -1.067765     9A     -0.994854
      10A     -0.905053    11A     -0.812573    12A     -0.777886
      13A     -0.668404    14A     -0.634513    15A     -0.619371
      16A     -0.583776    17A     -0.566576    18A     -0.548544
      19A     -0.528330    20A     -0.497184    21A     -0.475755
      22A     -0.463958    23A     -0.452410    24A     -0.447290
      25A     -0.381196

  @DF-RHF Final Energy:  -251.44160400461553

   => Energetics <=

    Nuclear Repulsion Energy =            249.6622773349831448
    One-Electron Energy =                -833.8266564421530802
    Two-Electron Energy =                 332.7227751025542375
    DFT Exchange-Correlation Energy =       0.0000000000000000
    Empirical Dispersion Energy =           0.0000000000000000
    PCM Polarization Energy =               0.0000000000000000
    EFP Energy =                            0.0000000000000000
    Total Energy =                       -251.4416040046156695
    Molecular point group: c1
  Basis Set: CC-PVTZ
  Basis Set:

  -Total Gradient:
     Atom            X                  Y                   Z
    ------   -----------------  -----------------  -----------------
       1       -0.000011841633    -0.000026236555     0.000001800483
       2       -0.000005777515    -0.000003486988     0.000014623652
       3       -0.003816489114     0.005207076152     0.002467210188
       4        0.000000093131    -0.000009719776     0.000001439904
       5       -0.002833016640     0.004953169685    -0.004027815483
       6        0.003684828001    -0.005171360635    -0.001418151863
       7       -0.000010060255     0.000007631463    -0.000001643940
       8       -0.000000413108     0.000002423802    -0.000039060068
       9        0.002981079617    -0.004964312710     0.002965806971
      10        0.000004045311     0.000011534026     0.000004489159
      11       -0.000001404051     0.000002059880     0.000000287177
      12        0.000007791568    -0.000013813409     0.000011441782
      13        0.000003022706     0.000010158126     0.000011397579
      14        0.000001265071    -0.000003615338     0.000006981889
      15       -0.000000702047     0.000002952840     0.000002791941
      16       -0.000005420997    -0.000000607107    -0.000003894385
      17        0.000004069403    -0.000004956170     0.000001837170
      18       -0.000000187005     0.000000856511     0.000002906329
      19       -0.000000882445     0.000000246198    -0.000002448484

  **** Optimization is complete! (in 7 steps) ****
    Final optimized geometry and variables:
    Molecular point group: c1

    Geometry (in Angstrom), charge = 0, multiplicity = 1:

    H            2.792709319232     2.059482180371    -0.101072479178
    N            1.963175237109     1.537506332595    -0.287992509221
    C            2.140906443874     0.145560841968     0.091024332712
    H            1.779873838615     1.621941354389    -1.266214620391
    C            0.872583650753    -0.710973522839    -0.065186163158
    H            2.478238586271     0.102999045539     1.120178528709
    H            2.935761830490    -0.337610025991    -0.478517804864
    C           -0.457974866704     0.016983366784     0.091561957929
    H            0.910157484652    -1.252847606371    -1.006733460985
    H            0.925375067478    -1.493747648864     0.687732423124
    C           -1.653233224831    -0.931051038843     0.040996690521
    H           -0.565258012116     0.769895881006    -0.681202160858
    H           -0.462280952119     0.558139918024     1.032935740897
    C           -2.991105391311    -0.213245001218     0.185572463331
    H           -1.639710166386    -1.479315315915    -0.897603788511
    H           -1.558359302953    -1.674881408619     0.827680251679
    H           -3.133790339630     0.511897082254    -0.608764884229
    H           -3.819234519509    -0.912012530083     0.147947261703
    H           -3.049264982518     0.318398349815     1.129520485369

  Mulliken Charges: (a.u.)
   Center  Symbol    Alpha    Beta     Spin     Total
       1     H     0.42913  0.42913  0.00000  0.14174
       2     N     3.68547  3.68547  0.00000 -0.37095
       3     C     3.03654  3.03654  0.00000 -0.07308
       4     H     0.43198  0.43198  0.00000  0.13604
       5     C     3.10522  3.10522  0.00000 -0.21044
       6     H     0.45531  0.45531  0.00000  0.08938
       7     H     0.46205  0.46205  0.00000  0.07590
       8     C     3.07266  3.07266  0.00000 -0.14532
       9     H     0.45227  0.45227  0.00000  0.09546
      10     H     0.45414  0.45414  0.00000  0.09171
      11     C     3.08474  3.08474  0.00000 -0.16949
      12     H     0.45595  0.45595  0.00000  0.08811
      13     H     0.45185  0.45185  0.00000  0.09630
      14     C     3.14984  3.14984  0.00000 -0.29968
      15     H     0.45671  0.45671  0.00000  0.08657
      16     H     0.45580  0.45580  0.00000  0.08840
      17     H     0.45566  0.45566  0.00000  0.08867
      18     H     0.44973  0.44973  0.00000  0.10053
      19     H     0.45493  0.45493  0.00000  0.09014

   Total alpha = 25.00000, Total beta = 25.00000, Total charge =  0.00000

*** Psi4 exiting successfully. Buy a developer a beer!
