  ==> Input File <==

--------------------------------------------------------------------------
set {
	reference rhf
	basis 6-31G*
}

set_num_threads( 4 )
memory 2 gb

molecule MOL {
0 1

O	 2.776200	 1.491645	 0.752453
C	 2.710373	 0.372247	 1.159111
C	 1.414795	 -0.419105	 1.145718
C	 3.926449	 -0.336397	 1.719593
C	 0.225250	 0.345219	 0.572109
H	 1.590181	 -1.335924	 0.584407
H	 1.210064	 -0.740552	 2.166090
C	 -1.060502	 -0.483392	 0.574792
H	 0.459365	 0.660286	 -0.439846
H	 0.078624	 1.256217	 1.143713
C	 -2.259874	 0.272531	 0.000494
H	 -0.905346	 -1.397046	 0.002768
H	 -1.288525	 -0.797411	 1.592370
C	 -3.549786	 -0.549746	 -0.000374
H	 -2.033317	 0.586313	 -1.016970
H	 -2.416454	 1.185633	 0.572092
C	 -4.809590	 0.315458	 -0.000369
H	 -3.560515	 -1.202009	 -0.871156
H	 -3.561123	 -1.202955	 0.869711
H	 -4.844746	 0.956611	 -0.876632
H	 -5.706986	 -0.295590	 -0.001609
H	 -4.845960	 0.954827	 0.877144
H	 4.132995	 -1.239973	 1.153459
H	 4.783869	 0.320701	 1.676140
H	 3.750040	 -0.634469	 2.748994

	symmetry c1
}
set optking {
	frozen_dihedral = ("
		15 11 14 18
	")
}

ee = optimize('scf')
oeprop('DIPOLE', 'QUADRUPOLE', 'MULLIKEN_CHARGES')
f=open( 'psi4out.xyz', 'w' )
f.write( "25  " )
f.write( str(ee) + "\n" )
f.write( MOL.save_string_xyz() )
f.close()
--------------------------------------------------------------------------

    Molecular point group: c1
  Charge       = 0
  Multiplicity = 1
  Basis Set: 6-31G*
  Basis Set:
  @DF-RHF Final Energy:  -387.13451994068112
    Total Energy =                       -387.1345199406805477
    Molecular point group: c1
  Basis Set: 6-31G*
  Basis Set:
  Basis Set: 6-31G*
  Basis Set:
  @DF-RHF Final Energy:  -387.13470607107888
    Total Energy =                       -387.1347060710794494
  Basis Set: 6-31G*
  Basis Set:
  Basis Set: 6-31G*
  Basis Set:
  @DF-RHF Final Energy:  -387.13477174726961
    Total Energy =                       -387.1347717472697241
  Basis Set: 6-31G*
  Basis Set:
  Charge       = 0
  Multiplicity = 1
  Basis Set: 6-31G*
  Basis Set:

    Orbital Energies (a.u.)
    -----------------------

    Doubly Occupied:

       1A    -20.550438     2A    -11.326270     3A    -11.231836
       4A    -11.228324     5A    -11.216960     6A    -11.216356
       7A    -11.215366     8A    -11.213517     9A    -11.208155
      10A     -1.395738    11A     -1.093223    12A     -1.055815
      13A     -1.014331    14A     -0.969062    15A     -0.890245
      16A     -0.814128    17A     -0.790414    18A     -0.729851
      19A     -0.661106    20A     -0.651956    21A     -0.631440
      22A     -0.623920    23A     -0.597169    24A     -0.584566
      25A     -0.567386    26A     -0.559808    27A     -0.537679
      28A     -0.526181    29A     -0.513986    30A     -0.489414
      31A     -0.487210    32A     -0.474496    33A     -0.463188
      34A     -0.461561    35A     -0.449518    36A     -0.399256

  @DF-RHF Final Energy:  -387.13477090739241

   => Energetics <=

    Nuclear Repulsion Energy =            438.3721566865443720
    One-Electron Energy =               -1393.3341140787279073
    Two-Electron Energy =                 567.8271864847906727
    DFT Exchange-Correlation Energy =       0.0000000000000000
    Empirical Dispersion Energy =           0.0000000000000000
    PCM Polarization Energy =               0.0000000000000000
    EFP Energy =                            0.0000000000000000
    Total Energy =                       -387.1347709073928627
    Molecular point group: c1
  Basis Set: 6-31G*
  Basis Set:

  -Total Gradient:
     Atom            X                  Y                   Z
    ------   -----------------  -----------------  -----------------
       1       -0.000061018245     0.000107554390     0.000279654245
       2        0.000187446317    -0.000326081000    -0.000858615100
       3       -0.000048957481     0.000064655601     0.000178419919
       4       -0.000062416206     0.000106452762     0.000274429059
       5       -0.000016289331    -0.000005514425    -0.000000672483
       6        0.000046677900     0.000009087467     0.000006881541
       7       -0.000052630839    -0.000005584434    -0.000014398928
       8       -0.000034488193    -0.000033284128     0.000235345386
       9       -0.000009797008     0.000043655676    -0.000002211337
      10        0.000009797296    -0.000018496907     0.000038507100
      11       -0.003275701144     0.004884388305    -0.000057366566
      12       -0.000004181978    -0.000005767284     0.000065825503
      13        0.000077735466    -0.000023220559     0.000088600963
      14        0.002936069419    -0.004585054871     0.002317283579
      15        0.002090151967    -0.003281893325    -0.000598325708
      16       -0.000018526476    -0.000178316646     0.000097505513
      17       -0.000014126804     0.000140001309     0.000136677667
      18       -0.001682777534     0.002857388006    -0.002190136653
      19        0.000001968979     0.000166631870    -0.000005030864
      20        0.000001413133    -0.000024134743    -0.000004334019
      21        0.000022776093    -0.000007134507     0.000009911034
      22       -0.000090843674     0.000111355540    -0.000007125084
      23       -0.000041295520     0.000031100270    -0.000021403788
      24       -0.000002687915     0.000003530283     0.000009336600
      25        0.000041701782    -0.000031318648     0.000021242419

  **** Optimization is complete! (in 4 steps) ****
    Final optimized geometry and variables:
    Molecular point group: c1

    Geometry (in Angstrom), charge = 0, multiplicity = 1:

    O            2.862909607607     1.361988766515     0.061962490183
    C            2.795100708364     0.245725454320     0.476823113403
    C            1.492183451573    -0.533395201821     0.495325817505
    C            4.014389120185    -0.468324395432     1.023300350738
    C            0.298481249195     0.237865862215    -0.060047055496
    H            1.647751487329    -1.455853776042    -0.062626811490
    H            1.304983001474    -0.845555761311     1.521891108950
    C           -0.993536182828    -0.580025267537    -0.030323269808
    H            0.517032780713     0.546513534950    -1.077450332893
    H            0.169548530786     1.152834805806     0.509726642785
    C           -2.197538878517     0.180848134045    -0.593786159147
    H           -0.854681567128    -1.499768778088    -0.597303298709
    H           -1.208427891016    -0.884529919572     0.992971834336
    C           -3.472818087640    -0.670303912128    -0.644354751636
    H           -1.948805377913     0.509057111736    -1.600659317820
    H           -2.367809849266     1.073620538917     0.003244987267
    C           -4.745718818568     0.175704762535    -0.720253650831
    H           -3.439130530505    -1.310687187758    -1.522423417372
    H           -3.523829810579    -1.318791617091     0.226451178299
    H           -4.728246365459     0.830501461983    -1.587166863232
    H           -5.630503098484    -0.449019732288    -0.796367127996
    H           -4.855661232865     0.800674135001     0.161502447598
    H            4.204003026368    -1.378365975970     0.461621195235
    H            4.876392173576     0.181109878881     0.960003426277
    H            3.852660099149    -0.756183055714     2.058014442628

  Mulliken Charges: (a.u.)
   Center  Symbol    Alpha    Beta     Spin     Total
       1     O     4.26116  4.26116  0.00000 -0.52233
       2     C     2.73571  2.73571  0.00000  0.52858
       3     C     3.21079  3.21079  0.00000 -0.42158
       4     C     3.28663  3.28663  0.00000 -0.57325
       5     C     3.14819  3.14819  0.00000 -0.29638
       6     H     0.41002  0.41002  0.00000  0.17995
       7     H     0.41000  0.41000  0.00000  0.18000
       8     C     3.15497  3.15497  0.00000 -0.30994
       9     H     0.41226  0.41226  0.00000  0.17547
      10     H     0.41229  0.41229  0.00000  0.17543
      11     C     3.15143  3.15143  0.00000 -0.30285
      12     H     0.42497  0.42497  0.00000  0.15007
      13     H     0.42486  0.42486  0.00000  0.15027
      14     C     3.15230  3.15230  0.00000 -0.30459
      15     H     0.42124  0.42124  0.00000  0.15752
      16     H     0.42151  0.42151  0.00000  0.15699
      17     C     3.23973  3.23973  0.00000 -0.47945
      18     H     0.42202  0.42202  0.00000  0.15596
      19     H     0.42276  0.42276  0.00000  0.15449
      20     H     0.42131  0.42131  0.00000  0.15737
      21     H     0.42018  0.42018  0.00000  0.15964
      22     H     0.42177  0.42177  0.00000  0.15645
      23     H     0.40880  0.40880  0.00000  0.18241
      24     H     0.39647  0.39647  0.00000  0.20706
      25     H     0.40865  0.40865  0.00000  0.18270

   Total alpha = 36.00000, Total beta = 36.00000, Total charge = -0.00000
