                              Psi4 1.0.54 Driver

  ==> Input File <==

--------------------------------------------------------------------------
set {
	reference rhf
	basis cc-pvtz
}

set_num_threads( 4 )
memory 2 gb

molecule MOL {
0 1

H	 -2.816458	 -0.841657	 -0.064679
N	 -1.878861	 -0.711874	 0.250184
C	 -1.341419	 0.551458	 -0.220231
H	 -1.333674	 -1.468530	 -0.105118
C	 0.082190	 0.731516	 0.254705
H	 -1.357065	 0.652078	 -1.304747
H	 -1.939897	 1.357530	 0.189797
O	 0.881195	 -0.248324	 -0.336237
H	 0.440901	 1.722476	 -0.020063
H	 0.119896	 0.643586	 1.338114
C	 0.449074	 -0.666062	 -1.588430
H	 1.136553	 -1.420540	 -1.942723
H	 -0.548654	 -1.097361	 -1.541364
H	 0.434764	 0.156751	 -2.299299

	symmetry c1
}
set optking {
	frozen_dihedral = ("
		11 8 5 3
	")
}

ee,wfn = optimize('scf', return_wfn=True)
oeprop( wfn, 'DIPOLE', 'QUADRUPOLE', 'MULLIKEN_CHARGES')
f=open( 'psi4out.xyz', 'w' )
f.write( "14  " )
f.write( str(ee) + "\n" )
f.write( MOL.save_string_xyz() )
f.close()
--------------------------------------------------------------------------

    Molecular point group: c1
  Charge       = 0
  Multiplicity = 1
  Basis Set: CC-PVTZ
  Basis Set:
  @DF-RHF Final Energy:  -248.20130854360204
    Total Energy =                       -248.2013085436018969
    Molecular point group: c1
  Basis Set: CC-PVTZ
  Basis Set:
  Basis Set: CC-PVTZ
  Basis Set:
  @DF-RHF Final Energy:  -248.14525516999086
    Total Energy =                       -248.1452551699908327
  Basis Set: CC-PVTZ
  Basis Set:
  Basis Set: CC-PVTZ
  Basis Set:
  @DF-RHF Final Energy:  -248.13898890087006
    Total Energy =                       -248.1389889008702312
  Basis Set: CC-PVTZ
  Basis Set:
  Basis Set: CC-PVTZ
  Basis Set:
  @DF-RHF Final Energy:  -248.13773903693343
    Total Energy =                       -248.1377390369335103
  Basis Set: CC-PVTZ
  Basis Set:
  @DF-RHF Final Energy:  -248.14279439062059
    Total Energy =                       -248.1427943906206792
  @DF-RHF Final Energy:  -248.16265549686210
    Total Energy =                       -248.1626554968621576
  @DF-RHF Final Energy:  -248.19707714902376
    Total Energy =                       -248.1970771490234711
  @DF-RHF Final Energy:  -248.13199264684755
    Total Energy =                       -248.1319926468476069
  @DF-RHF Final Energy:  -248.11737715217285
    Total Energy =                       -248.1173771521728781
  @DF-RHF Final Energy:  -248.12070056674060
    Total Energy =                       -248.1207005667405951
  @DF-RHF Final Energy:  -248.15998777919216
    Total Energy =                       -248.1599877791921926
  @DF-RHF Final Energy:  -248.14239209437341
    Total Energy =                       -248.1423920943731787
  @DF-RHF Final Energy:  -248.19353370091960
    Total Energy =                       -248.1935337009195450
  @DF-RHF Final Energy:  -248.20938890629625
    Total Energy =                       -248.2093889062963399
  @DF-RHF Final Energy:  -248.21409366100332
    Total Energy =                       -248.2140936610034032
  @DF-RHF Final Energy:  -248.21119522556617
    Total Energy =                       -248.2111952255662572
  @DF-RHF Final Energy:  -248.21539403771803
    Total Energy =                       -248.2153940377181698
  @DF-RHF Final Energy:  -248.21578660760946
    Total Energy =                       -248.2157866076096298
  Basis Set: CC-PVTZ
  Basis Set:
  @DF-RHF Final Energy:  -248.21584100777048
    Total Energy =                       -248.2158410077703365
  Basis Set: CC-PVTZ
  Basis Set:
  Basis Set: CC-PVTZ
  Basis Set:
  @DF-RHF Final Energy:  -248.21587639877691
    Total Energy =                       -248.2158763987767998
  Basis Set: CC-PVTZ
  Basis Set:
  Basis Set: CC-PVTZ
  Basis Set:
  @DF-RHF Final Energy:  -248.21588036136015
    Total Energy =                       -248.2158803613603482
  Basis Set: CC-PVTZ
  Basis Set:
  Charge       = 0
  Multiplicity = 1
  Basis Set: CC-PVTZ
  Basis Set:

    Orbital Energies (a.u.)
    -----------------------

    Doubly Occupied:

       1A    -20.546615     2A    -15.532698     3A    -11.265305
       4A    -11.265183     5A    -11.246967     6A     -1.376464
       7A     -1.182938     8A     -1.002007     9A     -0.925667
      10A     -0.805854    11A     -0.689291    12A     -0.677505
      13A     -0.649056    14A     -0.617469    15A     -0.604501
      16A     -0.546348    17A     -0.539085    18A     -0.523868
      19A     -0.455546    20A     -0.413387    21A     -0.391122

  @DF-RHF Final Energy:  -248.21588116366320

   => Energetics <=

    Nuclear Repulsion Energy =            197.3398961455883409
    One-Electron Energy =                -728.5978010410599381
    Two-Electron Energy =                 283.0420237318084560
    DFT Exchange-Correlation Energy =       0.0000000000000000
    Empirical Dispersion Energy =           0.0000000000000000
    PCM Polarization Energy =               0.0000000000000000
    EFP Energy =                            0.0000000000000000
    Total Energy =                       -248.2158811636631413
    Molecular point group: c1
  Basis Set: CC-PVTZ
  Basis Set:

  -Total Gradient:
     Atom            X                  Y                   Z
    ------   -----------------  -----------------  -----------------
       1        0.000001077205    -0.000012356693    -0.000014111294
       2       -0.000103229244    -0.000059920142    -0.000040079680
       3       -0.003554208653     0.000497709615    -0.003602431484
       4        0.000002612996     0.000020085770     0.000015326344
       5        0.008086110198     0.000005617588     0.006477173567
       6       -0.000015102921     0.000009711240    -0.000015521391
       7       -0.000017996520    -0.000003202155    -0.000001050943
       8       -0.009728844328    -0.001816112793    -0.004840186836
       9        0.000007572818    -0.000007034389     0.000015122676
      10       -0.000021964120     0.000027953533     0.000009147677
      11        0.005358950954     0.001329175188     0.001972617711
      12       -0.000003242866     0.000010730010     0.000038306705
      13       -0.000051121958     0.000002002958    -0.000018779823
      14        0.000039386435    -0.000004359731     0.000004466773

  **** Optimization is complete! (in 22 steps) ****
    Final optimized geometry and variables:
    Molecular point group: c1

    Geometry (in Angstrom), charge = 0, multiplicity = 1:

    H            2.553840050301    -0.056154273562    -0.943000706172
    N            1.861579329931    -0.261098742236    -0.254815300839
    C            0.606699278386    -0.668287307549    -0.863907670424
    H            1.750433968801     0.549165159824     0.315561494395
    C           -0.473658446833    -0.899910413330     0.177241095480
    H            0.248522824151     0.018091244761    -1.628101967895
    H            0.767528990803    -1.620826388558    -1.356206856685
    O           -0.996400191555     0.234995018777     0.818973931252
    H           -1.292835261020    -1.425071254142    -0.311174541064
    H           -0.085682194146    -1.537500742650     0.958815697834
    C           -1.039755486000     1.449834099339     0.146491093192
    H           -1.520529100307     2.155242401268     0.808955794837
    H           -0.054732775693     1.831988175853    -0.099811092156
    H           -1.622291599960     1.392656940839    -0.770478462855

  Mulliken Charges: (a.u.)
   Center  Symbol    Alpha    Beta     Spin     Total
       1     H     0.42934  0.42934  0.00000  0.14132
       2     N     3.69043  3.69043  0.00000 -0.38085
       3     C     3.05870  3.05870  0.00000 -0.11739
       4     H     0.42367  0.42367  0.00000  0.15265
       5     C     2.97093  2.97093  0.00000  0.05815
       6     H     0.45753  0.45753  0.00000  0.08494
       7     H     0.44568  0.44568  0.00000  0.10864
       8     O     4.18100  4.18100  0.00000 -0.36199
       9     H     0.46655  0.46655  0.00000  0.06689
      10     H     0.45322  0.45322  0.00000  0.09356
      11     C     3.03564  3.03564  0.00000 -0.07128
      12     H     0.44136  0.44136  0.00000  0.11728
      13     H     0.47593  0.47593  0.00000  0.04814
      14     H     0.47003  0.47003  0.00000  0.05993

   Total alpha = 21.00000, Total beta = 21.00000, Total charge = -0.00000

*** Psi4 exiting successfully. Buy a developer a beer!
