  ==> Input File <==

--------------------------------------------------------------------------
set {
	reference rhf
	basis 6-31G*
}

set_num_threads( 1 )
memory 2 gb

molecule MOL {
0 1

O	 0.074228	 1.262779	 -0.000085
C	 0.028650	 0.075053	 -0.000277
C	 -1.233602	 -0.752807	 0.000328
O	 1.109162	 -0.694619	 -0.000298
C	 -2.501530	 0.091881	 0.000126
H	 -1.193807	 -1.406641	 -0.865785
H	 -1.193516	 -1.405779	 0.867015
H	 -2.545121	 0.729328	 -0.874513
H	 -3.377167	 -0.548497	 0.000561
H	 -2.544818	 0.730135	 0.874258
C	 0.998302	 -1.957833	 -0.630845
H	 0.238197	 -2.556733	 -0.150251
H	 1.964780	 -2.425622	 -0.526176
H	 0.750131	 -1.840340	 -1.675871

	symmetry c1
}
set optking {
	frozen_dihedral = ("
		4 2 3 6
	")
}

ee = energy('scf')
oeprop('DIPOLE', 'QUADRUPOLE', 'MULLIKEN_CHARGES')
f=open( 'psi4out.xyz', 'w' )
f.write( "14  " )
f.write( str(ee) + "\n" )
f.write( MOL.save_string_xyz() )
f.close()
--------------------------------------------------------------------------

    Molecular point group: c1

    Geometry (in Angstrom), charge = 0, multiplicity = 1:

       Center              X                  Y                   Z               Mass
    ------------   -----------------  -----------------  -----------------  -----------------
           O          0.318776471881     1.606088290029     0.112839752869    15.994914619560
           C          0.273198471881     0.418362290029     0.112647752869    12.000000000000
           C         -0.989053528119    -0.409497709971     0.113252752869    12.000000000000
           O          1.353710471881    -0.351309709971     0.112626752869    15.994914619560
           C         -2.256981528119     0.435190290029     0.113050752869    12.000000000000
           H         -0.949258528119    -1.063331709971    -0.752860247131     1.007825032070
           H         -0.948967528119    -1.062469709971     0.979939752869     1.007825032070
           H         -2.300572528119     1.072637290029    -0.761588247131     1.007825032070
           H         -3.132618528119    -0.205187709971     0.113485752869     1.007825032070
           H         -2.300269528119     1.073444290029     0.987182752869     1.007825032070
           C          1.242850471881    -1.614523709971    -0.517920247131    12.000000000000
           H          0.482745471881    -2.213423709971    -0.037326247131     1.007825032070
           H          2.209328471881    -2.082312709971    -0.413251247131     1.007825032070
           H          0.994679471881    -1.497030709971    -1.562946247131     1.007825032070

  Charge       = 0
  Multiplicity = 1
  Basis Set: 6-31G*
  Basis Set:

    Orbital Energies (a.u.)
    -----------------------

    Doubly Occupied:

       1A    -20.603899     2A    -20.547923     3A    -11.375415
       4A    -11.298277     5A    -11.244781     6A    -11.220397
       7A     -1.468234     8A     -1.370493     9A     -1.065159
      10A     -0.988958    11A     -0.906456    12A     -0.766747
      13A     -0.707999    14A     -0.691961    15A     -0.677580
      16A     -0.626790    17A     -0.608734    18A     -0.564659
      19A     -0.552503    20A     -0.524129    21A     -0.516211
      22A     -0.499841    23A     -0.454680    24A     -0.432696

  @DF-RHF Final Energy:  -305.84635656255097

   => Energetics <=

    Nuclear Repulsion Energy =            250.0441861402526342
    One-Electron Energy =                -912.3519802896864803
    Two-Electron Energy =                 356.4614375868827665
    DFT Exchange-Correlation Energy =       0.0000000000000000
    Empirical Dispersion Energy =           0.0000000000000000
    PCM Polarization Energy =               0.0000000000000000
    EFP Energy =                            0.0000000000000000
    Total Energy =                       -305.8463565625511364

  Mulliken Charges: (a.u.)
   Center  Symbol    Alpha    Beta     Spin     Total
       1     O     4.26840  4.26840  0.00000 -0.53680
       2     C     2.59692  2.59692  0.00000  0.80617
       3     C     3.23938  3.23938  0.00000 -0.47875
       4     O     4.29938  4.29938  0.00000 -0.59875
       5     C     3.23497  3.23497  0.00000 -0.46993
       6     H     0.40228  0.40228  0.00000  0.19545
       7     H     0.39832  0.39832  0.00000  0.20336
       8     H     0.40891  0.40891  0.00000  0.18219
       9     H     0.41917  0.41917  0.00000  0.16167
      10     H     0.40757  0.40757  0.00000  0.18486
      11     C     3.10499  3.10499  0.00000 -0.20998
      12     H     0.41218  0.41218  0.00000  0.17564
      13     H     0.39666  0.39666  0.00000  0.20668
      14     H     0.41090  0.41090  0.00000  0.17821

   Total alpha = 24.00000, Total beta = 24.00000, Total charge =  0.00000
