  ==> Input File <==

--------------------------------------------------------------------------
set {
	reference rhf
	basis 6-31G*
}

set_num_threads( 1 )
memory 2 gb

molecule MOL {
0 1

H	 -2.337989	 -2.727877	 -0.074043
C	 -2.771575	 -1.799197	 -0.465425
C	 -2.642109	 -0.603082	 0.442958
O	 -3.294993	 -1.787557	 -1.532031
C	 -1.197339	 -0.369046	 0.905690
H	 -3.040688	 0.262874	 -0.072759
H	 -3.270409	 -0.792331	 1.312486
C	 -0.252658	 0.041456	 -0.226725
H	 -1.201656	 0.402833	 1.669541
H	 -0.822124	 -1.270174	 1.388329
C	 1.180775	 0.282413	 0.250794
H	 -0.634639	 0.944024	 -0.699281
H	 -0.248899	 -0.724333	 -1.000090
C	 2.148627	 -0.814315	 -0.201312
H	 1.516199	 1.249228	 -0.115937
H	 1.192670	 0.346017	 1.338083
C	 3.580890	 -0.659131	 0.322722
H	 2.166869	 -0.852443	 -1.289387
H	 1.762857	 -1.776509	 0.128956
C	 4.324889	 0.564933	 -0.213704
H	 4.142010	 -1.551473	 0.056605
H	 3.564836	 -0.624694	 1.410140
H	 4.342616	 0.565491	 -1.300421
H	 3.866655	 1.493402	 0.110242
H	 5.353900	 0.572371	 0.132816

	symmetry c1
}
set optking {
	frozen_dihedral = ("
		6 3 5 8,
		6 3 2 4,
		3 5 8 12,
		8 11 14 18,
		20 17 14 18
	")
}

ee = energy('scf')
oeprop('DIPOLE', 'QUADRUPOLE', 'MULLIKEN_CHARGES')
f=open( 'psi4out.xyz', 'w' )
f.write( "25  " )
f.write( str(ee) + "\n" )
f.write( MOL.save_string_xyz() )
f.close()
--------------------------------------------------------------------------

    Molecular point group: c1

    Geometry (in Angstrom), charge = 0, multiplicity = 1:

       Center              X                  Y                   Z               Mass
    ------------   -----------------  -----------------  -----------------  -----------------
           H         -2.464706282670    -2.155116604152     0.017324470794     1.007825032070
           C         -2.898292282670    -1.226436604152    -0.374057529206    12.000000000000
           C         -2.768826282670    -0.030321604152     0.534325470794    12.000000000000
           O         -3.421710282670    -1.214796604152    -1.440663529206    15.994914619560
           C         -1.324056282670     0.203714395848     0.997057470794    12.000000000000
           H         -3.167405282670     0.835634395848     0.018608470794     1.007825032070
           H         -3.397126282670    -0.219570604152     1.403853470794     1.007825032070
           C         -0.379375282670     0.614216395848    -0.135357529206    12.000000000000
           H         -1.328373282670     0.975593395848     1.760908470794     1.007825032070
           H         -0.948841282670    -0.697413604152     1.479696470794     1.007825032070
           C          1.054057717330     0.855173395848     0.342161470794    12.000000000000
           H         -0.761356282670     1.516784395848    -0.607913529206     1.007825032070
           H         -0.375616282670    -0.151572604152    -0.908722529206     1.007825032070
           C          2.021909717330    -0.241554604152    -0.109944529206    12.000000000000
           H          1.389481717330     1.821988395848    -0.024569529206     1.007825032070
           H          1.065952717330     0.918777395848     1.429450470794     1.007825032070
           C          3.454172717330    -0.086370604152     0.414089470794    12.000000000000
           H          2.040151717330    -0.279682604152    -1.198019529206     1.007825032070
           H          1.636139717330    -1.203748604152     0.220323470794     1.007825032070
           C          4.198171717330     1.137693395848    -0.122336529206    12.000000000000
           H          4.015292717330    -0.978712604152     0.147972470794     1.007825032070
           H          3.438118717330    -0.051933604152     1.501507470794     1.007825032070
           H          4.215898717330     1.138251395848    -1.209053529206     1.007825032070
           H          3.739937717330     2.066162395848     0.201609470794     1.007825032070
           H          5.227182717330     1.145131395848     0.224183470794     1.007825032070

  Charge       = 0
  Multiplicity = 1
  Basis Set: 6-31G*
  Basis Set:

    Orbital Energies (a.u.)
    -----------------------

    Doubly Occupied:

       1A    -20.561867     2A    -11.326073     3A    -11.235621
       4A    -11.234299     5A    -11.222452     6A    -11.218736
       7A    -11.218247     8A    -11.217845     9A    -11.210635
      10A     -1.401857    11A     -1.104655    12A     -1.069340
      13A     -1.013263    14A     -0.941490    15A     -0.877539
      16A     -0.820553    17A     -0.788604    18A     -0.782013
      19A     -0.665481    20A     -0.654151    21A     -0.631790
      22A     -0.625278    23A     -0.608205    24A     -0.592118
      25A     -0.577539    26A     -0.557073    27A     -0.529590
      28A     -0.524152    29A     -0.512704    30A     -0.496677
      31A     -0.490070    32A     -0.480134    33A     -0.464182
      34A     -0.451642    35A     -0.442716    36A     -0.409448

  @DF-RHF Final Energy:  -387.11684016752099

   => Energetics <=

    Nuclear Repulsion Energy =            442.2155113311307559
    One-Electron Energy =               -1400.7487777341880246
    Two-Electron Energy =                 571.4164262355380970
    DFT Exchange-Correlation Energy =       0.0000000000000000
    Empirical Dispersion Energy =           0.0000000000000000
    PCM Polarization Energy =               0.0000000000000000
    EFP Energy =                            0.0000000000000000
    Total Energy =                       -387.1168401675191717

  Mulliken Charges: (a.u.)
   Center  Symbol    Alpha    Beta     Spin     Total
       1     H     0.43275  0.43275  0.00000  0.13450
       2     C     2.83065  2.83065  0.00000  0.33871
       3     C     3.20862  3.20862  0.00000 -0.41724
       4     O     4.23786  4.23786  0.00000 -0.47573
       5     C     3.16862  3.16862  0.00000 -0.33724
       6     H     0.39966  0.39966  0.00000  0.20068
       7     H     0.40688  0.40688  0.00000  0.18624
       8     C     3.15765  3.15765  0.00000 -0.31530
       9     H     0.41211  0.41211  0.00000  0.17578
      10     H     0.41944  0.41944  0.00000  0.16112
      11     C     3.15737  3.15737  0.00000 -0.31474
      12     H     0.41576  0.41576  0.00000  0.16848
      13     H     0.41568  0.41568  0.00000  0.16863
      14     C     3.15506  3.15506  0.00000 -0.31013
      15     H     0.41650  0.41650  0.00000  0.16701
      16     H     0.42181  0.42181  0.00000  0.15639
      17     C     3.15307  3.15307  0.00000 -0.30614
      18     H     0.42131  0.42131  0.00000  0.15739
      19     H     0.42357  0.42357  0.00000  0.15286
      20     C     3.24132  3.24132  0.00000 -0.48264
      21     H     0.42036  0.42036  0.00000  0.15928
      22     H     0.42352  0.42352  0.00000  0.15297
      23     H     0.42151  0.42151  0.00000  0.15699
      24     H     0.42025  0.42025  0.00000  0.15950
      25     H     0.41869  0.41869  0.00000  0.16262

   Total alpha = 36.00000, Total beta = 36.00000, Total charge = -0.00000
