                              Psi4 1.0.54 Driver

  ==> Input File <==

--------------------------------------------------------------------------
set {
	reference rhf
	basis cc-pvtz
}

set_num_threads( 4 )
memory 2 gb

molecule MOL {
0 1

H	 1.201194	 -2.272544	 -2.200193
O	 1.023410	 -1.974985	 -1.320655
C	 0.027543	 -1.094812	 -1.367181
C	 -0.318151	 -0.570512	 0.000144
O	 -0.495508	 -0.789367	 -2.382607
C	 -1.454884	 0.441630	 -0.000560
H	 -0.554777	 -1.428323	 0.621481
H	 0.588355	 -0.144589	 0.418158
C	 -2.822577	 -0.232186	 0.000063
H	 -1.359760	 1.084704	 -0.867077
H	 -1.359641	 1.085996	 0.864983
H	 -2.954352	 -0.858985	 -0.875745
H	 -3.615886	 0.505352	 0.000019
H	 -2.953878	 -0.858359	 0.876394

	symmetry c1
}
set optking {
	frozen_dihedral = ("
		7 4 6 10
	")
}

ee,wfn = optimize('scf', return_wfn=True)
oeprop( wfn, 'DIPOLE', 'QUADRUPOLE', 'MULLIKEN_CHARGES')
f=open( 'psi4out.xyz', 'w' )
f.write( "14  " )
f.write( str(ee) + "\n" )
f.write( MOL.save_string_xyz() )
f.close()
--------------------------------------------------------------------------

    Molecular point group: c1
  Charge       = 0
  Multiplicity = 1
  Basis Set: CC-PVTZ
  Basis Set:
  @DF-RHF Final Energy:  -305.99945906246705
    Total Energy =                       -305.9994590624669968
    Molecular point group: c1
  Basis Set: CC-PVTZ
  Basis Set:
  Basis Set: CC-PVTZ
  Basis Set:
  @DF-RHF Final Energy:  -305.99967983373358
    Total Energy =                       -305.9996798337338646
  Basis Set: CC-PVTZ
  Basis Set:
  Basis Set: CC-PVTZ
  Basis Set:
  @DF-RHF Final Energy:  -305.99943642461307
    Total Energy =                       -305.9994364246133500
  Basis Set: CC-PVTZ
  Basis Set:
  Basis Set: CC-PVTZ
  Basis Set:
  @DF-RHF Final Energy:  -305.99973178508651
    Total Energy =                       -305.9997317850865670
  Basis Set: CC-PVTZ
  Basis Set:
  Basis Set: CC-PVTZ
  Basis Set:
  @DF-RHF Final Energy:  -305.99973644865486
    Total Energy =                       -305.9997364486548577
  Basis Set: CC-PVTZ
  Basis Set:
  Basis Set: CC-PVTZ
  Basis Set:
  @DF-RHF Final Energy:  -305.99973923072946
    Total Energy =                       -305.9997392307294604
  Basis Set: CC-PVTZ
  Basis Set:
  Charge       = 0
  Multiplicity = 1
  Basis Set: CC-PVTZ
  Basis Set:

    Orbital Energies (a.u.)
    -----------------------

    Doubly Occupied:

       1A    -20.605066     2A    -20.541809     3A    -11.374724
       4A    -11.240008     5A    -11.223442     6A    -11.209876
       7A     -1.478851     8A     -1.370293     9A     -1.082595
      10A     -0.977691    11A     -0.861598    12A     -0.789528
      13A     -0.706041    14A     -0.695832    15A     -0.662347
      16A     -0.613627    17A     -0.598660    18A     -0.566921
      19A     -0.559516    20A     -0.496061    21A     -0.491071
      22A     -0.486711    23A     -0.481326    24A     -0.447415

  @DF-RHF Final Energy:  -305.99974012435860

   => Energetics <=

    Nuclear Repulsion Energy =            244.3208826049067284
    One-Electron Energy =                -901.5192275570313996
    Two-Electron Energy =                 351.1986048277661325
    DFT Exchange-Correlation Energy =       0.0000000000000000
    Empirical Dispersion Energy =           0.0000000000000000
    PCM Polarization Energy =               0.0000000000000000
    EFP Energy =                            0.0000000000000000
    Total Energy =                       -305.9997401243585387
    Molecular point group: c1
  Basis Set: CC-PVTZ
  Basis Set:

  -Total Gradient:
     Atom            X                  Y                   Z
    ------   -----------------  -----------------  -----------------
       1       -0.000013152816     0.000012836834     0.000002989255
       2        0.000018106397    -0.000005006986     0.000052662451
       3       -0.000000936621    -0.000017435427    -0.000115611482
       4        0.000966861873     0.001108236115     0.002274941581
       5       -0.000035810220     0.000027964854     0.000051108789
       6        0.001543713507     0.001738784559     0.001109285706
       7       -0.001047332452    -0.001193402472    -0.002017745335
       8       -0.000025456822     0.000024064125     0.000000104529
       9       -0.000023517203    -0.000086881533    -0.000018593568
      10       -0.001399532104    -0.001622313589    -0.001334359774
      11       -0.000000354644    -0.000012920480    -0.000019665128
      12        0.000005574825     0.000000510023     0.000012043268
      13        0.000023393682     0.000023728347     0.000008859280
      14       -0.000011557398     0.000001835627    -0.000006019573

  **** Optimization is complete! (in 7 steps) ****
    Final optimized geometry and variables:
    Molecular point group: c1

    Geometry (in Angstrom), charge = 0, multiplicity = 1:

    H            1.820438348305    -1.575475241460    -1.320985734371
    O            1.638943970123    -1.280261993164    -0.441387835338
    C            0.684167935468    -0.356406377260    -0.496284148334
    C            0.349057283147     0.176816229789     0.873408413149
    O            0.193361562575    -0.020476977421    -1.518410088663
    C           -0.809059926151     1.170995764529     0.882007395607
    H            0.135992712519    -0.686810763857     1.494200139448
    H            1.259837940482     0.618211970754     1.262341785667
    C           -2.177738401733     0.495175434738     0.865958246325
    H           -0.727835238908     1.813477891684     0.015199551604
    H           -0.724566523118     1.795601651862     1.763735957338
    H           -2.296502260578    -0.122948272848    -0.015622885390
    H           -2.970800949734     1.233438024307     0.860782783551
    H           -2.315722171119    -0.132289782422     1.740682189271

  Mulliken Charges: (a.u.)
   Center  Symbol    Alpha    Beta     Spin     Total
       1     H     0.38224  0.38224  0.00000  0.23552
       2     O     4.15983  4.15983  0.00000 -0.31966
       3     C     2.80432  2.80432  0.00000  0.39135
       4     C     3.11163  3.11163  0.00000 -0.22326
       5     O     4.19252  4.19252  0.00000 -0.38504
       6     C     3.08589  3.08589  0.00000 -0.17178
       7     H     0.43886  0.43886  0.00000  0.12228
       8     H     0.43113  0.43113  0.00000  0.13775
       9     C     3.15026  3.15026  0.00000 -0.30052
      10     H     0.44410  0.44410  0.00000  0.11180
      11     H     0.44678  0.44678  0.00000  0.10645
      12     H     0.44695  0.44695  0.00000  0.10610
      13     H     0.44771  0.44771  0.00000  0.10458
      14     H     0.45779  0.45779  0.00000  0.08442

   Total alpha = 24.00000, Total beta = 24.00000, Total charge =  0.00000

*** Psi4 exiting successfully. Buy a developer a beer!
