  ==> Input File <==

--------------------------------------------------------------------------
set {
	reference rhf
	basis cc-pvtz
}

set_num_threads( 4 )
memory 2 gb

molecule MOL {
0 1

H	 -3.144994	 -1.202467	 -0.018751
O	 -2.321472	 -0.864941	 -0.318626
C	 -2.021813	 0.336996	 0.342658
C	 -0.669613	 0.837286	 -0.127252
H	 -2.780861	 1.084746	 0.127159
H	 -2.006390	 0.184138	 1.420053
C	 0.490865	 -0.082543	 0.241244
H	 -0.708709	 0.967192	 -1.204587
H	 -0.507562	 1.822272	 0.303070
C	 1.839800	 0.429565	 -0.255472
H	 0.305636	 -1.070211	 -0.165276
H	 0.527397	 -0.195943	 1.322876
C	 1.712449	 1.546874	 -1.285612
H	 2.420879	 0.785786	 0.590789
H	 2.403541	 -0.394072	 -0.686178
H	 1.183619	 2.399563	 -0.873089
H	 2.686115	 1.889847	 -1.616743
H	 1.164834	 1.212129	 -2.160546

	symmetry c1
}
set optking {
	frozen_dihedral = ("
		14 10 7 11
	")
}

ee = optimize('scf')
oeprop('DIPOLE', 'QUADRUPOLE', 'MULLIKEN_CHARGES')
f=open( 'psi4out.xyz', 'w' )
f.write( "18  " )
f.write( str(ee) + "\n" )
f.write( MOL.save_string_xyz() )
f.close()
--------------------------------------------------------------------------

    Molecular point group: c1
  Charge       = 0
  Multiplicity = 1
  Basis Set: CC-PVTZ
  Basis Set:
  @DF-RHF Final Energy:  -271.27383448328476
    Total Energy =                       -271.2738344832847588
    Molecular point group: c1
  Basis Set: CC-PVTZ
  Basis Set:
  Basis Set: CC-PVTZ
  Basis Set:
  @DF-RHF Final Energy:  -271.27486577212585
    Total Energy =                       -271.2748657721259633
  Basis Set: CC-PVTZ
  Basis Set:
  Basis Set: CC-PVTZ
  Basis Set:
  @DF-RHF Final Energy:  -271.27778107170263
    Total Energy =                       -271.2777810717028615
  Basis Set: CC-PVTZ
  Basis Set:
  Basis Set: CC-PVTZ
  Basis Set:
  @DF-RHF Final Energy:  -271.27815221896560
    Total Energy =                       -271.2781522189654879
  Basis Set: CC-PVTZ
  Basis Set:
  Basis Set: CC-PVTZ
  Basis Set:
  @DF-RHF Final Energy:  -271.27819920660443
    Total Energy =                       -271.2781992066047678
  Basis Set: CC-PVTZ
  Basis Set:
  Basis Set: CC-PVTZ
  Basis Set:
  @DF-RHF Final Energy:  -271.27820419272030
    Total Energy =                       -271.2782041927205228
  Basis Set: CC-PVTZ
  Basis Set:
  Charge       = 0
  Multiplicity = 1
  Basis Set: CC-PVTZ
  Basis Set:

    Orbital Energies (a.u.)
    -----------------------

    Doubly Occupied:

       1A    -20.545998     2A    -11.265707     3A    -11.210172
       4A    -11.209534     5A    -11.205150     6A    -11.203130
       7A     -1.363899     8A     -1.072961     9A     -1.006604
      10A     -0.916426    11A     -0.834852    12A     -0.766121
      13A     -0.707795    14A     -0.641604    15A     -0.619376
      16A     -0.602558    17A     -0.561102    18A     -0.552647
      19A     -0.530533    20A     -0.510349    21A     -0.490724
      22A     -0.465814    23A     -0.451032    24A     -0.444020
      25A     -0.429854

  @DF-RHF Final Energy:  -271.27820513962615

   => Energetics <=

    Nuclear Repulsion Energy =            252.2153739175839462
    One-Electron Energy =                -867.7712307476159594
    Two-Electron Energy =                 344.2776516904058894
    DFT Exchange-Correlation Energy =       0.0000000000000000
    Empirical Dispersion Energy =           0.0000000000000000
    PCM Polarization Energy =               0.0000000000000000
    EFP Energy =                            0.0000000000000000
    Total Energy =                       -271.2782051396260954
    Molecular point group: c1
  Basis Set: CC-PVTZ
  Basis Set:

  -Total Gradient:
     Atom            X                  Y                   Z
    ------   -----------------  -----------------  -----------------
       1        0.000001790125    -0.000003360911     0.000000723039
       2        0.000020134679    -0.000012958677     0.000014523620
       3       -0.000017625226     0.000021654190    -0.000049792199
       4       -0.000003424851     0.000028887754     0.000077564953
       5       -0.000001966380     0.000006510123     0.000002221751
       6        0.000005069306    -0.000001995180    -0.000011187289
       7       -0.002249258135     0.001611181753    -0.005113430372
       8        0.000016087284     0.000007062928    -0.000007328277
       9       -0.000015715017    -0.000001679792     0.000010356666
      10       -0.001938760564     0.005391300841     0.000203396055
      11        0.002201437936    -0.002246976119     0.004264953738
      12       -0.000003095294     0.000009170759    -0.000016533005
      13       -0.000009618563    -0.000003624954    -0.000012671902
      14        0.002009774121    -0.004812196804     0.000656203982
      15       -0.000003781271     0.000009364851    -0.000006387357
      16       -0.000000411594    -0.000004749968    -0.000005922330
      17       -0.000007011365     0.000002212221     0.000004324526
      18       -0.000003625193     0.000000196988    -0.000011015600

  **** Optimization is complete! (in 7 steps) ****
    Final optimized geometry and variables:
    Molecular point group: c1

    Geometry (in Angstrom), charge = 0, multiplicity = 1:

    H           -2.920937770726    -1.622988587776     0.249662101429
    O           -2.122562564571    -1.241946588023    -0.065431668528
    C           -1.836031820236    -0.064588652676     0.644115299219
    C           -0.525808280453     0.512117724185     0.141838018496
    H           -2.630270646545     0.663689486939     0.500655666285
    H           -1.766675392706    -0.271102202134     1.710289307300
    C            0.671940728591    -0.390895356590     0.426271729185
    H           -0.625222846482     0.695502211036    -0.921654084105
    H           -0.385577472068     1.478621175475     0.618124257697
    C            2.059922697066     0.131365079995    -0.016548446268
    H            0.499936596194    -1.372054735782     0.003333395375
    H            0.709412924422    -0.561051974944     1.499487646189
    C            2.086856748806     1.199722235067    -1.106245199656
    H            2.608863629258     0.477327303167     0.853375230679
    H            2.633359812893    -0.719006233824    -0.372560936693
    H            1.590834555417     2.112256085965    -0.798299787471
    H            3.111494092893     1.452990869230    -1.353648663844
    H            1.607740588103     0.853053648270    -2.015160441067

  Mulliken Charges: (a.u.)
   Center  Symbol    Alpha    Beta     Spin     Total
       1     H     0.39562  0.39562  0.00000  0.20876
       2     O     4.19875  4.19875  0.00000 -0.39750
       3     C     2.97549  2.97549  0.00000  0.04902
       4     C     3.09282  3.09282  0.00000 -0.18564
       5     H     0.46504  0.46504  0.00000  0.06992
       6     H     0.47330  0.47330  0.00000  0.05339
       7     C     3.09616  3.09616  0.00000 -0.19231
       8     H     0.44950  0.44950  0.00000  0.10100
       9     H     0.45277  0.45277  0.00000  0.09445
      10     C     3.08786  3.08786  0.00000 -0.17571
      11     H     0.44190  0.44190  0.00000  0.11620
      12     H     0.45744  0.45744  0.00000  0.08513
      13     C     3.15683  3.15683  0.00000 -0.31366
      14     H     0.45310  0.45310  0.00000  0.09380
      15     H     0.45233  0.45233  0.00000  0.09533
      16     H     0.45378  0.45378  0.00000  0.09244
      17     H     0.44559  0.44559  0.00000  0.10883
      18     H     0.45172  0.45172  0.00000  0.09655

   Total alpha = 25.00000, Total beta = 25.00000, Total charge = -0.00000
