  ==> Input File <==

--------------------------------------------------------------------------
set {
	reference rhf
	basis 6-31G*
}

set_num_threads( 1 )
memory 2 gb

molecule MOL {
0 1

H	 -3.420663	 1.227371	 -1.044276
O	 -3.452007	 0.283848	 -0.965577
C	 -3.181085	 -0.079926	 0.364119
C	 -1.765924	 0.277073	 0.805136
H	 -3.327791	 -1.152017	 0.410903
H	 -3.905698	 0.375695	 1.036898
C	 -0.685430	 -0.575434	 0.138592
H	 -1.584101	 1.331370	 0.594515
H	 -1.707308	 0.169961	 1.886946
C	 0.731889	 -0.194035	 0.570934
H	 -0.776078	 -0.486801	 -0.939664
H	 -0.864959	 -1.623015	 0.374681
C	 1.807601	 -1.055595	 -0.095883
H	 0.901273	 0.855280	 0.341445
H	 0.818050	 -0.287699	 1.652788
C	 3.239259	 -0.770691	 0.372455
H	 1.751849	 -0.928331	 -1.175879
H	 1.583637	 -2.102687	 0.097135
C	 3.765212	 0.617270	 0.001856
H	 3.898345	 -1.519518	 -0.060158
H	 3.297798	 -0.902903	 1.451017
H	 3.707085	 0.782746	 -1.070701
H	 4.804537	 0.726904	 0.296171
H	 3.204675	 1.407961	 0.489472

	symmetry c1
}
set optking {
	frozen_dihedral = ("
		20 16 13 17,
		17 13 10 7,
		13 10 7 11,
		11 7 4 3,
		1 2 3 5
	")
}

ee = energy('scf')
oeprop('DIPOLE', 'QUADRUPOLE', 'MULLIKEN_CHARGES')
f=open( 'psi4out.xyz', 'w' )
f.write( "24  " )
f.write( str(ee) + "\n" )
f.write( MOL.save_string_xyz() )
f.close()
--------------------------------------------------------------------------

    Molecular point group: c1

    Geometry (in Angstrom), charge = 0, multiplicity = 1:

       Center              X                  Y                   Z               Mass
    ------------   -----------------  -----------------  -----------------  -----------------
           H         -3.422126455591     1.390807352014    -1.171880507336     1.007825032070
           O         -3.453470455591     0.447284352014    -1.093181507336    15.994914619560
           C         -3.182548455591     0.083510352014     0.236514492664    12.000000000000
           C         -1.767387455591     0.440509352014     0.677531492664    12.000000000000
           H         -3.329254455591    -0.988580647986     0.283298492664     1.007825032070
           H         -3.907161455591     0.539131352014     0.909293492664     1.007825032070
           C         -0.686893455591    -0.411997647986     0.010987492664    12.000000000000
           H         -1.585564455591     1.494806352014     0.466910492664     1.007825032070
           H         -1.708771455591     0.333397352014     1.759341492664     1.007825032070
           C          0.730425544409    -0.030598647986     0.443329492664    12.000000000000
           H         -0.777541455591    -0.323364647986    -1.067268507336     1.007825032070
           H         -0.866422455591    -1.459578647986     0.247076492664     1.007825032070
           C          1.806137544409    -0.892158647986    -0.223487507336    12.000000000000
           H          0.899809544409     1.018716352014     0.213840492664     1.007825032070
           H          0.816586544409    -0.124262647986     1.525183492664     1.007825032070
           C          3.237795544409    -0.607254647986     0.244850492664    12.000000000000
           H          1.750385544409    -0.764894647986    -1.303483507336     1.007825032070
           H          1.582173544409    -1.939250647986    -0.030469507336     1.007825032070
           C          3.763748544409     0.780706352014    -0.125748507336    12.000000000000
           H          3.896881544409    -1.356081647986    -0.187762507336     1.007825032070
           H          3.296334544409    -0.739466647986     1.323412492664     1.007825032070
           H          3.705621544409     0.946182352014    -1.198305507336     1.007825032070
           H          4.803073544409     0.890340352014     0.168566492664     1.007825032070
           H          3.203211544409     1.571397352014     0.361867492664     1.007825032070

  Charge       = 0
  Multiplicity = 1
  Basis Set: 6-31G*
  Basis Set:

    Orbital Energies (a.u.)
    -----------------------

    Doubly Occupied:

       1A    -20.552992     2A    -11.267466     3A    -11.217531
       4A    -11.214250     5A    -11.212814     6A    -11.211998
       7A    -11.211763     8A    -11.207470     9A     -1.359598
      10A     -1.088996    11A     -1.048683    12A     -0.985673
      13A     -0.914747    14A     -0.850339    15A     -0.802131
      16A     -0.776493    17A     -0.679632    18A     -0.652621
      19A     -0.624925    20A     -0.620162    21A     -0.596638
      22A     -0.584003    23A     -0.559248    24A     -0.539362
      25A     -0.515951    26A     -0.510705    27A     -0.497636
      28A     -0.474803    29A     -0.467070    30A     -0.459531
      31A     -0.456220    32A     -0.451355    33A     -0.418097

  @DF-RHF Final Energy:  -349.24719344950000

   => Energetics <=

    Nuclear Repulsion Energy =            383.8750821587759106
    One-Electron Energy =               -1234.1825496022245261
    Two-Electron Energy =                 501.0602739939499202
    DFT Exchange-Correlation Energy =       0.0000000000000000
    Empirical Dispersion Energy =           0.0000000000000000
    PCM Polarization Energy =               0.0000000000000000
    EFP Energy =                            0.0000000000000000
    Total Energy =                       -349.2471934494986385

  Mulliken Charges: (a.u.)
   Center  Symbol    Alpha    Beta     Spin     Total
       1     H     0.28335  0.28335  0.00000  0.43330
       2     O     4.36891  4.36891  0.00000 -0.73782
       3     C     2.99674  2.99674  0.00000  0.00652
       4     C     3.16632  3.16632  0.00000 -0.33263
       5     H     0.41616  0.41616  0.00000  0.16767
       6     H     0.42847  0.42847  0.00000  0.14305
       7     C     3.15339  3.15339  0.00000 -0.30679
       8     H     0.42800  0.42800  0.00000  0.14399
       9     H     0.42289  0.42289  0.00000  0.15421
      10     C     3.15371  3.15371  0.00000 -0.30742
      11     H     0.41194  0.41194  0.00000  0.17612
      12     H     0.42374  0.42374  0.00000  0.15252
      13     C     3.15235  3.15235  0.00000 -0.30470
      14     H     0.42254  0.42254  0.00000  0.15492
      15     H     0.42534  0.42534  0.00000  0.14933
      16     C     3.15233  3.15233  0.00000 -0.30465
      17     H     0.42344  0.42344  0.00000  0.15312
      18     H     0.42222  0.42222  0.00000  0.15556
      19     C     3.24106  3.24106  0.00000 -0.48211
      20     H     0.42104  0.42104  0.00000  0.15793
      21     H     0.42379  0.42379  0.00000  0.15242
      22     H     0.42217  0.42217  0.00000  0.15567
      23     H     0.41952  0.41952  0.00000  0.16096
      24     H     0.42057  0.42057  0.00000  0.15885

   Total alpha = 33.00000, Total beta = 33.00000, Total charge =  0.00000
