                              Psi4 1.0.54 Driver

  ==> Input File <==

--------------------------------------------------------------------------
set {
	reference rhf
	basis cc-pvtz
}

set_num_threads( 4 )
memory 2 gb

molecule MOL {
0 1

H	 -3.095538	 1.904914	 -0.182623
O	 -2.649335	 2.062816	 0.630041
C	 -1.272137	 1.961485	 0.438516
C	 -0.793473	 0.591216	 0.050087
H	 -0.810214	 2.248126	 1.375941
H	 -0.930523	 2.677416	 -0.306764
C	 -1.534243	 -0.493009	 -0.013340
H	 0.255810	 0.533112	 -0.188401
H	 -1.101195	 -1.466332	 -0.144046
H	 -2.604242	 -0.437780	 0.050785

	symmetry c1
}
set optking {
	frozen_dihedral = ("
		3 4 7 9
	")
}

ee,wfn = optimize('scf', return_wfn=True)
oeprop( wfn, 'DIPOLE', 'QUADRUPOLE', 'MULLIKEN_CHARGES')
f=open( 'psi4out.xyz', 'w' )
f.write( "10  " )
f.write( str(ee) + "\n" )
f.write( MOL.save_string_xyz() )
f.close()
--------------------------------------------------------------------------

    Molecular point group: c1
  Charge       = 0
  Multiplicity = 1
  Basis Set: CC-PVTZ
  Basis Set:
  @DF-RHF Final Energy:  -191.99599977159096
    Total Energy =                       -191.9959997715908457
    Molecular point group: c1
  Basis Set: CC-PVTZ
  Basis Set:
  Basis Set: CC-PVTZ
  Basis Set:
  @DF-RHF Final Energy:  -191.99732384188212
    Total Energy =                       -191.9973238418821495
  Basis Set: CC-PVTZ
  Basis Set:
  Basis Set: CC-PVTZ
  Basis Set:
  @DF-RHF Final Energy:  -191.99785803190775
    Total Energy =                       -191.9978580319076400
  Basis Set: CC-PVTZ
  Basis Set:
  Charge       = 0
  Multiplicity = 1
  Basis Set: CC-PVTZ
  Basis Set:

    Orbital Energies (a.u.)
    -----------------------

    Doubly Occupied:

       1A    -20.554586     2A    -11.278393     3A    -11.230110
       4A    -11.216226     5A     -1.374841     6A     -1.062162
       7A     -0.932045     8A     -0.771612     9A     -0.692094
      10A     -0.664918    11A     -0.621095    12A     -0.574250
      13A     -0.541170    14A     -0.495459    15A     -0.452913
      16A     -0.368317

  @DF-RHF Final Energy:  -191.99786033983528

   => Energetics <=

    Nuclear Repulsion Energy =            119.4974824116869456
    One-Electron Energy =                -497.3302984319664120
    Two-Electron Energy =                 185.8349556804441249
    DFT Exchange-Correlation Energy =       0.0000000000000000
    Empirical Dispersion Energy =           0.0000000000000000
    PCM Polarization Energy =               0.0000000000000000
    EFP Energy =                            0.0000000000000000
    Total Energy =                       -191.9978603398353130
    Molecular point group: c1
  Basis Set: CC-PVTZ
  Basis Set:

  -Total Gradient:
     Atom            X                  Y                   Z
    ------   -----------------  -----------------  -----------------
       1       -0.000047115033     0.000010062477     0.000020273854
       2        0.000021107393     0.000024829197    -0.000094958348
       3        0.001156178998    -0.000998781029     0.004683891504
       4       -0.001756747083     0.001250608608    -0.004805476044
       5        0.000052531786    -0.000017154062    -0.000022592836
       6       -0.000016652424     0.000027258324    -0.000001395963
       7       -0.000156583079     0.000457179500    -0.006200365759
       8        0.000016247251     0.000013238393    -0.000071964351
       9        0.000631882733    -0.000730261812     0.006472627898
      10        0.000099149457    -0.000036979595     0.000019960045

  **** Optimization is complete! (in 4 steps) ****
    Final optimized geometry and variables:
    Molecular point group: c1

    Geometry (in Angstrom), charge = 0, multiplicity = 1:

    H           -1.465584872148     0.863666517040    -0.493058344881
    O           -1.034718889632     0.977065106331     0.335088283859
    C            0.345424017554     0.868611386417     0.167701161900
    C            0.821294815700    -0.494856035216    -0.248088084987
    H            0.791706318681     1.108892858641     1.125330848547
    H            0.708625098653     1.612467893264    -0.539053145380
    C            0.087703353359    -1.584783164725    -0.293278643567
    H            1.879436898861    -0.558564163162    -0.442878643873
    H            0.533698427935    -2.548896271000    -0.447308873455
    H           -0.962332289557    -1.564798404098    -0.071954186247

  Mulliken Charges: (a.u.)
   Center  Symbol    Alpha    Beta     Spin     Total
       1     H     0.39102  0.39102  0.00000  0.21796
       2     O     4.19919  4.19919  0.00000 -0.39837
       3     C     2.95107  2.95107  0.00000  0.09787
       4     C     3.08614  3.08614  0.00000 -0.17228
       5     H     0.45312  0.45312  0.00000  0.09376
       6     H     0.46776  0.46776  0.00000  0.06447
       7     C     3.17538  3.17538  0.00000 -0.35075
       8     H     0.42372  0.42372  0.00000  0.15256
       9     H     0.42780  0.42780  0.00000  0.14441
      10     H     0.42481  0.42481  0.00000  0.15038

   Total alpha = 16.00000, Total beta = 16.00000, Total charge = -0.00000

*** Psi4 exiting successfully. Buy a developer a beer!
