                              Psi4 1.0.54 Driver

  ==> Input File <==

--------------------------------------------------------------------------
set {
	reference rhf
	basis cc-pvtz
}

set_num_threads( 4 )
memory 2 gb

molecule MOL {
0 1

H	 -3.090247	 1.042680	 -1.398977
C	 -2.449733	 1.526713	 -2.148870
C	 -1.462164	 2.517178	 -1.594271
O	 -2.575295	 1.261252	 -3.293890
C	 -0.619828	 1.938934	 -0.453316
H	 -0.842326	 2.876577	 -2.405423
H	 -2.042629	 3.357374	 -1.219524
C	 0.341739	 0.839050	 -0.898094
H	 -0.057370	 2.747215	 0.001286
H	 -1.278784	 1.556458	 0.322366
C	 1.181757	 0.280428	 0.247371
H	 0.998278	 1.232528	 -1.669611
H	 -0.214887	 0.029076	 -1.362353
C	 2.151032	 -0.811012	 -0.202643
H	 1.728488	 1.094921	 0.712162
H	 0.521986	 -0.121354	 1.013250
C	 3.580021	 -0.656538	 0.320835
H	 2.170545	 -0.847575	 -1.289412
H	 1.766632	 -1.772905	 0.124928
C	 4.327657	 0.562694	 -0.213579
H	 4.138806	 -1.549270	 0.057813
H	 3.561991	 -0.620783	 1.406976
H	 4.355973	 0.557257	 -1.298551
H	 3.867136	 1.491650	 0.100501
H	 5.351524	 0.571613	 0.142204

	symmetry c1
}
set optking {
	frozen_dihedral = ("
		8 11 14 18
	")
}

ee,wfn = optimize('scf', return_wfn=True)
oeprop( wfn, 'DIPOLE', 'QUADRUPOLE', 'MULLIKEN_CHARGES')
f=open( 'psi4out.xyz', 'w' )
f.write( "25  " )
f.write( str(ee) + "\n" )
f.write( MOL.save_string_xyz() )
f.close()
--------------------------------------------------------------------------

    Molecular point group: c1
  Charge       = 0
  Multiplicity = 1
  Basis Set: CC-PVTZ
  Basis Set:
  @DF-RHF Final Energy:  -387.25540127259131
    Total Energy =                       -387.2554012725915982
    Molecular point group: c1
  Basis Set: CC-PVTZ
  Basis Set:
  Basis Set: CC-PVTZ
  Basis Set:
  @DF-RHF Final Energy:  -387.25507509405685
    Total Energy =                       -387.2550750940574744
  Basis Set: CC-PVTZ
  Basis Set:
  Basis Set: CC-PVTZ
  Basis Set:
  @DF-RHF Final Energy:  -387.25577920825924
    Total Energy =                       -387.2557792082592414
  Basis Set: CC-PVTZ
  Basis Set:
  Basis Set: CC-PVTZ
  Basis Set:
  @DF-RHF Final Energy:  -387.25571093136165
    Total Energy =                       -387.2557109313615911
  Basis Set: CC-PVTZ
  Basis Set:
  @DF-RHF Final Energy:  -387.25577776095383
    Total Energy =                       -387.2557777609537197
  Basis Set: CC-PVTZ
  Basis Set:
  @DF-RHF Final Energy:  -387.25579457333095
    Total Energy =                       -387.2557945733311726
  Basis Set: CC-PVTZ
  Basis Set:
  Basis Set: CC-PVTZ
  Basis Set:
  @DF-RHF Final Energy:  -387.25582869175929
    Total Energy =                       -387.2558286917587793
  Basis Set: CC-PVTZ
  Basis Set:
  Basis Set: CC-PVTZ
  Basis Set:
  @DF-RHF Final Energy:  -387.25583260370178
    Total Energy =                       -387.2558326037013785
  Basis Set: CC-PVTZ
  Basis Set:
  Charge       = 0
  Multiplicity = 1
  Basis Set: CC-PVTZ
  Basis Set:

    Orbital Energies (a.u.)
    -----------------------

    Doubly Occupied:

       1A    -20.551342     2A    -11.320948     3A    -11.233785
       4A    -11.232651     5A    -11.222004     6A    -11.217699
       7A    -11.216623     8A    -11.214677     9A    -11.209133
      10A     -1.406372    11A     -1.104535    12A     -1.070259
      13A     -1.013925    14A     -0.943540    15A     -0.875942
      16A     -0.820394    17A     -0.788936    18A     -0.783876
      19A     -0.667817    20A     -0.662733    21A     -0.632660
      22A     -0.626622    23A     -0.608221    24A     -0.593559
      25A     -0.573834    26A     -0.553957    27A     -0.534637
      28A     -0.525583    29A     -0.513092    30A     -0.497603
      31A     -0.489002    32A     -0.483807    33A     -0.463805
      34A     -0.455624    35A     -0.442256    36A     -0.411872

  @DF-RHF Final Energy:  -387.25583293712577

   => Energetics <=

    Nuclear Repulsion Energy =            442.4620653193138651
    One-Electron Energy =               -1401.5091488067378123
    Two-Electron Energy =                 571.7912505502981730
    DFT Exchange-Correlation Energy =       0.0000000000000000
    Empirical Dispersion Energy =           0.0000000000000000
    PCM Polarization Energy =               0.0000000000000000
    EFP Energy =                            0.0000000000000000
    Total Energy =                       -387.2558329371257742
    Molecular point group: c1
  Basis Set: CC-PVTZ
  Basis Set:

  -Total Gradient:
     Atom            X                  Y                   Z
    ------   -----------------  -----------------  -----------------
       1       -0.000038974555     0.000040789549    -0.000023107063
       2        0.000112135638    -0.000112377929     0.000016032002
       3       -0.000031134193     0.000049745536    -0.000022551907
       4       -0.000044956219     0.000041243165     0.000028170525
       5       -0.000025984721    -0.000050210872     0.000026764725
       6       -0.000004973629    -0.000014756532     0.000001709777
       7        0.000036514036     0.000004060154     0.000009462490
       8        0.001193073260     0.001182978764    -0.000326330366
       9       -0.000022484099    -0.000009125955    -0.000014070358
      10        0.000016682635     0.000000353585    -0.000019708813
      11       -0.002049396686    -0.001983181832     0.000406543943
      12       -0.000021792261    -0.000017222678     0.000016319605
      13        0.000023485789     0.000030903733     0.000013365497
      14        0.002601494421     0.002348108344    -0.000140352248
      15        0.000014706320    -0.000006015483    -0.000000198474
      16        0.000022705319    -0.000000520421    -0.000011064856
      17       -0.000011059739     0.000029955761     0.000064003617
      18       -0.001727410939    -0.001535631556     0.000005752460
      19       -0.000007913909     0.000011988347     0.000004637193
      20       -0.000000592121    -0.000001840061    -0.000025561911
      21       -0.000019461864     0.000003133739    -0.000014699254
      22       -0.000005017075    -0.000030522603     0.000028830494
      23        0.000014309821     0.000011071809    -0.000031108778
      24       -0.000009561869     0.000007939946     0.000006242522
      25       -0.000014393362    -0.000000866507     0.000000919181

  **** Optimization is complete! (in 9 steps) ****
    Final optimized geometry and variables:
    Molecular point group: c1

    Geometry (in Angstrom), charge = 0, multiplicity = 1:

    H           -3.592383975186     0.181920650341    -0.543273032773
    C           -2.943448877638     0.695938351361    -1.265433166989
    C           -1.986997032553     1.689170841007    -0.663228552137
    O           -3.038450710585     0.458470849548    -2.419492675169
    C           -1.162485829080     1.097819456381     0.483938045655
    H           -1.354239312283     2.078708234341    -1.450119706584
    H           -2.590990678326     2.510088676275    -0.283057529198
    C           -0.169759332074     0.027757569838     0.036581542425
    H           -0.626769345937     1.904523165104     0.972610749381
    H           -1.832882771135     0.683954883372     1.233173182235
    C            0.664919458434    -0.532700479239     1.185539812455
    H            0.493284078704     0.447314717437    -0.715042780603
    H           -0.700361383686    -0.785433806528    -0.452763386448
    C            1.651538549474    -1.635649658094     0.753402853142
    H            1.206483309557     0.287828558604     1.645865009913
    H            0.004429615731    -0.917945141201     1.955987751744
    C            3.068494337617    -1.481454001221     1.307892391681
    H            1.692308838514    -1.687511571604    -0.331003924923
    H            1.261401563174    -2.597819816181     1.068830070647
    C            3.854729096473    -0.325271252780     0.695199482947
    H            3.613960871051    -2.403507014174     1.132852806715
    H            3.019986456891    -1.358469132632     2.386761788971
    H            3.967619665667    -0.459632681103    -0.375556094933
    H            3.366850734336     0.629165014993     0.857113586681
    H            4.847205722898    -0.260047501019     1.126103227668

  Mulliken Charges: (a.u.)
   Center  Symbol    Alpha    Beta     Spin     Total
       1     H     0.46427  0.46427  0.00000  0.07146
       2     C     2.90475  2.90475  0.00000  0.19051
       3     C     3.08920  3.08920  0.00000 -0.17841
       4     O     4.16608  4.16608  0.00000 -0.33216
       5     C     3.11735  3.11735  0.00000 -0.23469
       6     H     0.44283  0.44283  0.00000  0.11435
       7     H     0.44053  0.44053  0.00000  0.11893
       8     C     3.08952  3.08952  0.00000 -0.17904
       9     H     0.44276  0.44276  0.00000  0.11449
      10     H     0.44969  0.44969  0.00000  0.10062
      11     C     3.10459  3.10459  0.00000 -0.20918
      12     H     0.44897  0.44897  0.00000  0.10206
      13     H     0.44694  0.44694  0.00000  0.10612
      14     C     3.09956  3.09956  0.00000 -0.19911
      15     H     0.45049  0.45049  0.00000  0.09901
      16     H     0.44577  0.44577  0.00000  0.10845
      17     C     3.08913  3.08913  0.00000 -0.17825
      18     H     0.45256  0.45256  0.00000  0.09489
      19     H     0.44586  0.44586  0.00000  0.10828
      20     C     3.15040  3.15040  0.00000 -0.30080
      21     H     0.44805  0.44805  0.00000  0.10390
      22     H     0.45430  0.45430  0.00000  0.09140
      23     H     0.45378  0.45378  0.00000  0.09244
      24     H     0.45611  0.45611  0.00000  0.08778
      25     H     0.44652  0.44652  0.00000  0.10697

   Total alpha = 36.00000, Total beta = 36.00000, Total charge =  0.00000

*** Psi4 exiting successfully. Buy a developer a beer!
