  ==> Input File <==

--------------------------------------------------------------------------
set {
	reference rhf
	basis 6-31G*
}

set_num_threads( 1 )
memory 2 gb

molecule MOL {
0 1

H	 3.176824	 0.623597	 -1.371008
O	 2.245605	 0.471933	 -1.242228
C	 2.077727	 -0.067559	 -0.035091
C	 0.624473	 -0.343591	 0.253101
O	 2.991758	 -0.286478	 0.691296
C	 -0.265902	 0.883932	 0.072916
H	 0.324016	 -1.163849	 -0.390541
H	 0.565024	 -0.726111	 1.268924
C	 -1.728698	 0.646073	 0.462102
H	 -0.209144	 1.219470	 -0.958188
H	 0.135059	 1.692851	 0.673903
C	 -2.482460	 -0.343073	 -0.431425
H	 -2.245265	 1.602650	 0.432430
H	 -1.779332	 0.308348	 1.496285
C	 -3.960546	 -0.461025	 -0.060175
H	 -2.395034	 -0.026811	 -1.468912
H	 -2.024850	 -1.327147	 -0.371646
H	 -4.472726	 -1.168004	 -0.705284
H	 -4.465146	 0.496508	 -0.151489
H	 -4.081218	 -0.800940	 0.964585

	symmetry c1
}
set optking {
	frozen_dihedral = ("
		16 12 9 6,
		7 4 6 10,
		12 9 6 10,
		1 2 3 5
	")
}

ee = energy('scf')
oeprop('DIPOLE', 'QUADRUPOLE', 'MULLIKEN_CHARGES')
f=open( 'psi4out.xyz', 'w' )
f.write( "20  " )
f.write( str(ee) + "\n" )
f.write( MOL.save_string_xyz() )
f.close()
--------------------------------------------------------------------------

    Molecular point group: c1

    Geometry (in Angstrom), charge = 0, multiplicity = 1:

       Center              X                  Y                   Z               Mass
    ------------   -----------------  -----------------  -----------------  -----------------
           H          3.199757509500     0.559163340037    -1.317077434507     1.007825032070
           O          2.268538509500     0.407499340037    -1.188297434507    15.994914619560
           C          2.100660509500    -0.131992659963     0.018839565493    12.000000000000
           C          0.647406509500    -0.408024659963     0.307031565493    12.000000000000
           O          3.014691509500    -0.350911659963     0.745226565493    15.994914619560
           C         -0.242968490500     0.819498340037     0.126846565493    12.000000000000
           H          0.346949509500    -1.228282659963    -0.336610434507     1.007825032070
           H          0.587957509500    -0.790544659963     1.322854565493     1.007825032070
           C         -1.705764490500     0.581639340037     0.516032565493    12.000000000000
           H         -0.186210490500     1.155036340037    -0.904257434507     1.007825032070
           H          0.157992509500     1.628417340037     0.727833565493     1.007825032070
           C         -2.459526490500    -0.407506659963    -0.377494434507    12.000000000000
           H         -2.222331490500     1.538216340037     0.486360565493     1.007825032070
           H         -1.756398490500     0.243914340037     1.550215565493     1.007825032070
           C         -3.937612490500    -0.525458659963    -0.006244434507    12.000000000000
           H         -2.372100490500    -0.091244659963    -1.414981434507     1.007825032070
           H         -2.001916490500    -1.391580659963    -0.317715434507     1.007825032070
           H         -4.449792490500    -1.232437659963    -0.651353434507     1.007825032070
           H         -4.442212490500     0.432074340037    -0.097558434507     1.007825032070
           H         -4.058284490500    -0.865373659963     1.018515565493     1.007825032070

  Charge       = 0
  Multiplicity = 1
  Basis Set: 6-31G*
  Basis Set:

    Orbital Energies (a.u.)
    -----------------------

    Doubly Occupied:

       1A    -20.612792     2A    -20.550059     3A    -11.380099
       4A    -11.238731     5A    -11.230221     6A    -11.223803
       7A    -11.222295     8A    -11.213914     9A     -1.474169
      10A     -1.364474    11A     -1.099768    12A     -1.042752
      13A     -0.960554    14A     -0.864115    15A     -0.823179
      16A     -0.791650    17A     -0.699865    18A     -0.684496
      19A     -0.655014    20A     -0.629755    21A     -0.613177
      22A     -0.592385    23A     -0.575767    24A     -0.553010
      25A     -0.548620    26A     -0.517457    27A     -0.500033
      28A     -0.480760    29A     -0.477826    30A     -0.468707
      31A     -0.460878    32A     -0.434744

  @DF-RHF Final Energy:  -383.94696230120053

   => Energetics <=

    Nuclear Repulsion Energy =            377.0868926703039961
    One-Electron Energy =               -1270.0975671633136699
    Two-Electron Energy =                 509.0637121918079515
    DFT Exchange-Correlation Energy =       0.0000000000000000
    Empirical Dispersion Energy =           0.0000000000000000
    PCM Polarization Energy =               0.0000000000000000
    EFP Energy =                            0.0000000000000000
    Total Energy =                       -383.9469623012017223

  Mulliken Charges: (a.u.)
   Center  Symbol    Alpha    Beta     Spin     Total
       1     H     0.26768  0.26768  0.00000  0.46464
       2     O     4.34682  4.34682  0.00000 -0.69365
       3     C     2.62946  2.62946  0.00000  0.74108
       4     C     3.20481  3.20481  0.00000 -0.40963
       5     O     4.27954  4.27954  0.00000 -0.55908
       6     C     3.16415  3.16415  0.00000 -0.32829
       7     H     0.39979  0.39979  0.00000  0.20041
       8     H     0.39823  0.39823  0.00000  0.20353
       9     C     3.15445  3.15445  0.00000 -0.30889
      10     H     0.40617  0.40617  0.00000  0.18765
      11     H     0.41305  0.41305  0.00000  0.17389
      12     C     3.15490  3.15490  0.00000 -0.30981
      13     H     0.41799  0.41799  0.00000  0.16402
      14     H     0.42125  0.42125  0.00000  0.15749
      15     C     3.23951  3.23951  0.00000 -0.47901
      16     H     0.42098  0.42098  0.00000  0.15803
      17     H     0.42189  0.42189  0.00000  0.15623
      18     H     0.41785  0.41785  0.00000  0.16430
      19     H     0.42073  0.42073  0.00000  0.15853
      20     H     0.42072  0.42072  0.00000  0.15856

   Total alpha = 32.00000, Total beta = 32.00000, Total charge = -0.00000
