  ==> Input File <==

--------------------------------------------------------------------------
set {
	reference rhf
	basis 6-31G*
}

set_num_threads( 1 )
memory 2 gb

molecule MOL {
0 1

H	 -3.420663	 1.227371	 -1.044276
O	 -3.452007	 0.283848	 -0.965577
C	 -3.181085	 -0.079926	 0.364119
C	 -1.765924	 0.277073	 0.805136
H	 -3.327791	 -1.152017	 0.410903
H	 -3.905698	 0.375695	 1.036898
C	 -0.709015	 0.023533	 -0.270586
H	 -1.741491	 1.325291	 1.104477
H	 -1.530459	 -0.298529	 1.698702
C	 0.704118	 0.406165	 0.174191
H	 -0.973239	 0.575815	 -1.167180
H	 -0.728075	 -1.030008	 -0.544594
C	 1.757337	 0.144012	 -0.905666
H	 0.714031	 1.456456	 0.455632
H	 0.965070	 -0.152926	 1.071925
C	 3.201198	 0.428481	 -0.476133
H	 1.522634	 0.736887	 -1.788337
H	 1.688019	 -0.897225	 -1.213622
C	 3.500352	 1.900693	 -0.187163
H	 3.868344	 0.085834	 -1.263406
H	 3.438990	 -0.167578	 0.402714
H	 3.260041	 2.523143	 -1.045036
H	 4.552771	 2.043104	 0.038600
H	 2.933509	 2.271999	 0.660176

	symmetry c1
}
set optking {
	frozen_dihedral = ("
		20 16 13 17,
		17 13 10 7,
		13 10 7 11,
		11 7 4 3,
		1 2 3 5
	")
}

ee = energy('scf')
oeprop('DIPOLE', 'QUADRUPOLE', 'MULLIKEN_CHARGES')
f=open( 'psi4out.xyz', 'w' )
f.write( "24  " )
f.write( str(ee) + "\n" )
f.write( MOL.save_string_xyz() )
f.close()
--------------------------------------------------------------------------

    Molecular point group: c1

    Geometry (in Angstrom), charge = 0, multiplicity = 1:

       Center              X                  Y                   Z               Mass
    ------------   -----------------  -----------------  -----------------  -----------------
           H         -3.371080338592     0.790464494443    -0.849708043762     1.007825032070
           O         -3.402424338592    -0.153058505557    -0.771009043762    15.994914619560
           C         -3.131502338592    -0.516832505557     0.558686956238    12.000000000000
           C         -1.716341338592    -0.159833505557     0.999703956238    12.000000000000
           H         -3.278208338592    -1.588923505557     0.605470956238     1.007825032070
           H         -3.856115338592    -0.061211505557     1.231465956238     1.007825032070
           C         -0.659432338592    -0.413373505557    -0.076018043762    12.000000000000
           H         -1.691908338592     0.888384494443     1.299044956238     1.007825032070
           H         -1.480876338592    -0.735435505557     1.893269956238     1.007825032070
           C          0.753700661408    -0.030741505557     0.368758956238    12.000000000000
           H         -0.923656338592     0.138908494443    -0.972612043762     1.007825032070
           H         -0.678492338592    -1.466914505557    -0.350026043762     1.007825032070
           C          1.806919661408    -0.292894505557    -0.711098043762    12.000000000000
           H          0.763613661408     1.019549494443     0.650199956238     1.007825032070
           H          1.014652661408    -0.589832505557     1.266492956238     1.007825032070
           C          3.250780661408    -0.008425505557    -0.281565043762    12.000000000000
           H          1.572216661408     0.299980494443    -1.593769043762     1.007825032070
           H          1.737601661408    -1.334131505557    -1.019054043762     1.007825032070
           C          3.549934661408     1.463786494443     0.007404956238    12.000000000000
           H          3.917926661408    -0.351072505557    -1.068838043762     1.007825032070
           H          3.488572661408    -0.604484505557     0.597281956238     1.007825032070
           H          3.309623661408     2.086236494443    -0.850468043762     1.007825032070
           H          4.602353661408     1.606197494443     0.233167956238     1.007825032070
           H          2.983091661408     1.835092494443     0.854743956238     1.007825032070

  Charge       = 0
  Multiplicity = 1
  Basis Set: 6-31G*
  Basis Set:

    Orbital Energies (a.u.)
    -----------------------

    Doubly Occupied:

       1A    -20.554064     2A    -11.267631     3A    -11.216513
       4A    -11.213938     5A    -11.211999     6A    -11.211324
       7A    -11.210769     8A    -11.207370     9A     -1.361030
      10A     -1.087964    11A     -1.047636    12A     -0.985730
      13A     -0.916003    14A     -0.850986    15A     -0.797306
      16A     -0.776078    17A     -0.680541    18A     -0.653578
      19A     -0.626641    20A     -0.618625    21A     -0.597587
      22A     -0.586387    23A     -0.555348    24A     -0.543781
      25A     -0.512314    26A     -0.506408    27A     -0.502076
      28A     -0.472084    29A     -0.463741    30A     -0.460257
      31A     -0.453235    32A     -0.450122    33A     -0.421330

  @DF-RHF Final Energy:  -349.24529456405469

   => Energetics <=

    Nuclear Repulsion Energy =            385.8224659556907454
    One-Electron Energy =               -1238.0945625278386615
    Two-Electron Energy =                 503.0268020080927727
    DFT Exchange-Correlation Energy =       0.0000000000000000
    Empirical Dispersion Energy =           0.0000000000000000
    PCM Polarization Energy =               0.0000000000000000
    EFP Energy =                            0.0000000000000000
    Total Energy =                       -349.2452945640551434

  Mulliken Charges: (a.u.)
   Center  Symbol    Alpha    Beta     Spin     Total
       1     H     0.28341  0.28341  0.00000  0.43318
       2     O     4.36729  4.36729  0.00000 -0.73459
       3     C     2.99405  2.99405  0.00000  0.01191
       4     C     3.17773  3.17773  0.00000 -0.35546
       5     H     0.41601  0.41601  0.00000  0.16798
       6     H     0.42780  0.42780  0.00000  0.14439
       7     C     3.14593  3.14593  0.00000 -0.29186
       8     H     0.42688  0.42688  0.00000  0.14624
       9     H     0.42035  0.42035  0.00000  0.15931
      10     C     3.15379  3.15379  0.00000 -0.30759
      11     H     0.41746  0.41746  0.00000  0.16507
      12     H     0.42164  0.42164  0.00000  0.15672
      13     C     3.15207  3.15207  0.00000 -0.30413
      14     H     0.42358  0.42358  0.00000  0.15284
      15     H     0.42539  0.42539  0.00000  0.14922
      16     C     3.15226  3.15226  0.00000 -0.30451
      17     H     0.42427  0.42427  0.00000  0.15145
      18     H     0.42167  0.42167  0.00000  0.15666
      19     C     3.24102  3.24102  0.00000 -0.48204
      20     H     0.42109  0.42109  0.00000  0.15782
      21     H     0.42368  0.42368  0.00000  0.15265
      22     H     0.42258  0.42258  0.00000  0.15483
      23     H     0.41953  0.41953  0.00000  0.16093
      24     H     0.42051  0.42051  0.00000  0.15897

   Total alpha = 33.00000, Total beta = 33.00000, Total charge =  0.00000
