  ==> Input File <==

--------------------------------------------------------------------------
set {
	reference rhf
	basis cc-pvtz
}

set_num_threads( 4 )
memory 2 gb

molecule MOL {
0 1

H	 1.651322	 -0.822465	 0.000000
O	 0.729993	 -1.034364	 0.000000
C	 0.037305	 0.100061	 0.000000
C	 0.506919	 1.045439	 1.064801
O	 -0.840091	 0.305885	 -0.764596
H	 0.411232	 0.573938	 2.034336
H	 -0.079168	 1.948764	 1.029700
H	 1.554065	 1.271760	 0.910750

	symmetry c1
}
set optking {
	frozen_dihedral = ("
		4 3 2 1
	")
}

ee = optimize('scf')
oeprop('DIPOLE', 'QUADRUPOLE', 'MULLIKEN_CHARGES')
f=open( 'psi4out.xyz', 'w' )
f.write( "8  " )
f.write( str(ee) + "\n" )
f.write( MOL.save_string_xyz() )
f.close()
--------------------------------------------------------------------------

    Molecular point group: c1
  Charge       = 0
  Multiplicity = 1
  Basis Set: CC-PVTZ
  Basis Set:
  @DF-RHF Final Energy:  -227.88685824502659
    Total Energy =                       -227.8868582450265308
    Molecular point group: c1
  Basis Set: CC-PVTZ
  Basis Set:
  Basis Set: CC-PVTZ
  Basis Set:
  @DF-RHF Final Energy:  -227.88651825330629
    Total Energy =                       -227.8865182533062637
  Basis Set: CC-PVTZ
  Basis Set:
  Basis Set: CC-PVTZ
  Basis Set:
  @DF-RHF Final Energy:  -227.88807573879836
    Total Energy =                       -227.8880757387984204
  Basis Set: CC-PVTZ
  Basis Set:
  Basis Set: CC-PVTZ
  Basis Set:
  @DF-RHF Final Energy:  -227.88891784454682
    Total Energy =                       -227.8889178445467678
  Basis Set: CC-PVTZ
  Basis Set:
  @DF-RHF Final Energy:  -227.88894290935104
    Total Energy =                       -227.8889429093511012
  @DF-RHF Final Energy:  -227.88895114746111
    Total Energy =                       -227.8889511474611140
  @DF-RHF Final Energy:  -227.88893988914467
    Total Energy =                       -227.8889398891446092
  @DF-RHF Final Energy:  -227.88896008024349
    Total Energy =                       -227.8889600802435211
  @DF-RHF Final Energy:  -227.88896401438268
    Total Energy =                       -227.8889640143827933
  @DF-RHF Final Energy:  -227.88896646895705
    Total Energy =                       -227.8889664689570509
  @DF-RHF Final Energy:  -227.88896537059935
    Total Energy =                       -227.8889653705993510
  @DF-RHF Final Energy:  -227.88896746679382
    Total Energy =                       -227.8889674667938721
  @DF-RHF Final Energy:  -227.88896736084860
    Total Energy =                       -227.8889673608486248
  Basis Set: CC-PVTZ
  Basis Set:
  @DF-RHF Final Energy:  -227.88896720363226
    Total Energy =                       -227.8889672036323191
  Basis Set: CC-PVTZ
  Basis Set:
  Basis Set: CC-PVTZ
  Basis Set:
  @DF-RHF Final Energy:  -227.88896575250746
    Total Energy =                       -227.8889657525073176
  Basis Set: CC-PVTZ
  Basis Set:
  Basis Set: CC-PVTZ
  Basis Set:
  @DF-RHF Final Energy:  -227.88895853167747
    Total Energy =                       -227.8889585316774173
  Basis Set: CC-PVTZ
  Basis Set:
  Charge       = 0
  Multiplicity = 1
  Basis Set: CC-PVTZ
  Basis Set:

    Orbital Energies (a.u.)
    -----------------------

    Doubly Occupied:

       1A    -20.598583     2A    -20.545400     3A    -11.378202
       4A    -11.246814     5A     -1.469474     6A     -1.375774
       7A     -1.025533     8A     -0.837215     9A     -0.718332
      10A     -0.671350    11A     -0.663433    12A     -0.600504
      13A     -0.576885    14A     -0.535665    15A     -0.491699
      16A     -0.451867

  @DF-RHF Final Energy:  -227.88896761889336

   => Energetics <=

    Nuclear Repulsion Energy =            122.3237483111535369
    One-Electron Energy =                -554.0519682346928221
    Two-Electron Energy =                 203.8392523046458678
    DFT Exchange-Correlation Energy =       0.0000000000000000
    Empirical Dispersion Energy =           0.0000000000000000
    PCM Polarization Energy =               0.0000000000000000
    EFP Energy =                            0.0000000000000000
    Total Energy =                       -227.8889676188934459
    Molecular point group: c1
  Basis Set: CC-PVTZ
  Basis Set:

  -Total Gradient:
     Atom            X                  Y                   Z
    ------   -----------------  -----------------  -----------------
       1       -0.000138264414     0.000282524407    -0.006712734519
       2       -0.001051017623    -0.001134878341     0.009588496992
       3        0.003518158516     0.002567472366    -0.005319368619
       4       -0.002601652470    -0.001731241475     0.002562608853
       5        0.000300617210     0.000030303245    -0.000136200502
       6       -0.000007051885    -0.000020526288     0.000024654448
       7        0.000007749006    -0.000000224476    -0.000006253575
       8       -0.000028538341     0.000006570559    -0.000001203078

  **** Optimization is complete! (in 17 steps) ****
    Final optimized geometry and variables:
    Molecular point group: c1

    Geometry (in Angstrom), charge = 0, multiplicity = 1:

    H            1.548862575742    -0.972545011471    -0.150127286164
    O            0.618746417255    -1.121568352508    -0.135374486972
    C           -0.078958538038     0.029682548765    -0.085828060811
    C            0.368042215275     0.991957378937     0.982450594579
    O           -1.023330598867     0.186709535759    -0.764713469967
    H            0.192617243558     0.532830433644     1.947606066870
    H           -0.191411610880     1.909705512078     0.905474194367
    H            1.428906533152     1.202405302313     0.906165175760

  Mulliken Charges: (a.u.)
   Center  Symbol    Alpha    Beta     Spin     Total
       1     H     0.38906  0.38906  0.00000  0.22189
       2     O     4.15647  4.15647  0.00000 -0.31294
       3     C     2.81041  2.81041  0.00000  0.37919
       4     C     3.14237  3.14237  0.00000 -0.28474
       5     O     4.16653  4.16653  0.00000 -0.33305
       6     H     0.44122  0.44122  0.00000  0.11757
       7     H     0.43615  0.43615  0.00000  0.12769
       8     H     0.45780  0.45780  0.00000  0.08440

   Total alpha = 16.00000, Total beta = 16.00000, Total charge =  0.00000
