  ==> Input File <==

--------------------------------------------------------------------------
set {
	reference rhf
	basis cc-pvtz
}

set_num_threads( 4 )
memory 2 gb

molecule MOL {
0 1

H	 3.268561	 0.166663	 0.191188
N	 2.422809	 -0.362321	 0.212824
C	 1.263552	 0.494993	 0.021953
H	 2.384804	 -0.820947	 1.099139
C	 -0.016533	 -0.325589	 -0.026925
H	 1.389455	 1.017524	 -0.920440
H	 1.169850	 1.260121	 0.793823
C	 -1.280353	 0.525521	 0.047747
H	 -0.016686	 -0.912532	 -0.939714
H	 -0.014099	 -1.037598	 0.796369
C	 -2.560681	 -0.301323	 -0.007747
H	 -1.279957	 1.241025	 -0.770189
H	 -1.270445	 1.110526	 0.963468
H	 -2.617064	 -0.872870	 -0.928010
H	 -3.439525	 0.331102	 0.043462
H	 -2.609427	 -1.002736	 0.818585

	symmetry c1
}
set optking {
	frozen_dihedral = ("
		6 3 5 9
	")
}

ee = optimize('scf')
oeprop('DIPOLE', 'QUADRUPOLE', 'MULLIKEN_CHARGES')
f=open( 'psi4out.xyz', 'w' )
f.write( "16  " )
f.write( str(ee) + "\n" )
f.write( MOL.save_string_xyz() )
f.close()
--------------------------------------------------------------------------

    Molecular point group: c1
  Charge       = 0
  Multiplicity = 1
  Basis Set: CC-PVTZ
  Basis Set:
  @DF-RHF Final Energy:  -212.39970071570016
    Total Energy =                       -212.3997007157001917
    Molecular point group: c1
  Basis Set: CC-PVTZ
  Basis Set:
  Basis Set: CC-PVTZ
  Basis Set:
  @DF-RHF Final Energy:  -212.39977549255880
    Total Energy =                       -212.3997754925586605
  Basis Set: CC-PVTZ
  Basis Set:
  Basis Set: CC-PVTZ
  Basis Set:
  @DF-RHF Final Energy:  -212.39979705573967
    Total Energy =                       -212.3997970557394410
  Basis Set: CC-PVTZ
  Basis Set:
  Charge       = 0
  Multiplicity = 1
  Basis Set: CC-PVTZ
  Basis Set:

    Orbital Energies (a.u.)
    -----------------------

    Doubly Occupied:

       1A    -15.526262     2A    -11.238186     3A    -11.212792
       4A    -11.208038     5A    -11.205821     6A     -1.177931
       7A     -1.060677     8A     -0.959461     9A     -0.844311
      10A     -0.791915    11A     -0.667951    12A     -0.634143
      13A     -0.609991    14A     -0.576027    15A     -0.562848
      16A     -0.527792    17A     -0.500974    18A     -0.470795
      19A     -0.465823    20A     -0.460996    21A     -0.383867

  @DF-RHF Final Energy:  -212.39979737127018

   => Energetics <=

    Nuclear Repulsion Energy =            186.5673533326379641
    One-Electron Energy =                -655.7610989014792722
    Two-Electron Energy =                 256.7939481975712965
    DFT Exchange-Correlation Energy =       0.0000000000000000
    Empirical Dispersion Energy =           0.0000000000000000
    PCM Polarization Energy =               0.0000000000000000
    EFP Energy =                            0.0000000000000000
    Total Energy =                       -212.3997973712700400
    Molecular point group: c1
  Basis Set: CC-PVTZ
  Basis Set:

  -Total Gradient:
     Atom            X                  Y                   Z
    ------   -----------------  -----------------  -----------------
       1        0.000001113421    -0.000017003028     0.000005046426
       2       -0.000004875952     0.000040442760     0.000012106282
       3       -0.001807599166     0.002784026567     0.000809299208
       4        0.000000977365     0.000002042745    -0.000014280186
       5        0.001716618420    -0.002707689214     0.001242652487
       6        0.001272154824    -0.001939740462    -0.000902827530
       7       -0.000007829861    -0.000020228591    -0.000001521098
       8        0.000004373970    -0.000017317534     0.000075299047
       9       -0.001140109457     0.001832869583    -0.001206035667
      10       -0.000011651230     0.000029865287    -0.000001604865
      11       -0.000010362831     0.000002973333    -0.000028060251
      12        0.000002022895    -0.000006519276     0.000006154824
      13       -0.000014734852     0.000019612334     0.000011467557
      14       -0.000002035634    -0.000014017802     0.000001152567
      15        0.000001625912     0.000000122503    -0.000012533539
      16        0.000000312174     0.000010560796     0.000003684739

  **** Optimization is complete! (in 4 steps) ****
    Final optimized geometry and variables:
    Molecular point group: c1

    Geometry (in Angstrom), charge = 0, multiplicity = 1:

    H            3.275379251483     0.162061957841     0.072621663737
    N            2.429132277089    -0.363376298801     0.130793309491
    C            1.265194047060     0.495169655124    -0.030951174741
    H            2.420891270962    -0.811992035712     1.022844817150
    C           -0.013579878467    -0.331308420467    -0.059968058849
    H            1.378259171464     1.008888767168    -0.979450978532
    H            1.189405074520     1.258189945113     0.744116855077
    C           -1.277863016674     0.522462973819    -0.006823207491
    H           -0.022423397332    -0.927061760195    -0.966833108775
    H           -0.012443412115    -1.026300504794     0.776379787144
    C           -2.558463520749    -0.301451189620    -0.090454073096
    H           -1.260506185382     1.241523601988    -0.821849455972
    H           -1.284266490506     1.104095800267     0.910948543792
    H           -2.600638734114    -0.866028340014    -1.015780003506
    H           -3.437094394764     0.332042093580    -0.049011446709
    H           -2.622049487923    -1.009159050994     0.729548924946

  Mulliken Charges: (a.u.)
   Center  Symbol    Alpha    Beta     Spin     Total
       1     H     0.42992  0.42992  0.00000  0.14016
       2     N     3.69052  3.69052  0.00000 -0.38105
       3     C     3.02710  3.02710  0.00000 -0.05420
       4     H     0.43078  0.43078  0.00000  0.13843
       5     C     3.07783  3.07783  0.00000 -0.15565
       6     H     0.45615  0.45615  0.00000  0.08769
       7     H     0.46860  0.46860  0.00000  0.06279
       8     C     3.08900  3.08900  0.00000 -0.17800
       9     H     0.45088  0.45088  0.00000  0.09824
      10     H     0.45973  0.45973  0.00000  0.08054
      11     C     3.14942  3.14942  0.00000 -0.29884
      12     H     0.45524  0.45524  0.00000  0.08952
      13     H     0.45636  0.45636  0.00000  0.08729
      14     H     0.45432  0.45432  0.00000  0.09136
      15     H     0.44879  0.44879  0.00000  0.10243
      16     H     0.45536  0.45536  0.00000  0.08929

   Total alpha = 21.00000, Total beta = 21.00000, Total charge = -0.00000
