  ==> Input File <==

--------------------------------------------------------------------------
set {
	reference rhf
	basis 6-31G*
}

set_num_threads( 4 )
memory 2 gb

molecule MOL {
0 1

O	 1.849954	 1.290430	 0.114671
C	 1.705091	 0.115954	 0.001797
C	 0.381791	 -0.609817	 0.001258
O	 2.717099	 -0.729632	 -0.146389
C	 -0.823008	 0.326187	 0.001381
H	 0.371250	 -1.265087	 -0.865474
H	 0.370908	 -1.265746	 0.867490
C	 -2.149452	 -0.435131	 -0.000098
H	 -0.770201	 0.977095	 -0.865636
H	 -0.771220	 0.975655	 0.869608
C	 -3.368779	 0.488503	 -0.000883
H	 -2.193746	 -1.087250	 -0.871175
H	 -2.195311	 -1.087803	 0.870418
C	 -4.693822	 -0.272754	 -0.001129
H	 -3.325798	 1.139422	 -0.871284
H	 -3.326423	 1.139959	 0.869145
H	 -4.781274	 -0.907928	 -0.878124
H	 -5.538651	 0.408946	 -0.001420
H	 -4.781694	 -0.907783	 0.875984
C	 4.020040	 -0.175596	 -0.164893
H	 4.125658	 0.519860	 -0.985084
H	 4.693294	 -1.008918	 -0.292089
H	 4.228705	 0.336079	 0.763629

	symmetry c1
}
set optking {
	frozen_dihedral = ("
		1 2 3 6
	")
}

ee = optimize('scf')
oeprop('DIPOLE', 'QUADRUPOLE', 'MULLIKEN_CHARGES')
f=open( 'psi4out.xyz', 'w' )
f.write( "23  " )
f.write( str(ee) + "\n" )
f.write( MOL.save_string_xyz() )
f.close()
--------------------------------------------------------------------------

    Molecular point group: c1
  Charge       = 0
  Multiplicity = 1
  Basis Set: 6-31G*
  Basis Set:
  @DF-RHF Final Energy:  -422.97626006573705
    Total Energy =                       -422.9762600657375060
    Molecular point group: c1
  Basis Set: 6-31G*
  Basis Set:
  Basis Set: 6-31G*
  Basis Set:
  @DF-RHF Final Energy:  -422.97591472215151
    Total Energy =                       -422.9759147221519697
  Basis Set: 6-31G*
  Basis Set:
  Basis Set: 6-31G*
  Basis Set:
  @DF-RHF Final Energy:  -422.97628195665027
    Total Energy =                       -422.9762819566502685
  Basis Set: 6-31G*
  Basis Set:
  Basis Set: 6-31G*
  Basis Set:
  @DF-RHF Final Energy:  -422.97628405005531
    Total Energy =                       -422.9762840500561651
  Basis Set: 6-31G*
  Basis Set:
  Charge       = 0
  Multiplicity = 1
  Basis Set: 6-31G*
  Basis Set:

    Orbital Energies (a.u.)
    -----------------------

    Doubly Occupied:

       1A    -20.603700     2A    -20.545356     3A    -11.372256
       4A    -11.280853     5A    -11.235522     6A    -11.219377
       7A    -11.217927     8A    -11.216500     9A    -11.209667
      10A     -1.469345    11A     -1.362745    12A     -1.093242
      13A     -1.043668    14A     -0.987055    15A     -0.932136
      16A     -0.843608    17A     -0.795110    18A     -0.767353
      19A     -0.696830    20A     -0.683810    21A     -0.671497
      22A     -0.651802    23A     -0.609219    24A     -0.599389
      25A     -0.572800    26A     -0.559191    27A     -0.556204
      28A     -0.523838    29A     -0.521187    30A     -0.507751
      31A     -0.484365    32A     -0.469844    33A     -0.466288
      34A     -0.461355    35A     -0.455678    36A     -0.435380

  @DF-RHF Final Energy:  -422.97628415798499

   => Energetics <=

    Nuclear Repulsion Energy =            452.1187550823162837
    One-Electron Energy =               -1471.9463773768086412
    Two-Electron Energy =                 596.8513381365069108
    DFT Exchange-Correlation Energy =       0.0000000000000000
    Empirical Dispersion Energy =           0.0000000000000000
    PCM Polarization Energy =               0.0000000000000000
    EFP Energy =                            0.0000000000000000
    Total Energy =                       -422.9762841579854467
    Molecular point group: c1
  Basis Set: 6-31G*
  Basis Set:

  -Total Gradient:
     Atom            X                  Y                   Z
    ------   -----------------  -----------------  -----------------
       1        0.000013667021    -0.000036135278     0.000273250491
       2       -0.000003248976     0.000008603748    -0.000390972663
       3       -0.000113038378     0.000223569839    -0.000005587285
       4       -0.000002975195    -0.000000303399    -0.000018801514
       5        0.000001669575    -0.000001288420    -0.000051403181
       6        0.000108146974    -0.000169867388     0.000139836265
       7       -0.000005027277    -0.000019026408     0.000008762410
       8        0.000000361759    -0.000000826336     0.000009766937
       9        0.000001336033     0.000004708704     0.000003406610
      10       -0.000000324481    -0.000007541636    -0.000000649107
      11       -0.000000388555    -0.000000207294     0.000014340157
      12       -0.000000392244    -0.000000001242     0.000002595492
      13        0.000000807002     0.000000450491     0.000001935500
      14        0.000000069454    -0.000000205865    -0.000012451120
      15        0.000002180234     0.000002057737     0.000003984098
      16       -0.000002303675    -0.000001700386     0.000004601489
      17       -0.000000721978    -0.000004275904     0.000001188027
      18       -0.000000364096     0.000000341977    -0.000005000853
      19        0.000001019532     0.000004402575     0.000001084685
      20       -0.000001741529    -0.000007268026     0.000045674490
      21       -0.000010938470     0.000001025335    -0.000008586502
      22        0.000000906723     0.000002035201    -0.000007502506
      23        0.000011300538     0.000001451975    -0.000009471919

  **** Optimization is complete! (in 5 steps) ****
    Final optimized geometry and variables:
    Molecular point group: c1

    Geometry (in Angstrom), charge = 0, multiplicity = 1:

    O            1.849208012264     1.290239350608     0.120232673953
    C            1.705433895572     0.115659534990     0.006953082954
    C            0.382249082821    -0.610331860039     0.003121486276
    O            2.719134888105    -0.730974088222    -0.121925279318
    C           -0.822889330871     0.325205839398     0.013598906752
    H            0.368366880412    -1.267112332776    -0.861572623215
    H            0.375605926361    -1.265444448007     0.870879304851
    C           -2.149042686329    -0.436529145676     0.023269334853
    H           -0.778383171301     0.975930586331    -0.854573798876
    H           -0.763067555547     0.974757978948     0.880797007880
    C           -3.368569343867     0.486752553913     0.033370940574
    H           -2.200845437554    -1.088633807443    -0.847355570935
    H           -2.186948880321    -1.089194907997     0.894235024656
    C           -4.693385822757    -0.274885925205     0.041729584987
    H           -3.332399150461     1.139154537642    -0.836217721424
    H           -3.319801487751     1.136703670676     0.904140630470
    H           -4.786804675154    -0.909420462466    -0.835159891782
    H           -5.538398654164     0.406519668304     0.047915125685
    H           -4.774970794694    -0.910648061580     0.918901535923
    C            4.022822552099    -0.178333406594    -0.114626048203
    H            4.145218980147     0.516937508301    -0.932606261673
    H            4.697563786032    -1.012409165776    -0.228669242191
    H            4.213809131044     0.333125507311     0.817832976273

  Mulliken Charges: (a.u.)
   Center  Symbol    Alpha    Beta     Spin     Total
       1     O     4.28613  4.28613  0.00000 -0.57225
       2     C     2.60475  2.60475  0.00000  0.79050
       3     C     3.20835  3.20835  0.00000 -0.41669
       4     O     4.30738  4.30738  0.00000 -0.61477
       5     C     3.15259  3.15259  0.00000 -0.30517
       6     H     0.40078  0.40078  0.00000  0.19844
       7     H     0.40048  0.40048  0.00000  0.19903
       8     C     3.15331  3.15331  0.00000 -0.30662
       9     H     0.41312  0.41312  0.00000  0.17376
      10     H     0.41022  0.41022  0.00000  0.17956
      11     C     3.15156  3.15156  0.00000 -0.30312
      12     H     0.42401  0.42401  0.00000  0.15198
      13     H     0.42397  0.42397  0.00000  0.15205
      14     C     3.23959  3.23959  0.00000 -0.47917
      15     H     0.42145  0.42145  0.00000  0.15711
      16     H     0.42120  0.42120  0.00000  0.15759
      17     H     0.42184  0.42184  0.00000  0.15632
      18     H     0.41847  0.41847  0.00000  0.16306
      19     H     0.42179  0.42179  0.00000  0.15642
      20     C     3.09248  3.09248  0.00000 -0.18497
      21     H     0.40894  0.40894  0.00000  0.18211
      22     H     0.40843  0.40843  0.00000  0.18315
      23     H     0.40918  0.40918  0.00000  0.18165

   Total alpha = 36.00000, Total beta = 36.00000, Total charge =  0.00000
