  ==> Input File <==

--------------------------------------------------------------------------
set {
	reference rhf
	basis 6-31G*
}

set_num_threads( 4 )
memory 2 gb

molecule MOL {
0 1

H	 4.863904	 -1.668337	 0.611918
C	 4.284057	 -1.462597	 -0.282492
C	 2.811185	 -1.234022	 0.054522
H	 4.714078	 -0.587984	 -0.761528
H	 4.407668	 -2.304795	 -0.957935
C	 1.962847	 -0.947711	 -1.186511
H	 2.727117	 -0.404740	 0.749378
H	 2.418402	 -2.112658	 0.563846
C	 0.480127	 -0.732467	 -0.882409
H	 2.348533	 -0.072108	 -1.696618
H	 2.052197	 -1.782348	 -1.878203
C	 0.169600	 0.576866	 -0.172154
H	 -0.087927	 -0.723332	 -1.811388
H	 0.078670	 -1.559266	 -0.300675
C	 -1.181045	 0.701995	 0.511084
O	 0.946717	 1.483741	 -0.163735
C	 -2.285934	 -0.139295	 -0.145128
H	 -1.449051	 1.751551	 0.493206
H	 -1.071135	 0.403303	 1.551943
C	 -3.651768	 0.085446	 0.506485
H	 -2.346596	 0.110469	 -1.202272
H	 -2.034737	 -1.195320	 -0.088721
C	 -4.759797	 -0.746382	 -0.137905
H	 -3.908762	 1.140117	 0.445781
H	 -3.588286	 -0.154158	 1.565709
H	 -4.868882	 -0.505166	 -1.191300
H	 -4.548009	 -1.809175	 -0.062213
H	 -5.715422	 -0.564821	 0.343442

	symmetry c1
}
set optking {
	frozen_dihedral = ("
		16 12 15 17
	")
}

ee = optimize('scf')
oeprop('DIPOLE', 'QUADRUPOLE', 'MULLIKEN_CHARGES')
f=open( 'psi4out.xyz', 'w' )
f.write( "28  " )
f.write( str(ee) + "\n" )
f.write( MOL.save_string_xyz() )
f.close()
--------------------------------------------------------------------------

    Molecular point group: c1
  Charge       = 0
  Multiplicity = 1
  Basis Set: 6-31G*
  Basis Set:
  @DF-RHF Final Energy:  -426.16654360428640
    Total Energy =                       -426.1665436042862893
    Molecular point group: c1
  Basis Set: 6-31G*
  Basis Set:
  Basis Set: 6-31G*
  Basis Set:
  @DF-RHF Final Energy:  -426.16626250176796
    Total Energy =                       -426.1662625017680739
  Basis Set: 6-31G*
  Basis Set:
  Basis Set: 6-31G*
  Basis Set:
  @DF-RHF Final Energy:  -426.16680092160198
    Total Energy =                       -426.1668009216020891
  Basis Set: 6-31G*
  Basis Set:
  Basis Set: 6-31G*
  Basis Set:
  @DF-RHF Final Energy:  -426.16797528168684
    Total Energy =                       -426.1679752816868358
  Basis Set: 6-31G*
  Basis Set:
  @DF-RHF Final Energy:  -426.16809746582078
    Total Energy =                       -426.1680974658211198
  Basis Set: 6-31G*
  Basis Set:
  @DF-RHF Final Energy:  -426.16809318978233
    Total Energy =                       -426.1680931897828941
  Basis Set: 6-31G*
  Basis Set:
  Basis Set: 6-31G*
  Basis Set:
  @DF-RHF Final Energy:  -426.16809539184692
    Total Energy =                       -426.1680953918468049
  Basis Set: 6-31G*
  Basis Set:
  Basis Set: 6-31G*
  Basis Set:
  @DF-RHF Final Energy:  -426.16810543399583
    Total Energy =                       -426.1681054339960610
  Basis Set: 6-31G*
  Basis Set:
  Charge       = 0
  Multiplicity = 1
  Basis Set: 6-31G*
  Basis Set:

    Orbital Energies (a.u.)
    -----------------------

    Doubly Occupied:

       1A    -20.546677     2A    -11.323374     3A    -11.231123
       4A    -11.230492     5A    -11.229952     6A    -11.226329
       7A    -11.216781     8A    -11.215906     9A    -11.210825
      10A    -11.204836    11A     -1.392942    12A     -1.095572
      13A     -1.076679    14A     -1.022138    15A     -0.990517
      16A     -0.906775    17A     -0.875218    18A     -0.809776
      19A     -0.799678    20A     -0.721456    21A     -0.665794
      22A     -0.657884    23A     -0.628984    24A     -0.617979
      25A     -0.608330    26A     -0.586387    27A     -0.581420
      28A     -0.572791    29A     -0.541026    30A     -0.532306
      31A     -0.518613    32A     -0.513673    33A     -0.492227
      34A     -0.486963    35A     -0.480999    36A     -0.475242
      37A     -0.468764    38A     -0.464642    39A     -0.455273
      40A     -0.392221

  @DF-RHF Final Energy:  -426.16810536652201

   => Energetics <=

    Nuclear Repulsion Energy =            531.5690741230581580
    One-Electron Energy =               -1631.3372335522476533
    Two-Electron Energy =                 673.6000540626672546
    DFT Exchange-Correlation Energy =       0.0000000000000000
    Empirical Dispersion Energy =           0.0000000000000000
    PCM Polarization Energy =               0.0000000000000000
    EFP Energy =                            0.0000000000000000
    Total Energy =                       -426.1681053665221270
    Molecular point group: c1
  Basis Set: 6-31G*
  Basis Set:

  -Total Gradient:
     Atom            X                  Y                   Z
    ------   -----------------  -----------------  -----------------
       1       -0.000003404560    -0.000001930354     0.000000145277
       2       -0.000002261597    -0.000002079225    -0.000002897478
       3        0.000005287079    -0.000002225473     0.000000369611
       4       -0.000002806372    -0.000000748296     0.000001780641
       5        0.000001853983    -0.000002028103    -0.000002020699
       6        0.000007355463     0.000006780553    -0.000001134609
       7        0.000003997389     0.000005802866     0.000004856885
       8       -0.000005867776     0.000004478731    -0.000001695577
       9       -0.000009672483    -0.000009048689     0.000010889422
      10        0.000000190223     0.000000226802     0.000005370873
      11       -0.000003273132     0.000001285545    -0.000003316605
      12       -0.000749470237     0.000434899979    -0.001797682358
      13       -0.000008238109     0.000000268485    -0.000008216146
      14       -0.000001745723     0.000005384478    -0.000000550842
      15       -0.000128938931     0.001364886506    -0.000620134114
      16        0.000619033469    -0.000686066406     0.001584636322
      17        0.000261520797    -0.001103862394     0.000818268427
      18        0.000007913605     0.000007560522     0.000006566915
      19        0.000006813082     0.000005452275    -0.000009378579
      20        0.000008577433    -0.000018920362     0.000017125240
      21       -0.000011765131    -0.000011063322    -0.000004683244
      22        0.000014321882    -0.000007126206     0.000005305134
      23       -0.000006893284     0.000016306122    -0.000010831337
      24        0.000006482434    -0.000003201271     0.000009045081
      25       -0.000005367093    -0.000008034758     0.000002024449
      26        0.000000250405    -0.000005886390    -0.000004651296
      27        0.000000214946     0.000004772314     0.000006241278
      28       -0.000004107757     0.000004116069    -0.000005432671

  **** Optimization is complete! (in 9 steps) ****
    Final optimized geometry and variables:
    Molecular point group: c1

    Geometry (in Angstrom), charge = 0, multiplicity = 1:

    H            5.130756755593    -1.265996254567     0.712734596335
    C            4.506805671617    -1.099394934068    -0.159898442201
    C            3.037770362108    -0.947743861043     0.232604728391
    H            4.870164223926    -0.206735383704    -0.660426917527
    H            4.650405532394    -1.939269482737    -0.834415972416
    C            2.128278201634    -0.721814751231    -0.977303031428
    H            2.933901490827    -0.117790308852     0.922922496816
    H            2.713695733277    -1.842140279938     0.762632170876
    C            0.648350242922    -0.582788277797    -0.620702565271
    H            2.448815555202     0.165319263751    -1.512407360834
    H            2.235831001813    -1.560078488217    -1.662096490855
    C            0.283200325398     0.733224907112     0.045544623366
    H            0.037493138784    -0.665489536491    -1.517966999617
    H            0.329077276489    -1.399875514250     0.023301346823
    C           -1.102347794610     0.879630533580     0.659594383872
    O            1.066211318043     1.631101249741     0.131612904611
    C           -2.252477262195     0.121571885045    -0.010223337156
    H           -1.312352217027     1.942111054658     0.702630740501
    H           -1.006455659658     0.543077245168     1.692028336520
    C           -3.594002203486     0.386844248499     0.676717970655
    H           -2.325700684272     0.413486982537    -1.056102058420
    H           -2.056173067444    -0.946815623937    -0.001361851250
    C           -4.754919569486    -0.357883361463     0.019148742809
    H           -3.797740909982     1.454913687691     0.667596841349
    H           -3.525063427271     0.097852580846     1.723218646502
    H           -4.869848213405    -0.065511429480    -1.020660960456
    H           -4.597275645488    -1.432398474354     0.044821730355
    H           -5.691401062053    -0.149166192860     0.526429404403

  Mulliken Charges: (a.u.)
   Center  Symbol    Alpha    Beta     Spin     Total
       1     H     0.41949  0.41949  0.00000  0.16102
       2     C     3.24024  3.24024  0.00000 -0.48048
       3     C     3.15621  3.15621  0.00000 -0.31243
       4     H     0.41847  0.41847  0.00000  0.16306
       5     H     0.42400  0.42400  0.00000  0.15200
       6     C     3.14813  3.14813  0.00000 -0.29626
       7     H     0.40812  0.40812  0.00000  0.18376
       8     H     0.42838  0.42838  0.00000  0.14323
       9     C     3.21509  3.21509  0.00000 -0.43019
      10     H     0.40787  0.40787  0.00000  0.18426
      11     H     0.42222  0.42222  0.00000  0.15556
      12     C     2.72980  2.72980  0.00000  0.54040
      13     H     0.40377  0.40377  0.00000  0.19245
      14     H     0.41061  0.41061  0.00000  0.17877
      15     C     3.20388  3.20388  0.00000 -0.40777
      16     O     4.26874  4.26874  0.00000 -0.53747
      17     C     3.16177  3.16177  0.00000 -0.32354
      18     H     0.39907  0.39907  0.00000  0.20187
      19     H     0.40623  0.40623  0.00000  0.18753
      20     C     3.15223  3.15223  0.00000 -0.30446
      21     H     0.41844  0.41844  0.00000  0.16311
      22     H     0.41881  0.41881  0.00000  0.16237
      23     C     3.24001  3.24001  0.00000 -0.48001
      24     H     0.41912  0.41912  0.00000  0.16176
      25     H     0.42111  0.42111  0.00000  0.15779
      26     H     0.42031  0.42031  0.00000  0.15938
      27     H     0.42111  0.42111  0.00000  0.15778
      28     H     0.41675  0.41675  0.00000  0.16649

   Total alpha = 40.00000, Total beta = 40.00000, Total charge =  0.00000
