  ==> Input File <==

--------------------------------------------------------------------------
set {
	reference rhf
	basis 6-31G*
}

set_num_threads( 1 )
memory 2 gb

molecule MOL {
0 1

H	 -2.499100	 -0.730091	 -0.745082
O	 -2.347518	 -0.290803	 0.079804
C	 -1.184022	 0.487508	 -0.006784
C	 0.062599	 -0.378592	 0.031606
H	 -1.176523	 1.099369	 -0.904519
H	 -1.187323	 1.153111	 0.844927
O	 1.171513	 0.459272	 -0.058250
H	 0.050699	 -1.089204	 -0.797170
H	 0.078739	 -0.954914	 0.954740
C	 2.106628	 0.078479	 -1.017259
H	 1.672828	 0.072119	 -2.015461
H	 2.913446	 0.797666	 -0.990506
H	 2.508460	 -0.910990	 -0.809236

	symmetry c1
}
set optking {
	frozen_dihedral = ("
		8 4 3 5,
		1 2 3 5,
		4 7 10 13
	")
}

ee = energy('scf')
oeprop('DIPOLE', 'QUADRUPOLE', 'MULLIKEN_CHARGES')
f=open( 'psi4out.xyz', 'w' )
f.write( "13  " )
f.write( str(ee) + "\n" )
f.write( MOL.save_string_xyz() )
f.close()
--------------------------------------------------------------------------

    Molecular point group: c1

    Geometry (in Angstrom), charge = 0, multiplicity = 1:

       Center              X                  Y                   Z               Mass
    ------------   -----------------  -----------------  -----------------  -----------------
           H         -2.438511049344    -0.787630888252    -0.533889347613     1.007825032070
           O         -2.286929049344    -0.348342888252     0.290996652387    15.994914619560
           C         -1.123433049344     0.429968111748     0.204408652387    12.000000000000
           C          0.123187950656    -0.436131888252     0.242798652387    12.000000000000
           H         -1.115934049344     1.041829111748    -0.693326347613     1.007825032070
           H         -1.126734049344     1.095571111748     1.056119652387     1.007825032070
           O          1.232101950656     0.401732111748     0.152942652387    15.994914619560
           H          0.111287950656    -1.146743888252    -0.585977347613     1.007825032070
           H          0.139327950656    -1.012453888252     1.165932652387     1.007825032070
           C          2.167216950656     0.020939111748    -0.806066347613    12.000000000000
           H          1.733416950656     0.014579111748    -1.804268347613     1.007825032070
           H          2.974034950656     0.740126111748    -0.779313347613     1.007825032070
           H          2.569048950656    -0.968529888252    -0.598043347613     1.007825032070

  Charge       = 0
  Multiplicity = 1
  Basis Set: 6-31G*
  Basis Set:

    Orbital Energies (a.u.)
    -----------------------

    Doubly Occupied:

       1A    -20.561006     2A    -20.559415     3A    -11.272259
       4A    -11.270394     5A    -11.267810     6A     -1.389134
       7A     -1.364714     8A     -1.017168     9A     -0.917101
      10A     -0.841844    11A     -0.710380    12A     -0.668825
      13A     -0.661950    14A     -0.642996    15A     -0.588934
      16A     -0.571508    17A     -0.549639    18A     -0.490692
      19A     -0.474189    20A     -0.457404    21A     -0.408861

  @DF-RHF Final Energy:  -267.94680595600772

   => Energetics <=

    Nuclear Repulsion Energy =            191.0988557537460792
    One-Electron Energy =                -744.7187841251661666
    Two-Electron Energy =                 285.6731224154117967
    DFT Exchange-Correlation Energy =       0.0000000000000000
    Empirical Dispersion Energy =           0.0000000000000000
    PCM Polarization Energy =               0.0000000000000000
    EFP Energy =                            0.0000000000000000
    Total Energy =                       -267.9468059560082907

  Mulliken Charges: (a.u.)
   Center  Symbol    Alpha    Beta     Spin     Total
       1     H     0.28188  0.28188  0.00000  0.43625
       2     O     4.37084  4.37084  0.00000 -0.74169
       3     C     3.00307  3.00307  0.00000 -0.00613
       4     C     3.00111  3.00111  0.00000 -0.00221
       5     H     0.42658  0.42658  0.00000  0.14684
       6     H     0.40789  0.40789  0.00000  0.18422
       7     O     4.30622  4.30622  0.00000 -0.61244
       8     H     0.43667  0.43667  0.00000  0.12665
       9     H     0.41597  0.41597  0.00000  0.16806
      10     C     3.08142  3.08142  0.00000 -0.16285
      11     H     0.43024  0.43024  0.00000  0.13953
      12     H     0.41102  0.41102  0.00000  0.17795
      13     H     0.42709  0.42709  0.00000  0.14582

   Total alpha = 21.00000, Total beta = 21.00000, Total charge = -0.00000
