                              Psi4 1.0.54 Driver

  ==> Input File <==

--------------------------------------------------------------------------
set {
	reference rhf
	basis cc-pvtz
}

set_num_threads( 4 )
memory 2 gb

molecule MOL {
0 1

O	 -1.510770	 1.240811	 -0.054933
C	 -1.081510	 0.147522	 0.122720
C	 0.327029	 -0.064006	 0.641890
C	 -1.903028	 -1.084121	 -0.174656
C	 1.349460	 -0.017068	 -0.500215
H	 0.399029	 -1.014606	 1.159950
H	 0.538021	 0.726928	 1.350471
C	 2.490169	 0.954720	 -0.220654
H	 1.755949	 -1.010027	 -0.669441
H	 0.837466	 0.268782	 -1.411521
H	 3.191077	 0.977060	 -1.046644
H	 3.038095	 0.671901	 0.671838
H	 2.116493	 1.962190	 -0.074918
H	 -1.341891	 -1.779207	 -0.789259
H	 -2.820449	 -0.808163	 -0.671328
H	 -2.133314	 -1.593056	 0.755831

	symmetry c1
}
set optking {
	frozen_dihedral = ("
		9 5 3 2
	")
}

ee,wfn = optimize('scf', return_wfn=True)
oeprop( wfn, 'DIPOLE', 'QUADRUPOLE', 'MULLIKEN_CHARGES')
f=open( 'psi4out.xyz', 'w' )
f.write( "16  " )
f.write( str(ee) + "\n" )
f.write( MOL.save_string_xyz() )
f.close()
--------------------------------------------------------------------------

    Molecular point group: c1
  Charge       = 0
  Multiplicity = 1
  Basis Set: CC-PVTZ
  Basis Set:
  @DF-RHF Final Energy:  -270.12384879576155
    Total Energy =                       -270.1238487957613188
    Molecular point group: c1
  Basis Set: CC-PVTZ
  Basis Set:
  Basis Set: CC-PVTZ
  Basis Set:
  @DF-RHF Final Energy:  -270.12403816441230
    Total Energy =                       -270.1240381644121271
  Basis Set: CC-PVTZ
  Basis Set:
  Basis Set: CC-PVTZ
  Basis Set:
  @DF-RHF Final Energy:  -270.12432585832619
    Total Energy =                       -270.1243258583261877
  Basis Set: CC-PVTZ
  Basis Set:
  Basis Set: CC-PVTZ
  Basis Set:
  @DF-RHF Final Energy:  -270.12438282121843
    Total Energy =                       -270.1243828212182621
  Basis Set: CC-PVTZ
  Basis Set:
  @DF-RHF Final Energy:  -270.12443748416621
    Total Energy =                       -270.1244374841664353
  @DF-RHF Final Energy:  -270.12448562601162
    Total Energy =                       -270.1244856260117331
  @DF-RHF Final Energy:  -270.12452422842603
    Total Energy =                       -270.1245242284258552
  Basis Set: CC-PVTZ
  Basis Set:
  @DF-RHF Final Energy:  -270.12455956580970
    Total Energy =                       -270.1245595658094203
  Basis Set: CC-PVTZ
  Basis Set:
  Basis Set: CC-PVTZ
  Basis Set:
  @DF-RHF Final Energy:  -270.12456905849672
    Total Energy =                       -270.1245690584967747
  Basis Set: CC-PVTZ
  Basis Set:
  Basis Set: CC-PVTZ
  Basis Set:
  @DF-RHF Final Energy:  -270.12457066526878
    Total Energy =                       -270.1245706652688341
  Basis Set: CC-PVTZ
  Basis Set:
  Charge       = 0
  Multiplicity = 1
  Basis Set: CC-PVTZ
  Basis Set:

    Orbital Energies (a.u.)
    -----------------------

    Doubly Occupied:

       1A    -20.537291     2A    -11.319581     3A    -11.233925
       4A    -11.228085     5A    -11.226822     6A    -11.216581
       7A     -1.397251     8A     -1.082439     9A     -1.012976
      10A     -0.949767    11A     -0.832247    12A     -0.736633
      13A     -0.660964    14A     -0.645383    15A     -0.622122
      16A     -0.601724    17A     -0.580414    18A     -0.556866
      19A     -0.544004    20A     -0.515770    21A     -0.499816
      22A     -0.484652    23A     -0.476195    24A     -0.400203

  @DF-RHF Final Energy:  -270.12457114821677

   => Energetics <=

    Nuclear Repulsion Energy =            238.1855418011280392
    One-Electron Energy =                -837.8968016519456796
    Two-Electron Energy =                 329.5866887026007817
    DFT Exchange-Correlation Energy =       0.0000000000000000
    Empirical Dispersion Energy =           0.0000000000000000
    PCM Polarization Energy =               0.0000000000000000
    EFP Energy =                            0.0000000000000000
    Total Energy =                       -270.1245711482168872
    Molecular point group: c1
  Basis Set: CC-PVTZ
  Basis Set:

  -Total Gradient:
     Atom            X                  Y                   Z
    ------   -----------------  -----------------  -----------------
       1       -0.000000790547    -0.000000729356     0.000005375209
       2        0.000163662090     0.001484486119     0.000029594027
       3        0.000184033785    -0.001895607126     0.000169849414
       4       -0.000043652683     0.000003994889     0.000037235646
       5       -0.001888694764    -0.000125038866    -0.001483765306
       6       -0.000003473038    -0.000002209755     0.000009077050
       7       -0.000021315619     0.000011262562     0.000007051576
       8       -0.000001283298     0.000007449205     0.000011655788
       9        0.001575891787     0.000518904539     0.001229582712
      10        0.000003087119     0.000000381164     0.000000479495
      11       -0.000004580064    -0.000003108657    -0.000002243517
      12        0.000004337546    -0.000003721289    -0.000005626073
      13       -0.000001493519     0.000003781596     0.000008345061
      14        0.000013517488     0.000006622568    -0.000010337954
      15        0.000011935982     0.000007177258     0.000000591315
      16        0.000008817735    -0.000013644848    -0.000006864443

  **** Optimization is complete! (in 11 steps) ****
    Final optimized geometry and variables:
    Molecular point group: c1

    Geometry (in Angstrom), charge = 0, multiplicity = 1:

    O           -1.571551175391     1.025683408487     0.273419389482
    C           -1.031064078634    -0.031799524731     0.247081647354
    C            0.408928600847    -0.193563354432     0.686392328127
    C           -1.745112252896    -1.272207354118    -0.238110467628
    C            1.374679923041    -0.270903348185    -0.523209293825
    H            0.505542155340    -1.082019194348     1.300021475728
    H            0.646962340640     0.663622162031     1.300113079077
    C            2.539369782390     0.707470654445    -0.402404474445
    H            1.771776713673    -1.275385401671    -0.610204426629
    H            0.840095012879    -0.065345031682    -1.444130134456
    H            3.206974491361     0.622049425452    -1.251929557386
    H            3.116965843491     0.516316944381     0.495542469808
    H            2.182646598257     1.729869204255    -0.356906305465
    H           -1.136613938743    -1.816810000108    -0.950793896872
    H           -2.690322810434    -1.005558904100    -0.685404134055
    H           -1.919874927343    -1.931899132075     0.605877708770

  Mulliken Charges: (a.u.)
   Center  Symbol    Alpha    Beta     Spin     Total
       1     O     4.17558  4.17558  0.00000 -0.35115
       2     C     2.85926  2.85926  0.00000  0.28148
       3     C     3.10186  3.10186  0.00000 -0.20371
       4     C     3.15523  3.15523  0.00000 -0.31046
       5     C     3.09078  3.09078  0.00000 -0.18155
       6     H     0.44587  0.44587  0.00000  0.10826
       7     H     0.44016  0.44016  0.00000  0.11968
       8     C     3.14634  3.14634  0.00000 -0.29268
       9     H     0.44955  0.44955  0.00000  0.10090
      10     H     0.45105  0.45105  0.00000  0.09790
      11     H     0.44853  0.44853  0.00000  0.10293
      12     H     0.45358  0.45358  0.00000  0.09285
      13     H     0.44847  0.44847  0.00000  0.10306
      14     H     0.44967  0.44967  0.00000  0.10065
      15     H     0.43584  0.43584  0.00000  0.12832
      16     H     0.44824  0.44824  0.00000  0.10352

   Total alpha = 24.00000, Total beta = 24.00000, Total charge = -0.00000

*** Psi4 exiting successfully. Buy a developer a beer!
