  ==> Input File <==

--------------------------------------------------------------------------
set {
	reference rhf
	basis 6-31G*
}

set_num_threads( 4 )
memory 2 gb

molecule MOL {
0 1

H	 -1.070890	 -1.366565	 0.180696
O	 -1.422729	 -0.573567	 -0.196946
C	 -0.731407	 0.539437	 0.309156
C	 0.680193	 0.672443	 -0.251532
H	 -1.319765	 1.404033	 0.030086
H	 -0.700012	 0.506517	 1.397677
C	 0.987462	 -0.313513	 -1.378999
H	 0.816440	 1.689334	 -0.607926
H	 1.385744	 0.523271	 0.563014
H	 0.347240	 -0.143999	 -2.239566
H	 2.012923	 -0.210764	 -1.717879
H	 0.850287	 -1.341745	 -1.053138

	symmetry c1
}
set optking {
	frozen_dihedral = ("
		8 4 3 2
	")
}

ee = optimize('scf')
oeprop('DIPOLE', 'QUADRUPOLE', 'MULLIKEN_CHARGES')
f=open( 'psi4out.xyz', 'w' )
f.write( "12  " )
f.write( str(ee) + "\n" )
f.write( MOL.save_string_xyz() )
f.close()
--------------------------------------------------------------------------

    Molecular point group: c1
  Charge       = 0
  Multiplicity = 1
  Basis Set: 6-31G*
  Basis Set:
  @DF-RHF Final Energy:  -193.10140283728433
    Total Energy =                       -193.1014028372842404
    Molecular point group: c1
  Basis Set: 6-31G*
  Basis Set:
  Basis Set: 6-31G*
  Basis Set:
  @DF-RHF Final Energy:  -193.10205456240476
    Total Energy =                       -193.1020545624047884
  Basis Set: 6-31G*
  Basis Set:
  Basis Set: 6-31G*
  Basis Set:
  @DF-RHF Final Energy:  -193.10274643805786
    Total Energy =                       -193.1027464380578920
  Basis Set: 6-31G*
  Basis Set:
  Basis Set: 6-31G*
  Basis Set:
  @DF-RHF Final Energy:  -193.10276598784642
    Total Energy =                       -193.1027659878465101
  Basis Set: 6-31G*
  Basis Set:
  Basis Set: 6-31G*
  Basis Set:
  @DF-RHF Final Energy:  -193.10277072563420
    Total Energy =                       -193.1027707256341728
  Basis Set: 6-31G*
  Basis Set:
  Charge       = 0
  Multiplicity = 1
  Basis Set: 6-31G*
  Basis Set:

    Orbital Energies (a.u.)
    -----------------------

    Doubly Occupied:

       1A    -20.554075     2A    -11.268483     3A    -11.218805
       4A    -11.209979     5A     -1.360275     6A     -1.043268
       7A     -0.924690     8A     -0.807440     9A     -0.687619
      10A     -0.629715    11A     -0.624370    12A     -0.573996
      13A     -0.526068    14A     -0.509577    15A     -0.492489
      16A     -0.457753    17A     -0.430676

  @DF-RHF Final Energy:  -193.10277158502197

   => Energetics <=

    Nuclear Repulsion Energy =            133.3382470095742747
    One-Electron Energy =                -526.2434795429705900
    Two-Electron Energy =                 199.8024609483742324
    DFT Exchange-Correlation Energy =       0.0000000000000000
    Empirical Dispersion Energy =           0.0000000000000000
    PCM Polarization Energy =               0.0000000000000000
    EFP Energy =                            0.0000000000000000
    Total Energy =                       -193.1027715850220829
    Molecular point group: c1
  Basis Set: 6-31G*
  Basis Set:

  -Total Gradient:
     Atom            X                  Y                   Z
    ------   -----------------  -----------------  -----------------
       1       -0.000013515555    -0.000028556025    -0.000015613533
       2       -0.000908039269     0.001434012036    -0.002088498210
       3        0.001012457941    -0.002254233750     0.002166263766
       4        0.000989367695     0.001755858437     0.002995483308
       5        0.000038718536     0.000045589460     0.000013191960
       6        0.000033758107     0.000009987329    -0.000007969731
       7       -0.000023936979    -0.000002369360    -0.000026146560
       8       -0.001119462395    -0.000948230328    -0.003054908960
       9       -0.000003226054     0.000010655620     0.000024287659
      10        0.000006431257    -0.000002025193    -0.000016491409
      11       -0.000015175268    -0.000009153154     0.000006950506
      12        0.000002621987    -0.000011535070     0.000003451205

  **** Optimization is complete! (in 6 steps) ****
    Final optimized geometry and variables:
    Molecular point group: c1

    Geometry (in Angstrom), charge = 0, multiplicity = 1:

    H           -0.971436282415    -1.406540418200     0.566052560674
    O           -1.315290927903    -0.605036846948     0.197942419013
    C           -0.583879168976     0.493591712258     0.678488850735
    C            0.859013771296     0.605064851420     0.128608066694
    H           -1.156416266705     1.358240626984     0.371230222412
    H           -0.572402742689     0.492859146604     1.765656426071
    C            1.170728417450    -0.352970661144    -1.023833948991
    H            1.009740232732     1.616932672783    -0.236072077847
    H            1.579178972230     0.449339441032     0.927210824487
    H            0.477014562139    -0.221380422490    -1.845579953454
    H            2.175227824918    -0.173927995323    -1.394155951619
    H            1.118071932218    -1.391903519221    -0.715181179521

  Mulliken Charges: (a.u.)
   Center  Symbol    Alpha    Beta     Spin     Total
       1     H     0.28220  0.28220  0.00000  0.43560
       2     O     4.36802  4.36802  0.00000 -0.73604
       3     C     2.99515  2.99515  0.00000  0.00970
       4     C     3.18167  3.18167  0.00000 -0.36335
       5     H     0.41443  0.41443  0.00000  0.17114
       6     H     0.42814  0.42814  0.00000  0.14372
       7     C     3.23120  3.23120  0.00000 -0.46239
       8     H     0.41707  0.41707  0.00000  0.16585
       9     H     0.42098  0.42098  0.00000  0.15804
      10     H     0.41123  0.41123  0.00000  0.17753
      11     H     0.42152  0.42152  0.00000  0.15697
      12     H     0.42838  0.42838  0.00000  0.14323

   Total alpha = 17.00000, Total beta = 17.00000, Total charge =  0.00000
