  ==> Input File <==

--------------------------------------------------------------------------
set {
	reference rhf
	basis cc-pvtz
}

set_num_threads( 4 )
memory 2 gb

molecule MOL {
0 1

H	 3.721907	 -0.933076	 -0.066039
O	 2.824271	 -1.154299	 0.131461
C	 2.076458	 -0.067370	 -0.038225
C	 0.626018	 -0.337582	 0.258241
O	 2.538288	 0.965419	 -0.381593
C	 -0.267326	 0.883135	 0.076490
H	 0.325620	 -1.161483	 -0.378003
H	 0.574537	 -0.713685	 1.275261
C	 -1.726822	 0.642622	 0.463839
H	 -0.210803	 1.217591	 -0.953497
H	 0.129920	 1.693110	 0.675679
C	 -2.480891	 -0.340606	 -0.429852
H	 -2.243098	 1.597649	 0.438609
H	 -1.776542	 0.301208	 1.495542
C	 -3.201843	 0.347033	 -1.584779
H	 -1.780593	 -1.070911	 -0.826426
H	 -3.205902	 -0.898112	 0.154530
H	 -3.726291	 -0.371668	 -2.203734
H	 -2.503093	 0.882509	 -2.218586
H	 -3.930701	 1.063081	 -1.219818

	symmetry c1
}
set optking {
	frozen_dihedral = ("
		16 12 9 6
	")
}

ee = optimize('scf')
oeprop('DIPOLE', 'QUADRUPOLE', 'MULLIKEN_CHARGES')
f=open( 'psi4out.xyz', 'w' )
f.write( "20  " )
f.write( str(ee) + "\n" )
f.write( MOL.save_string_xyz() )
f.close()
--------------------------------------------------------------------------

    Molecular point group: c1
  Charge       = 0
  Multiplicity = 1
  Basis Set: CC-PVTZ
  Basis Set:
  @DF-RHF Final Energy:  -384.09087000909665
    Total Energy =                       -384.0908700090964203
    Molecular point group: c1
  Basis Set: CC-PVTZ
  Basis Set:
  Basis Set: CC-PVTZ
  Basis Set:
  @DF-RHF Final Energy:  -384.09120283753390
    Total Energy =                       -384.0912028375339560
  Basis Set: CC-PVTZ
  Basis Set:
  Basis Set: CC-PVTZ
  Basis Set:
  @DF-RHF Final Energy:  -384.09144631231891
    Total Energy =                       -384.0914463123189080
  Basis Set: CC-PVTZ
  Basis Set:
  Basis Set: CC-PVTZ
  Basis Set:
  @DF-RHF Final Energy:  -384.09126817799546
    Total Energy =                       -384.0912681779959712
  Basis Set: CC-PVTZ
  Basis Set:
  Basis Set: CC-PVTZ
  Basis Set:
  @DF-RHF Final Energy:  -384.09147311742163
    Total Energy =                       -384.0914731174211170
  Basis Set: CC-PVTZ
  Basis Set:
  Basis Set: CC-PVTZ
  Basis Set:
  @DF-RHF Final Energy:  -384.09147413897438
    Total Energy =                       -384.0914741389743767
  Basis Set: CC-PVTZ
  Basis Set:
  Basis Set: CC-PVTZ
  Basis Set:
  @DF-RHF Final Energy:  -384.09147578965650
    Total Energy =                       -384.0914757896564993
  Basis Set: CC-PVTZ
  Basis Set:
  Charge       = 0
  Multiplicity = 1
  Basis Set: CC-PVTZ
  Basis Set:

    Orbital Energies (a.u.)
    -----------------------

    Doubly Occupied:

       1A    -20.604020     2A    -20.540655     3A    -11.373606
       4A    -11.238851     5A    -11.221375     6A    -11.218682
       7A    -11.218096     8A    -11.209580     9A     -1.477613
      10A     -1.369117    11A     -1.097115    12A     -1.040629
      13A     -0.960300    14A     -0.874613    15A     -0.817414
      16A     -0.774391    17A     -0.703804    18A     -0.693271
      19A     -0.669190    20A     -0.629432    21A     -0.615991
      22A     -0.588128    23A     -0.578820    24A     -0.566901
      25A     -0.523105    26A     -0.512994    27A     -0.509825
      28A     -0.484707    29A     -0.469795    30A     -0.461677
      31A     -0.458868    32A     -0.446532

  @DF-RHF Final Energy:  -384.09147590981280

   => Energetics <=

    Nuclear Repulsion Energy =            379.1407664853495021
    One-Electron Energy =               -1274.5662855129539821
    Two-Electron Energy =                 511.3340431177912819
    DFT Exchange-Correlation Energy =       0.0000000000000000
    Empirical Dispersion Energy =           0.0000000000000000
    PCM Polarization Energy =               0.0000000000000000
    EFP Energy =                            0.0000000000000000
    Total Energy =                       -384.0914759098131412
    Molecular point group: c1
  Basis Set: CC-PVTZ
  Basis Set:

  -Total Gradient:
     Atom            X                  Y                   Z
    ------   -----------------  -----------------  -----------------
       1        0.000001146024     0.000000624372     0.000001398319
       2       -0.000001768928    -0.000004606395    -0.000006923925
       3       -0.000002707745     0.000009099466     0.000002794944
       4        0.000000836646    -0.000010737208    -0.000032548015
       5        0.000001349979    -0.000000617574     0.000009274892
       6        0.000642903934    -0.001718889781     0.001190269457
       7       -0.000001392664     0.000003180508     0.000012169737
       8        0.000001347474     0.000007358670     0.000011887434
       9       -0.000799421131     0.002886014877    -0.002242153823
      10       -0.000001089663    -0.000002514324     0.000001340692
      11        0.000001011018     0.000000254502    -0.000000213641
      12       -0.000294731354    -0.003052491888     0.003309983421
      13       -0.000001262726     0.000002917215     0.000002249193
      14       -0.000003335954    -0.000002485272    -0.000002142123
      15       -0.000000574548     0.000005352268    -0.000000535655
      16        0.000458377323     0.001880832003    -0.002258797799
      17        0.000000677839    -0.000003069448     0.000001548959
      18        0.000000704160     0.000000106381     0.000000753202
      19       -0.000000749669    -0.000000182123     0.000000108751
      20       -0.000001320016    -0.000000146250    -0.000000464019

  **** Optimization is complete! (in 8 steps) ****
    Final optimized geometry and variables:
    Molecular point group: c1

    Geometry (in Angstrom), charge = 0, multiplicity = 1:

    H            3.640625708127    -1.018567557783     0.149913183588
    O            2.757430301548    -1.222925671238     0.418124903598
    C            1.983073294323    -0.175594862021     0.148160291248
    C            0.553439615076    -0.422530704225     0.547741012698
    O            2.409123867780     0.810048092254    -0.346834084286
    C           -0.367441591492     0.759740582445     0.273942897598
    H            0.233563477102    -1.319336071179     0.030037852399
    H            0.557495822232    -0.676984666477     1.602723207036
    C           -1.820818865228     0.496905927920     0.678226335981
    H           -0.310584248972     1.024158869227    -0.775836172617
    H            0.007237364257     1.619038144103     0.816779618581
    C           -2.591467494289    -0.444476723638    -0.261882187128
    H           -2.346028072497     1.444366921650     0.735251483261
    H           -1.829071910115     0.092000542160     1.686399078444
    C           -3.317766936399     0.298118839834    -1.382468459684
    H           -1.910090240689    -1.155278991712    -0.717658291136
    H           -3.312785663532    -1.022566859156     0.304493107886
    H           -3.813472107862    -0.393548852009    -2.054096920366
    H           -2.629561041317     0.893470802866    -1.972966339991
    H           -4.070633304692     0.967676697377    -0.980768945479

  Mulliken Charges: (a.u.)
   Center  Symbol    Alpha    Beta     Spin     Total
       1     H     0.38242  0.38242  0.00000  0.23515
       2     O     4.16042  4.16042  0.00000 -0.32084
       3     C     2.80327  2.80327  0.00000  0.39345
       4     C     3.11128  3.11128  0.00000 -0.22255
       5     O     4.19112  4.19112  0.00000 -0.38224
       6     C     3.09291  3.09291  0.00000 -0.18582
       7     H     0.43729  0.43729  0.00000  0.12543
       8     H     0.43731  0.43731  0.00000  0.12538
       9     C     3.10778  3.10778  0.00000 -0.21557
      10     H     0.44446  0.44446  0.00000  0.11109
      11     H     0.44035  0.44035  0.00000  0.11930
      12     C     3.09037  3.09037  0.00000 -0.18074
      13     H     0.44529  0.44529  0.00000  0.10942
      14     H     0.44873  0.44873  0.00000  0.10254
      15     C     3.14744  3.14744  0.00000 -0.29488
      16     H     0.45631  0.45631  0.00000  0.08739
      17     H     0.44696  0.44696  0.00000  0.10609
      18     H     0.44868  0.44868  0.00000  0.10264
      19     H     0.45359  0.45359  0.00000  0.09283
      20     H     0.45403  0.45403  0.00000  0.09193

   Total alpha = 32.00000, Total beta = 32.00000, Total charge = -0.00000
