  ==> Input File <==

--------------------------------------------------------------------------
set {
	reference rhf
	basis cc-pvtz
}

set_num_threads( 4 )
memory 2 gb

molecule MOL {
0 1

O	 0.074770	 1.259872	 0.000487
C	 0.029490	 0.077183	 0.000078
C	 -1.232113	 -0.748027	 0.000015
O	 1.106773	 -0.690081	 -0.000204
C	 -2.501422	 0.088592	 -0.000052
H	 -1.188777	 -1.400384	 -0.865133
H	 -1.188857	 -1.400312	 0.865225
H	 -2.548170	 0.725504	 -0.873205
H	 -3.371613	 -0.556398	 -0.000040
H	 -2.548215	 0.725571	 0.873047
C	 1.635439	 -1.066807	 1.255277
H	 1.928572	 -0.195758	 1.822359
H	 2.496103	 -1.680367	 1.044025
H	 0.907618	 -1.627967	 1.822392

	symmetry c1
}
set optking {
	frozen_dihedral = ("
		11 4 2 3
	")
}

ee = optimize('scf')
oeprop('DIPOLE', 'QUADRUPOLE', 'MULLIKEN_CHARGES')
f=open( 'psi4out.xyz', 'w' )
f.write( "14  " )
f.write( str(ee) + "\n" )
f.write( MOL.save_string_xyz() )
f.close()
--------------------------------------------------------------------------

    Molecular point group: c1
  Charge       = 0
  Multiplicity = 1
  Basis Set: CC-PVTZ
  Basis Set:
  @DF-RHF Final Energy:  -305.96676233126698
    Total Energy =                       -305.9667623312669207
    Molecular point group: c1
  Basis Set: CC-PVTZ
  Basis Set:
  Basis Set: CC-PVTZ
  Basis Set:
  @DF-RHF Final Energy:  -305.96785535247676
    Total Energy =                       -305.9678553524766471
  Basis Set: CC-PVTZ
  Basis Set:
  Basis Set: CC-PVTZ
  Basis Set:
  @DF-RHF Final Energy:  -305.96768016613339
    Total Energy =                       -305.9676801661333911
  Basis Set: CC-PVTZ
  Basis Set:
  Basis Set: CC-PVTZ
  Basis Set:
  @DF-RHF Final Energy:  -305.96806917444769
    Total Energy =                       -305.9680691744473506
  Basis Set: CC-PVTZ
  Basis Set:
  Basis Set: CC-PVTZ
  Basis Set:
  @DF-RHF Final Energy:  -305.96808100710462
    Total Energy =                       -305.9680810071045585
  Basis Set: CC-PVTZ
  Basis Set:
  Charge       = 0
  Multiplicity = 1
  Basis Set: CC-PVTZ
  Basis Set:

    Orbital Energies (a.u.)
    -----------------------

    Doubly Occupied:

       1A    -20.578539     2A    -20.546851     3A    -11.368677
       4A    -11.289861     5A    -11.242201     6A    -11.218342
       7A     -1.462612     8A     -1.370893     9A     -1.064211
      10A     -0.976681    11A     -0.893558    12A     -0.767767
      13A     -0.702881    14A     -0.681126    15A     -0.674409
      16A     -0.625386    17A     -0.616088    18A     -0.557292
      19A     -0.546831    20A     -0.526508    21A     -0.511783
      22A     -0.494400    23A     -0.459718    24A     -0.440392

  @DF-RHF Final Energy:  -305.96808156847283

   => Energetics <=

    Nuclear Repulsion Energy =            247.1273776420142951
    One-Electron Energy =                -906.9569020696217194
    Two-Electron Energy =                 353.8614428591345131
    DFT Exchange-Correlation Energy =       0.0000000000000000
    Empirical Dispersion Energy =           0.0000000000000000
    PCM Polarization Energy =               0.0000000000000000
    EFP Energy =                            0.0000000000000000
    Total Energy =                       -305.9680815684729396
    Molecular point group: c1
  Basis Set: CC-PVTZ
  Basis Set:

  -Total Gradient:
     Atom            X                  Y                   Z
    ------   -----------------  -----------------  -----------------
       1       -0.000027500644     0.000010817339     0.000004877629
       2       -0.000560363812    -0.001011416570    -0.003129689942
       3        0.000033263310     0.000034766914     0.002122548641
       4        0.001923943717     0.002950156584     0.000968337340
       5       -0.000028256476     0.000002187378     0.000010891709
       6        0.000004293787    -0.000001365750     0.000015973441
       7        0.000012802218     0.000003775575     0.000013594247
       8       -0.000001428422    -0.000000624506     0.000000031221
       9       -0.000011652183     0.000006132906    -0.000002461027
      10        0.000000950809    -0.000001907536    -0.000004575988
      11       -0.001368148539    -0.001980910328    -0.000009643835
      12       -0.000002207830    -0.000007618900    -0.000012314749
      13        0.000011087415    -0.000001873058     0.000008611724
      14        0.000013216648    -0.000002120047     0.000013819590

  **** Optimization is complete! (in 6 steps) ****
    Final optimized geometry and variables:
    Molecular point group: c1

    Geometry (in Angstrom), charge = 0, multiplicity = 1:

    O            0.203185684566     1.420781584087    -0.242149586847
    C            0.147359318033     0.246487851113    -0.221215539131
    C           -1.128626035511    -0.556062722665    -0.225789190936
    O            1.264690232414    -0.512482791227    -0.217569326650
    C           -2.389257773569     0.293471078204    -0.224343035215
    H           -1.088031590273    -1.203822241443    -1.095333686847
    H           -1.102302260168    -1.219229197361     0.632740236264
    H           -2.422802097909     0.937774571454    -1.092389574118
    H           -3.267351417764    -0.340627635123    -0.234117066223
    H           -2.432996487407     0.924198863802     0.653702641764
    C            1.791202033257    -0.873358406349     1.038457918286
    H            2.051636354289     0.007794076166     1.610999820471
    H            2.680292938743    -1.451964406808     0.847674788123
    H            1.090020487920    -1.478810977153     1.601677907679

  Mulliken Charges: (a.u.)
   Center  Symbol    Alpha    Beta     Spin     Total
       1     O     4.16814  4.16814  0.00000 -0.33629
       2     C     2.78997  2.78997  0.00000  0.42007
       3     C     3.10594  3.10594  0.00000 -0.21188
       4     O     4.16806  4.16806  0.00000 -0.33613
       5     C     3.13888  3.13888  0.00000 -0.27777
       6     H     0.43936  0.43936  0.00000  0.12128
       7     H     0.44600  0.44600  0.00000  0.10800
       8     H     0.44570  0.44570  0.00000  0.10860
       9     H     0.45051  0.45051  0.00000  0.09899
      10     H     0.44911  0.44911  0.00000  0.10179
      11     C     3.03421  3.03421  0.00000 -0.06842
      12     H     0.45479  0.45479  0.00000  0.09042
      13     H     0.44229  0.44229  0.00000  0.11543
      14     H     0.46705  0.46705  0.00000  0.06590

   Total alpha = 24.00000, Total beta = 24.00000, Total charge = -0.00000
