  ==> Input File <==

--------------------------------------------------------------------------
set {
	reference rhf
	basis 6-31G*
}

set_num_threads( 1 )
memory 2 gb

molecule MOL {
0 1

H	 3.276176	 0.174363	 -0.109463
N	 2.434251	 -0.367735	 -0.081097
C	 1.267428	 0.496480	 0.024474
H	 2.501951	 -0.965776	 0.720575
C	 -0.016086	 -0.325158	 -0.029487
H	 1.288818	 1.183521	 -0.816092
H	 1.267576	 1.109062	 0.929528
C	 -1.282277	 0.529072	 0.046735
H	 -0.012495	 -0.908639	 -0.945788
H	 -0.015903	 -1.041248	 0.791956
C	 -1.014392	 1.944866	 0.556115
H	 -2.005701	 0.043680	 0.698685
H	 -1.745384	 0.582318	 -0.936451
H	 -0.583162	 1.927003	 1.552830
H	 -1.929781	 2.526685	 0.601607
H	 -0.320324	 2.470273	 -0.093838

	symmetry c1
}
set optking {
	frozen_dihedral = ("
		6 3 5 9,
		1 2 3 6
	")
}

ee = energy('scf')
oeprop('DIPOLE', 'QUADRUPOLE', 'MULLIKEN_CHARGES')
f=open( 'psi4out.xyz', 'w' )
f.write( "16  " )
f.write( str(ee) + "\n" )
f.write( MOL.save_string_xyz() )
f.close()
--------------------------------------------------------------------------

    Molecular point group: c1

    Geometry (in Angstrom), charge = 0, multiplicity = 1:

       Center              X                  Y                   Z               Mass
    ------------   -----------------  -----------------  -----------------  -----------------
           H          2.957683897997    -0.287408813243    -0.225085022960     1.007825032070
           N          2.115758897997    -0.829506813243    -0.196719022960    14.003074004780
           C          0.948935897997     0.034708186757    -0.091148022960    12.000000000000
           H          2.183458897997    -1.427547813243     0.604952977040     1.007825032070
           C         -0.334578102003    -0.786929813243    -0.145109022960    12.000000000000
           H          0.970325897997     0.721749186757    -0.931714022960     1.007825032070
           H          0.949083897997     0.647290186757     0.813905977040     1.007825032070
           C         -1.600769102003     0.067300186757    -0.068887022960    12.000000000000
           H         -0.330987102003    -1.370410813243    -1.061410022960     1.007825032070
           H         -0.334395102003    -1.503019813243     0.676333977040     1.007825032070
           C         -1.332884102003     1.483094186757     0.440492977040    12.000000000000
           H         -2.324193102003    -0.418091813243     0.583062977040     1.007825032070
           H         -2.063876102003     0.120546186757    -1.052073022960     1.007825032070
           H         -0.901654102003     1.465231186757     1.437207977040     1.007825032070
           H         -2.248273102003     2.064913186757     0.485984977040     1.007825032070
           H         -0.638816102003     2.008501186757    -0.209460022960     1.007825032070

  Charge       = 0
  Multiplicity = 1
  Basis Set: 6-31G*
  Basis Set:

    Orbital Energies (a.u.)
    -----------------------

    Doubly Occupied:

       1A    -15.531134     2A    -11.238116     3A    -11.213884
       4A    -11.208298     5A    -11.207992     6A     -1.175889
       7A     -1.062386     8A     -0.949356     9A     -0.868513
      10A     -0.770253    11A     -0.660202    12A     -0.641275
      13A     -0.623062    14A     -0.569505    15A     -0.544559
      16A     -0.535816    17A     -0.517976    18A     -0.468757
      19A     -0.463630    20A     -0.448110    21A     -0.378463

  @DF-RHF Final Energy:  -212.30484204798336

   => Energetics <=

    Nuclear Repulsion Energy =            191.3408225915255798
    One-Electron Energy =                -665.1368520868087444
    Two-Electron Energy =                 261.4911874472999784
    DFT Exchange-Correlation Energy =       0.0000000000000000
    Empirical Dispersion Energy =           0.0000000000000000
    PCM Polarization Energy =               0.0000000000000000
    EFP Energy =                            0.0000000000000000
    Total Energy =                       -212.3048420479831861

  Mulliken Charges: (a.u.)
   Center  Symbol    Alpha    Beta     Spin     Total
       1     H     0.33291  0.33291  0.00000  0.33418
       2     N     3.92253  3.92253  0.00000 -0.84505
       3     C     3.06510  3.06510  0.00000 -0.13021
       4     H     0.33581  0.33581  0.00000  0.32837
       5     C     3.15437  3.15437  0.00000 -0.30874
       6     H     0.42034  0.42034  0.00000  0.15931
       7     H     0.43040  0.43040  0.00000  0.13920
       8     C     3.15593  3.15593  0.00000 -0.31187
       9     H     0.41043  0.41043  0.00000  0.17914
      10     H     0.42617  0.42617  0.00000  0.14766
      11     C     3.24884  3.24884  0.00000 -0.49767
      12     H     0.41991  0.41991  0.00000  0.16018
      13     H     0.41954  0.41954  0.00000  0.16091
      14     H     0.42082  0.42082  0.00000  0.15836
      15     H     0.41763  0.41763  0.00000  0.16474
      16     H     0.41926  0.41926  0.00000  0.16147

   Total alpha = 21.00000, Total beta = 21.00000, Total charge = -0.00000
