  ==> Input File <==

--------------------------------------------------------------------------
set {
	reference rhf
	basis 6-31G*
}

set_num_threads( 1 )
memory 2 gb

molecule MOL {
0 1

H	 -2.698709	 -0.000305	 0.034435
C	 -1.693833	 0.000034	 0.434417
O	 -0.828952	 -0.000968	 -0.659236
H	 -1.574200	 0.882896	 1.055746
H	 -1.574147	 -0.881698	 1.057355
C	 -1.322424	 0.420967	 -1.909420
C	 -2.422493	 -0.494187	 -2.443517
C	 -1.739178	 1.890414	 -1.908695
H	 -0.462123	 0.320456	 -2.560428
H	 -2.111552	 -1.531545	 -2.382252
H	 -2.626826	 -0.260788	 -3.483714
H	 -3.352638	 -0.381924	 -1.895438
H	 -0.955633	 2.503449	 -1.476604
H	 -1.913103	 2.227297	 -2.925909
H	 -2.653787	 2.057958	 -1.349000

	symmetry c1
}
set optking {
	frozen_dihedral = ("
		9 6 3 2
	")
}

ee = energy('scf')
oeprop('DIPOLE', 'QUADRUPOLE', 'MULLIKEN_CHARGES')
f=open( 'psi4out.xyz', 'w' )
f.write( "15  " )
f.write( str(ee) + "\n" )
f.write( MOL.save_string_xyz() )
f.close()
--------------------------------------------------------------------------

    Molecular point group: c1

    Geometry (in Angstrom), charge = 0, multiplicity = 1:

       Center              X                  Y                   Z               Mass
    ------------   -----------------  -----------------  -----------------  -----------------
           H         -1.085806858349    -0.361646002592     1.310278721709     1.007825032070
           C         -0.080930858349    -0.361307002592     1.710260721709    12.000000000000
           O          0.783950141651    -0.362309002592     0.616607721709    15.994914619560
           H          0.038702141651     0.521554997408     2.331589721709     1.007825032070
           H          0.038755141651    -1.243039002592     2.333198721709     1.007825032070
           C          0.290478141651     0.059625997408    -0.633576278291    12.000000000000
           C         -0.809590858349    -0.855528002592    -1.167673278291    12.000000000000
           C         -0.126275858349     1.529072997408    -0.632851278291    12.000000000000
           H          1.150779141651    -0.040885002592    -1.284584278291     1.007825032070
           H         -0.498649858349    -1.892886002592    -1.106408278291     1.007825032070
           H         -1.013923858349    -0.622129002592    -2.207870278291     1.007825032070
           H         -1.739735858349    -0.743265002592    -0.619594278291     1.007825032070
           H          0.657269141651     2.142107997408    -0.200760278291     1.007825032070
           H         -0.300200858349     1.865955997408    -1.650065278291     1.007825032070
           H         -1.040884858349     1.696616997408    -0.073156278291     1.007825032070

  Charge       = 0
  Multiplicity = 1
  Basis Set: 6-31G*
  Basis Set:

    Orbital Energies (a.u.)
    -----------------------

    Doubly Occupied:

       1A    -20.545473     2A    -11.275628     3A    -11.261143
       4A    -11.211303     5A    -11.210753     6A     -1.369538
       7A     -1.050529     8A     -0.940192     9A     -0.931349
      10A     -0.781734    11A     -0.677620    12A     -0.638630
      13A     -0.632537    14A     -0.574390    15A     -0.564289
      16A     -0.550184    17A     -0.537146    18A     -0.501754
      19A     -0.497732    20A     -0.439242    21A     -0.404248

  @DF-RHF Final Energy:  -232.13340292028698

   => Energetics <=

    Nuclear Repulsion Energy =            198.9673189723200153
    One-Electron Energy =                -709.0105288463876150
    Two-Electron Energy =                 277.9098069537815263
    DFT Exchange-Correlation Energy =       0.0000000000000000
    Empirical Dispersion Energy =           0.0000000000000000
    PCM Polarization Energy =               0.0000000000000000
    EFP Energy =                            0.0000000000000000
    Total Energy =                       -232.1334029202860734

  Mulliken Charges: (a.u.)
   Center  Symbol    Alpha    Beta     Spin     Total
       1     H     0.43302  0.43302  0.00000  0.13395
       2     C     3.07590  3.07590  0.00000 -0.15180
       3     O     4.31468  4.31468  0.00000 -0.62937
       4     H     0.42516  0.42516  0.00000  0.14968
       5     H     0.41709  0.41709  0.00000  0.16581
       6     C     2.91152  2.91152  0.00000  0.17695
       7     C     3.25298  3.25298  0.00000 -0.50596
       8     C     3.25169  3.25169  0.00000 -0.50337
       9     H     0.41455  0.41455  0.00000  0.17090
      10     H     0.41093  0.41093  0.00000  0.17814
      11     H     0.41898  0.41898  0.00000  0.16204
      12     H     0.42075  0.42075  0.00000  0.15849
      13     H     0.41116  0.41116  0.00000  0.17768
      14     H     0.41969  0.41969  0.00000  0.16061
      15     H     0.42188  0.42188  0.00000  0.15623

   Total alpha = 21.00000, Total beta = 21.00000, Total charge = -0.00000
