  ==> Input File <==

--------------------------------------------------------------------------
set {
	reference rhf
	basis 6-31G*
}

set_num_threads( 1 )
memory 2 gb

molecule MOL {
0 1

O	 0.885692	 0.153752	 -0.858595
C	 1.705091	 0.115954	 0.001797
C	 1.738110	 1.002375	 1.222877
O	 2.721346	 -0.737485	 -0.000216
C	 0.588069	 2.003457	 1.276583
H	 1.736817	 0.354016	 2.094853
H	 2.700301	 1.507182	 1.231678
C	 0.645648	 2.887257	 2.523436
H	 -0.354904	 1.466636	 1.248053
H	 0.610167	 2.621722	 0.384637
C	 -0.501278	 3.896936	 2.593914
H	 0.626776	 2.261253	 3.414368
H	 1.594512	 3.421074	 2.547505
C	 -0.442525	 4.780533	 3.839329
H	 -1.449876	 3.365104	 2.572559
H	 -0.483235	 4.523589	 1.705028
H	 -0.493625	 4.184438	 4.746122
H	 -1.267911	 5.485335	 3.860381
H	 0.480986	 5.351826	 3.871918
C	 4.024888	 -0.184556	 -0.001949
H	 4.179030	 0.422472	 -0.882452
H	 4.701782	 -1.024608	 -0.003642
H	 4.181981	 0.421185	 0.878906

	symmetry c1
}
set optking {
	frozen_dihedral = ("
		15 11 8 12,
		9 5 8 12,
		1 2 3 6,
		9 5 3 6
	")
}

ee = energy('scf')
oeprop('DIPOLE', 'QUADRUPOLE', 'MULLIKEN_CHARGES')
f=open( 'psi4out.xyz', 'w' )
f.write( "23  " )
f.write( str(ee) + "\n" )
f.write( MOL.save_string_xyz() )
f.close()
--------------------------------------------------------------------------

    Molecular point group: c1

    Geometry (in Angstrom), charge = 0, multiplicity = 1:

       Center              X                  Y                   Z               Mass
    ------------   -----------------  -----------------  -----------------  -----------------
           O         -0.403201703390    -1.378283084733    -2.024024594734    15.994914619560
           C          0.416197296610    -1.416081084733    -1.163632594734    12.000000000000
           C          0.449216296610    -0.529660084733     0.057447405266    12.000000000000
           O          1.432452296610    -2.269520084733    -1.165645594734    15.994914619560
           C         -0.700824703390     0.471421915267     0.111153405266    12.000000000000
           H          0.447923296610    -1.178019084733     0.929423405266     1.007825032070
           H          1.411407296610    -0.024853084733     0.066248405266     1.007825032070
           C         -0.643245703390     1.355221915267     1.358006405266    12.000000000000
           H         -1.643797703390    -0.065399084733     0.082623405266     1.007825032070
           H         -0.678726703390     1.089686915267    -0.780792594734     1.007825032070
           C         -1.790171703390     2.364900915267     1.428484405266    12.000000000000
           H         -0.662117703390     0.729217915267     2.248938405266     1.007825032070
           H          0.305618296610     1.889038915267     1.382075405266     1.007825032070
           C         -1.731418703390     3.248497915267     2.673899405266    12.000000000000
           H         -2.738769703390     1.833068915267     1.407129405266     1.007825032070
           H         -1.772128703390     2.991553915267     0.539598405266     1.007825032070
           H         -1.782518703390     2.652402915267     3.580692405266     1.007825032070
           H         -2.556804703390     3.953299915267     2.694951405266     1.007825032070
           H         -0.807907703390     3.819790915267     2.706488405266     1.007825032070
           C          2.735994296610    -1.716591084733    -1.167378594734    12.000000000000
           H          2.890136296610    -1.109563084733    -2.047881594734     1.007825032070
           H          3.412888296610    -2.556643084733    -1.169071594734     1.007825032070
           H          2.893087296610    -1.110850084733    -0.286523594734     1.007825032070

  Charge       = 0
  Multiplicity = 1
  Basis Set: 6-31G*
  Basis Set:

    Orbital Energies (a.u.)
    -----------------------

    Doubly Occupied:

       1A    -20.592795     2A    -20.553027     3A    -11.374098
       4A    -11.297147     5A    -11.238499     6A    -11.221674
       7A    -11.220409     8A    -11.218425     9A    -11.211494
      10A     -1.464856    11A     -1.369217    12A     -1.094994
      13A     -1.041503    14A     -0.986980    15A     -0.950847
      16A     -0.854002    17A     -0.798225    18A     -0.767515
      19A     -0.697234    20A     -0.681995    21A     -0.680849
      22A     -0.653212    23A     -0.623416    24A     -0.604316
      25A     -0.580932    26A     -0.566837    27A     -0.559988
      28A     -0.542544    29A     -0.511030    30A     -0.500648
      31A     -0.484353    32A     -0.476859    33A     -0.470213
      34A     -0.467718    35A     -0.452569    36A     -0.429510

  @DF-RHF Final Energy:  -422.95089669949488

   => Energetics <=

    Nuclear Repulsion Energy =            456.1833090887562889
    One-Electron Energy =               -1479.7887448098890673
    Two-Electron Energy =                 600.6545390216413125
    DFT Exchange-Correlation Energy =       0.0000000000000000
    Empirical Dispersion Energy =           0.0000000000000000
    PCM Polarization Energy =               0.0000000000000000
    EFP Energy =                            0.0000000000000000
    Total Energy =                       -422.9508966994915227

  Mulliken Charges: (a.u.)
   Center  Symbol    Alpha    Beta     Spin     Total
       1     O     4.26024  4.26024  0.00000 -0.52049
       2     C     2.60690  2.60690  0.00000  0.78621
       3     C     3.22566  3.22566  0.00000 -0.45132
       4     O     4.30543  4.30543  0.00000 -0.61086
       5     C     3.15093  3.15093  0.00000 -0.30186
       6     H     0.39868  0.39868  0.00000  0.20263
       7     H     0.40724  0.40724  0.00000  0.18553
       8     C     3.15301  3.15301  0.00000 -0.30601
       9     H     0.40981  0.40981  0.00000  0.18038
      10     H     0.41232  0.41232  0.00000  0.17536
      11     C     3.15171  3.15171  0.00000 -0.30342
      12     H     0.42402  0.42402  0.00000  0.15197
      13     H     0.42574  0.42574  0.00000  0.14853
      14     C     3.23962  3.23962  0.00000 -0.47923
      15     H     0.42060  0.42060  0.00000  0.15879
      16     H     0.42131  0.42131  0.00000  0.15738
      17     H     0.42169  0.42169  0.00000  0.15661
      18     H     0.41804  0.41804  0.00000  0.16392
      19     H     0.42223  0.42223  0.00000  0.15553
      20     C     3.09784  3.09784  0.00000 -0.19569
      21     H     0.41081  0.41081  0.00000  0.17837
      22     H     0.39877  0.39877  0.00000  0.20246
      23     H     0.41740  0.41740  0.00000  0.16520

   Total alpha = 36.00000, Total beta = 36.00000, Total charge = -0.00000
