                              Psi4 1.0.54 Driver

  ==> Input File <==

--------------------------------------------------------------------------
set {
	reference rhf
	basis cc-pvtz
}

set_num_threads( 4 )
memory 2 gb

molecule MOL {
0 1

H	 2.991820	 0.672001	 -1.044940
N	 2.174612	 0.099515	 -1.040527
C	 1.263552	 0.494993	 0.021953
H	 2.476843	 -0.844383	 -0.917851
C	 -0.016533	 -0.325589	 -0.026925
H	 1.022158	 1.542912	 -0.121541
H	 1.706870	 0.409211	 1.014976
C	 -1.280353	 0.525521	 0.047747
H	 -0.016686	 -0.912532	 -0.939714
H	 -0.014099	 -1.037598	 0.796369
C	 -2.560681	 -0.301323	 -0.007747
H	 -1.279957	 1.241025	 -0.770189
H	 -1.270445	 1.110526	 0.963468
H	 -2.617064	 -0.872870	 -0.928010
H	 -3.439525	 0.331102	 0.043462
H	 -2.609427	 -1.002736	 0.818585

	symmetry c1
}
set optking {
	frozen_dihedral = ("
		6 3 5 9
	")
}

ee,wfn = optimize('scf', return_wfn=True)
oeprop( wfn, 'DIPOLE', 'QUADRUPOLE', 'MULLIKEN_CHARGES')
f=open( 'psi4out.xyz', 'w' )
f.write( "16  " )
f.write( str(ee) + "\n" )
f.write( MOL.save_string_xyz() )
f.close()
--------------------------------------------------------------------------

    Molecular point group: c1
  Charge       = 0
  Multiplicity = 1
  Basis Set: CC-PVTZ
  Basis Set:
  @DF-RHF Final Energy:  -212.39485548742573
    Total Energy =                       -212.3948554874255024
    Molecular point group: c1
  Basis Set: CC-PVTZ
  Basis Set:
  Basis Set: CC-PVTZ
  Basis Set:
  @DF-RHF Final Energy:  -212.39511187356163
    Total Energy =                       -212.3951118735615751
  Basis Set: CC-PVTZ
  Basis Set:
  Basis Set: CC-PVTZ
  Basis Set:
  @DF-RHF Final Energy:  -212.39519475406979
    Total Energy =                       -212.3951947540699052
  Basis Set: CC-PVTZ
  Basis Set:
  Basis Set: CC-PVTZ
  Basis Set:
  @DF-RHF Final Energy:  -212.39519597872558
    Total Energy =                       -212.3951959787254964
  Basis Set: CC-PVTZ
  Basis Set:
  Charge       = 0
  Multiplicity = 1
  Basis Set: CC-PVTZ
  Basis Set:

    Orbital Energies (a.u.)
    -----------------------

    Doubly Occupied:

       1A    -15.527373     2A    -11.238051     3A    -11.212317
       4A    -11.207742     5A    -11.204887     6A     -1.177690
       7A     -1.059307     8A     -0.957800     9A     -0.845098
      10A     -0.793030    11A     -0.655829    12A     -0.647603
      13A     -0.596960    14A     -0.578234    15A     -0.572133
      16A     -0.516610    17A     -0.504512    18A     -0.467210
      19A     -0.465805    20A     -0.462153    21A     -0.382323

  @DF-RHF Final Energy:  -212.39519609808440

   => Energetics <=

    Nuclear Repulsion Energy =            186.5287256777360199
    One-Electron Energy =                -655.7025098307176449
    Two-Electron Energy =                 256.7785880548971704
    DFT Exchange-Correlation Energy =       0.0000000000000000
    Empirical Dispersion Energy =           0.0000000000000000
    PCM Polarization Energy =               0.0000000000000000
    EFP Energy =                            0.0000000000000000
    Total Energy =                       -212.3951960980844547
    Molecular point group: c1
  Basis Set: CC-PVTZ
  Basis Set:

  -Total Gradient:
     Atom            X                  Y                   Z
    ------   -----------------  -----------------  -----------------
       1        0.000022253250     0.000014187765    -0.000007322462
       2       -0.000029551563     0.000005526405     0.000006062885
       3        0.000668409779    -0.000843098542    -0.003243372120
       4        0.000002392827    -0.000018728679     0.000006297292
       5       -0.001688654969     0.002755777340    -0.000988759438
       6       -0.000328983299     0.000280046506     0.002875076865
       7        0.000008896905    -0.000013304003     0.000002705025
       8        0.000013616865     0.000004668950    -0.000006661629
       9        0.001321443418    -0.002183507910     0.001352764752
      10        0.000007249265     0.000008531221     0.000000367909
      11        0.000001718863    -0.000003156885     0.000003005511
      12        0.000000290057    -0.000007227192     0.000002200492
      13        0.000006747099    -0.000001277796    -0.000006003181
      14        0.000000589238     0.000003492966     0.000004905304
      15       -0.000005616742    -0.000003049591     0.000001738974
      16       -0.000000800995     0.000001119445    -0.000003006177

  **** Optimization is complete! (in 5 steps) ****
    Final optimized geometry and variables:
    Molecular point group: c1

    Geometry (in Angstrom), charge = 0, multiplicity = 1:

    H            3.091213277900     0.560273327712    -0.772406192204
    N            2.256515591068     0.014596498853    -0.819901755946
    C            1.320164668610     0.406194458352     0.223431167992
    H            2.526844042941    -0.941085596736    -0.711711582062
    C            0.023339980629    -0.414457776517     0.157659257776
    H            1.092601381988     1.458261653055     0.095128157506
    H            1.748237052130     0.318295462318     1.222017893848
    C           -1.244037739456     0.429980096356     0.245159615692
    H            0.023847396744    -0.987590591779    -0.763408222632
    H            0.014892715899    -1.145856286603     0.961661238454
    C           -2.520899063379    -0.402618903625     0.224614613817
    H           -1.257186421901     1.134565968294    -0.581319572694
    H           -1.217191831123     1.025698509266     1.154177597526
    H           -2.589972420442    -0.987914090498    -0.686243134696
    H           -3.401547744538     0.226935107419     0.280928417835
    H           -2.552977635797    -1.091787450879     1.062077898450

  Mulliken Charges: (a.u.)
   Center  Symbol    Alpha    Beta     Spin     Total
       1     H     0.43052  0.43052  0.00000  0.13896
       2     N     3.68540  3.68540  0.00000 -0.37079
       3     C     3.03010  3.03010  0.00000 -0.06020
       4     H     0.43097  0.43097  0.00000  0.13806
       5     C     3.08541  3.08541  0.00000 -0.17082
       6     H     0.45925  0.45925  0.00000  0.08150
       7     H     0.46649  0.46649  0.00000  0.06702
       8     C     3.08645  3.08645  0.00000 -0.17291
       9     H     0.45241  0.45241  0.00000  0.09518
      10     H     0.45642  0.45642  0.00000  0.08715
      11     C     3.15037  3.15037  0.00000 -0.30074
      12     H     0.45169  0.45169  0.00000  0.09662
      13     H     0.45545  0.45545  0.00000  0.08910
      14     H     0.45417  0.45417  0.00000  0.09167
      15     H     0.44895  0.44895  0.00000  0.10210
      16     H     0.45595  0.45595  0.00000  0.08810

   Total alpha = 21.00000, Total beta = 21.00000, Total charge = -0.00000

*** Psi4 exiting successfully. Buy a developer a beer!
