  ==> Input File <==

--------------------------------------------------------------------------
set {
	reference rhf
	basis 6-31G*
}

set_num_threads( 4 )
memory 2 gb

molecule MOL {
0 1

H	 -2.764407	 0.610681	 -0.381143
O	 -2.315789	 -0.143634	 -0.024262
C	 -0.945151	 -0.064130	 -0.333158
H	 -0.813375	 -0.223047	 -1.403232
C	 -0.232801	 -1.184051	 0.407206
C	 -0.355424	 1.302939	 0.054523
H	 -0.318824	 -0.992899	 1.473524
H	 -0.742411	 -2.122033	 0.217954
C	 1.248522	 -1.270719	 -0.013048
H	 -0.546144	 2.018388	 -0.742941
H	 -0.890929	 1.656788	 0.930149
C	 1.156425	 1.235120	 0.355905
H	 1.825384	 -1.683246	 0.809111
H	 1.357782	 -1.965923	 -0.840362
C	 1.828244	 0.099899	 -0.419275
H	 1.626109	 2.185622	 0.123525
H	 1.309438	 1.071213	 1.419539
H	 2.901447	 0.112642	 -0.255830
H	 1.681817	 0.263413	 -1.484607

	symmetry c1
}
set optking {
	frozen_dihedral = ("
		1 2 3 4
	")
}

ee = optimize('scf')
oeprop('DIPOLE', 'QUADRUPOLE', 'MULLIKEN_CHARGES')
f=open( 'psi4out.xyz', 'w' )
f.write( "19  " )
f.write( str(ee) + "\n" )
f.write( MOL.save_string_xyz() )
f.close()
--------------------------------------------------------------------------

    Molecular point group: c1
  Charge       = 0
  Multiplicity = 1
  Basis Set: 6-31G*
  Basis Set:
  @DF-RHF Final Energy:  -309.04849804381007
    Total Energy =                       -309.0484980438101275
    Molecular point group: c1
  Basis Set: 6-31G*
  Basis Set:
  Basis Set: 6-31G*
  Basis Set:
  @DF-RHF Final Energy:  -309.04850129083076
    Total Energy =                       -309.0485012908309272
  Basis Set: 6-31G*
  Basis Set:
  Charge       = 0
  Multiplicity = 1
  Basis Set: 6-31G*
  Basis Set:

    Orbital Energies (a.u.)
    -----------------------

    Doubly Occupied:

       1A    -20.549937     2A    -11.268731     3A    -11.218220
       4A    -11.216385     5A    -11.215412     6A    -11.215345
       7A    -11.208162     8A     -1.358978     9A     -1.108992
      10A     -1.002771    11A     -0.988294    12A     -0.844516
      13A     -0.836130    14A     -0.734889    15A     -0.693247
      16A     -0.663624    17A     -0.627638    18A     -0.591613
      19A     -0.578952    20A     -0.546086    21A     -0.528875
      22A     -0.519285    23A     -0.499539    24A     -0.486205
      25A     -0.463276    26A     -0.448874    27A     -0.427379
      28A     -0.413377

  @DF-RHF Final Energy:  -309.04850199946361

   => Energetics <=

    Nuclear Repulsion Energy =            331.4575136884310496
    One-Electron Energy =               -1076.5025699866985178
    Two-Electron Energy =                 435.9965542988038010
    DFT Exchange-Correlation Energy =       0.0000000000000000
    Empirical Dispersion Energy =           0.0000000000000000
    PCM Polarization Energy =               0.0000000000000000
    EFP Energy =                            0.0000000000000000
    Total Energy =                       -309.0485019994636673
    Molecular point group: c1
  Basis Set: 6-31G*
  Basis Set:

  -Total Gradient:
     Atom            X                  Y                   Z
    ------   -----------------  -----------------  -----------------
       1        0.000118295622     0.000398769016     0.000674725413
       2       -0.000136638921    -0.000655829753    -0.000801198471
       3       -0.000042327173     0.000924857990    -0.000015224682
       4        0.000049444810    -0.000678161948     0.000115506709
       5       -0.000012016288     0.000039564952     0.000001441592
       6        0.000030137399     0.000023699505     0.000005660066
       7        0.000001221709    -0.000009228992     0.000005647160
       8        0.000003665425    -0.000001008599     0.000001372139
       9        0.000012056497     0.000008424090    -0.000011229009
      10       -0.000008582908    -0.000015280983    -0.000013779701
      11       -0.000007656896     0.000001927974     0.000017221401
      12       -0.000028666004    -0.000013643701     0.000012600786
      13        0.000005187119     0.000005302446     0.000005090181
      14        0.000006731612     0.000006774841     0.000000209790
      15        0.000004243292    -0.000025055053     0.000004391343
      16       -0.000005890429    -0.000003905792     0.000000329462
      17        0.000009869367    -0.000001898412    -0.000000469382
      18        0.000003862574    -0.000009727635    -0.000005664959
      19       -0.000002936808     0.000004420057     0.000003370163

  **** Optimization is complete! (in 3 steps) ****
    Final optimized geometry and variables:
    Molecular point group: c1

    Geometry (in Angstrom), charge = 0, multiplicity = 1:

    H           -2.766296564084     0.605963832251    -0.388519118303
    O           -2.316071389551    -0.145844001996    -0.028311394872
    C           -0.944842227032    -0.063645673700    -0.333426377379
    H           -0.810837950866    -0.225584341670    -1.402710793519
    C           -0.232960872502    -1.183560295245     0.407759702681
    C           -0.355533458492     1.302727970489     0.055277477893
    H           -0.317851480529    -0.991428684035     1.473980062144
    H           -0.743792694866    -2.121307157594     0.220080519159
    C            1.247608580490    -1.271660755340    -0.014319069201
    H           -0.547354572751     2.019108900583    -0.741101276377
    H           -0.888685029577     1.655772967514     0.933100864334
    C            1.156680599129     1.234268558576     0.355068525478
    H            1.825460092714    -1.684976875250     0.806782868025
    H            1.355377304683    -1.966062247024    -0.842419157456
    C            1.827738399864     0.098933602146    -0.420605171937
    H            1.626232281643     2.184703624976     0.122269215788
    H            1.310564492229     1.070253202932     1.418486426390
    H            2.900936385420     0.111552202809    -0.257267828779
    H            1.681129757044     0.262800791181    -1.485784703142

  Mulliken Charges: (a.u.)
   Center  Symbol    Alpha    Beta     Spin     Total
       1     H     0.28273  0.28273  0.00000  0.43453
       2     O     4.37941  4.37941  0.00000 -0.75883
       3     C     2.90361  2.90361  0.00000  0.19277
       4     H     0.42969  0.42969  0.00000  0.14062
       5     C     3.16758  3.16758  0.00000 -0.33516
       6     C     3.17847  3.17847  0.00000 -0.35694
       7     H     0.41679  0.41679  0.00000  0.16643
       8     H     0.40872  0.40872  0.00000  0.18256
       9     C     3.16087  3.16087  0.00000 -0.32173
      10     H     0.42304  0.42304  0.00000  0.15393
      11     H     0.41282  0.41282  0.00000  0.17436
      12     C     3.16291  3.16291  0.00000 -0.32582
      13     H     0.41784  0.41784  0.00000  0.16432
      14     H     0.41830  0.41830  0.00000  0.16341
      15     C     3.16425  3.16425  0.00000 -0.32851
      16     H     0.41667  0.41667  0.00000  0.16666
      17     H     0.41832  0.41832  0.00000  0.16337
      18     H     0.41638  0.41638  0.00000  0.16723
      19     H     0.42161  0.42161  0.00000  0.15679

   Total alpha = 28.00000, Total beta = 28.00000, Total charge = -0.00000
