  ==> Input File <==

--------------------------------------------------------------------------
set {
	reference rhf
	basis 6-31G*
}

set_num_threads( 1 )
memory 2 gb

molecule MOL {
0 1

O	 -1.879349	 -0.831963	 1.795409
C	 -1.623389	 0.119752	 1.131336
C	 -2.371474	 1.424854	 1.169081
O	 -0.632575	 0.154573	 0.251549
H	 -2.776465	 1.643360	 0.187661
H	 -3.169757	 1.364342	 1.893594
H	 -1.692740	 2.228458	 1.430415
C	 0.160891	 -1.019931	 0.106212
C	 1.589627	 -0.672828	 0.480843
H	 0.089836	 -1.367806	 -0.916050
H	 -0.238459	 -1.792301	 0.749618
C	 2.246377	 0.346236	 -0.452210
H	 2.163194	 -1.597435	 0.473358
H	 1.604769	 -0.303424	 1.502885
C	 3.691736	 0.652107	 -0.061850
H	 2.219579	 -0.032311	 -1.472055
H	 1.666466	 1.263317	 -0.447249
H	 4.134505	 1.377213	 -0.737283
H	 4.305508	 -0.243868	 -0.089969
H	 3.748266	 1.059562	 0.943567

	symmetry c1
}
set optking {
	frozen_dihedral = ("
		16 12 9 8,
		12 9 8 10,
		1 2 4 8
	")
}

ee = energy('scf')
oeprop('DIPOLE', 'QUADRUPOLE', 'MULLIKEN_CHARGES')
f=open( 'psi4out.xyz', 'w' )
f.write( "20  " )
f.write( str(ee) + "\n" )
f.write( MOL.save_string_xyz() )
f.close()
--------------------------------------------------------------------------

    Molecular point group: c1

    Geometry (in Angstrom), charge = 0, multiplicity = 1:

       Center              X                  Y                   Z               Mass
    ------------   -----------------  -----------------  -----------------  -----------------
           O         -2.019732467793    -0.857761231356     1.237467874552    15.994914619560
           C         -1.763772467793     0.093953768644     0.573394874552    12.000000000000
           C         -2.511857467793     1.399055768644     0.611139874552    12.000000000000
           O         -0.772958467793     0.128774768644    -0.306392125448    15.994914619560
           H         -2.916848467793     1.617561768644    -0.370280125448     1.007825032070
           H         -3.310140467793     1.338543768644     1.335652874552     1.007825032070
           H         -1.833123467793     2.202659768644     0.872473874552     1.007825032070
           C          0.020507532207    -1.045729231356    -0.451729125448    12.000000000000
           C          1.449243532207    -0.698626231356    -0.077098125448    12.000000000000
           H         -0.050547467793    -1.393604231356    -1.473991125448     1.007825032070
           H         -0.378842467793    -1.818099231356     0.191676874552     1.007825032070
           C          2.105993532207     0.320437768644    -1.010151125448    12.000000000000
           H          2.022810532207    -1.623233231356    -0.084583125448     1.007825032070
           H          1.464385532207    -0.329222231356     0.944943874552     1.007825032070
           C          3.551352532207     0.626308768644    -0.619791125448    12.000000000000
           H          2.079195532207    -0.058109231356    -2.029996125448     1.007825032070
           H          1.526082532207     1.237518768644    -1.005190125448     1.007825032070
           H          3.994121532207     1.351414768644    -1.295224125448     1.007825032070
           H          4.165124532207    -0.269666231356    -0.647910125448     1.007825032070
           H          3.607882532207     1.033763768644     0.385625874552     1.007825032070

  Charge       = 0
  Multiplicity = 1
  Basis Set: 6-31G*
  Basis Set:

    Orbital Energies (a.u.)
    -----------------------

    Doubly Occupied:

       1A    -20.601802     2A    -20.543962     3A    -11.376497
       4A    -11.277998     5A    -11.234354     6A    -11.222677
       7A    -11.219070     8A    -11.212307     9A     -1.468986
      10A     -1.363010    11A     -1.084044    12A     -1.028652
      13A     -0.979926    14A     -0.881818    15A     -0.815565
      16A     -0.764518    17A     -0.698263    18A     -0.685855
      19A     -0.660904    20A     -0.629957    21A     -0.597340
      22A     -0.592508    23A     -0.569210    24A     -0.563908
      25A     -0.539950    26A     -0.525602    27A     -0.517453
      28A     -0.488629    29A     -0.474107    30A     -0.464304
      31A     -0.444086    32A     -0.439355

  @DF-RHF Final Energy:  -383.94266373754749

   => Energetics <=

    Nuclear Repulsion Energy =            387.4790122212818915
    One-Electron Energy =               -1290.9099422097638126
    Two-Electron Energy =                 519.4882662509346574
    DFT Exchange-Correlation Energy =       0.0000000000000000
    Empirical Dispersion Energy =           0.0000000000000000
    PCM Polarization Energy =               0.0000000000000000
    EFP Energy =                            0.0000000000000000
    Total Energy =                       -383.9426637375472637

  Mulliken Charges: (a.u.)
   Center  Symbol    Alpha    Beta     Spin     Total
       1     O     4.28404  4.28404  0.00000 -0.56807
       2     C     2.61900  2.61900  0.00000  0.76199
       3     C     3.28278  3.28278  0.00000 -0.56557
       4     O     4.30694  4.30694  0.00000 -0.61388
       5     H     0.39978  0.39978  0.00000  0.20044
       6     H     0.39666  0.39666  0.00000  0.20667
       7     H     0.40073  0.40073  0.00000  0.19854
       8     C     3.02051  3.02051  0.00000 -0.04103
       9     C     3.16077  3.16077  0.00000 -0.32153
      10     H     0.41419  0.41419  0.00000  0.17162
      11     H     0.38741  0.38741  0.00000  0.22519
      12     C     3.15454  3.15454  0.00000 -0.30908
      13     H     0.42043  0.42043  0.00000  0.15914
      14     H     0.41559  0.41559  0.00000  0.16882
      15     C     3.24011  3.24011  0.00000 -0.48023
      16     H     0.42349  0.42349  0.00000  0.15303
      17     H     0.41246  0.41246  0.00000  0.17507
      18     H     0.41802  0.41802  0.00000  0.16397
      19     H     0.42165  0.42165  0.00000  0.15669
      20     H     0.42089  0.42089  0.00000  0.15822

   Total alpha = 32.00000, Total beta = 32.00000, Total charge =  0.00000
