  ==> Input File <==

--------------------------------------------------------------------------
set {
	reference rhf
	basis cc-pvtz
}

set_num_threads( 4 )
memory 2 gb

molecule MOL {
0 1

H	 -1.081687	 2.176454	 2.654251
O	 -0.817393	 2.709724	 1.927152
C	 -0.460436	 1.903215	 0.839831
C	 0.878532	 1.228900	 1.064006
H	 -1.216417	 1.151699	 0.635268
H	 -0.397917	 2.548650	 -0.024568
O	 1.172093	 0.457955	 -0.054438
H	 0.835890	 0.604910	 1.958274
H	 1.643015	 1.984957	 1.229895
C	 2.395478	 -0.199028	 -0.000366
H	 2.505946	 -0.901710	 -0.823354
H	 3.174616	 0.545641	 -0.071768
H	 2.513730	 -0.742241	 0.934223

	symmetry c1
}
set optking {
	frozen_dihedral = ("
		4 7 10 13
	")
}

ee = optimize('scf')
oeprop('DIPOLE', 'QUADRUPOLE', 'MULLIKEN_CHARGES')
f=open( 'psi4out.xyz', 'w' )
f.write( "13  " )
f.write( str(ee) + "\n" )
f.write( MOL.save_string_xyz() )
f.close()
--------------------------------------------------------------------------

    Molecular point group: c1
  Charge       = 0
  Multiplicity = 1
  Basis Set: CC-PVTZ
  Basis Set:
  @DF-RHF Final Energy:  -268.06112277579803
    Total Energy =                       -268.0611227757979123
    Molecular point group: c1
  Basis Set: CC-PVTZ
  Basis Set:
  Basis Set: CC-PVTZ
  Basis Set:
  @DF-RHF Final Energy:  -268.06185876587108
    Total Energy =                       -268.0618587658711931
  Basis Set: CC-PVTZ
  Basis Set:
  Basis Set: CC-PVTZ
  Basis Set:
  @DF-RHF Final Energy:  -268.06204259102770
    Total Energy =                       -268.0620425910275344
  Basis Set: CC-PVTZ
  Basis Set:
  Charge       = 0
  Multiplicity = 1
  Basis Set: CC-PVTZ
  Basis Set:

    Orbital Energies (a.u.)
    -----------------------

    Doubly Occupied:

       1A    -20.555809     2A    -20.552883     3A    -11.269367
       4A    -11.267814     5A    -11.267483     6A     -1.391850
       7A     -1.369270     8A     -1.019728     9A     -0.914030
      10A     -0.842957    11A     -0.711894    12A     -0.676490
      13A     -0.663423    14A     -0.638788    15A     -0.598236
      16A     -0.570610    17A     -0.547493    18A     -0.491247
      19A     -0.483920    20A     -0.441716    21A     -0.424191

  @DF-RHF Final Energy:  -268.06204367972248

   => Energetics <=

    Nuclear Repulsion Energy =            190.5007124145744513
    One-Electron Energy =                -743.7271111926235108
    Two-Electron Energy =                 285.1643550983266095
    DFT Exchange-Correlation Energy =       0.0000000000000000
    Empirical Dispersion Energy =           0.0000000000000000
    PCM Polarization Energy =               0.0000000000000000
    EFP Energy =                            0.0000000000000000
    Total Energy =                       -268.0620436797224784
    Molecular point group: c1
  Basis Set: CC-PVTZ
  Basis Set:

  -Total Gradient:
     Atom            X                  Y                   Z
    ------   -----------------  -----------------  -----------------
       1        0.000006330465    -0.000013260011    -0.000009184304
       2        0.000092626345    -0.000047376968    -0.000051025863
       3       -0.000039375958    -0.000028717806    -0.000091949287
       4       -0.000452291358    -0.000989616597     0.000673694157
       5       -0.000003522936    -0.000002142266     0.000001821911
       6       -0.000021302439     0.000025201916    -0.000003073413
       7        0.000892319362     0.001685582266    -0.000585949703
       8        0.000005490993     0.000005753932     0.000018300147
       9        0.000013780478    -0.000013830102    -0.000038501279
      10       -0.000949513193    -0.001875130231    -0.000518781871
      11       -0.000062373398     0.000021809097    -0.000007737034
      12       -0.000031698719     0.000024958438    -0.000004283787
      13        0.000549530357     0.001206768327     0.000616670330

  **** Optimization is complete! (in 4 steps) ****
    Final optimized geometry and variables:
    Molecular point group: c1

    Geometry (in Angstrom), charge = 0, multiplicity = 1:

    H           -1.715848471976     0.941933004590     1.868523334383
    O           -1.449878644803     1.477694605429     1.143859118978
    C           -1.085906630427     0.674567619286     0.056450915283
    C            0.253537333190     0.003134951272     0.285987831772
    H           -1.838759661884    -0.078711544864    -0.153226471624
    H           -1.021185615614     1.322081051567    -0.806230739528
    O            0.551297728274    -0.768394706544    -0.830857741872
    H            0.209374421396    -0.621021345281     1.179746823698
    H            1.015525354730     0.761406599115     0.454467186107
    C            1.779834820125    -1.416662616775    -0.778660688541
    H            1.823611765627    -2.115807607108    -1.600657939627
    H            2.602133943331    -0.710996211833    -0.872712122528
    H            1.904969829088    -1.957317393343     0.156550860296

  Mulliken Charges: (a.u.)
   Center  Symbol    Alpha    Beta     Spin     Total
       1     H     0.39406  0.39406  0.00000  0.21188
       2     O     4.20212  4.20212  0.00000 -0.40424
       3     C     2.97354  2.97354  0.00000  0.05292
       4     C     2.96512  2.96512  0.00000  0.06976
       5     H     0.46699  0.46699  0.00000  0.06601
       6     H     0.45258  0.45258  0.00000  0.09484
       7     O     4.17572  4.17572  0.00000 -0.35145
       8     H     0.48121  0.48121  0.00000  0.03759
       9     H     0.47040  0.47040  0.00000  0.05921
      10     C     3.03138  3.03138  0.00000 -0.06275
      11     H     0.44638  0.44638  0.00000  0.10723
      12     H     0.46775  0.46775  0.00000  0.06449
      13     H     0.47274  0.47274  0.00000  0.05452

   Total alpha = 21.00000, Total beta = 21.00000, Total charge = -0.00000
