  ==> Input File <==

--------------------------------------------------------------------------
set {
	reference rhf
	basis 6-31G*
}

set_num_threads( 1 )
memory 2 gb

molecule MOL {
0 1

O	 3.225979	 0.970355	 -0.599647
C	 2.701189	 0.057885	 -0.047330
C	 1.245376	 -0.013843	 0.345420
O	 3.347903	 -1.046386	 0.304773
C	 0.455112	 1.231400	 -0.050772
H	 0.838542	 -0.913825	 -0.103701
H	 1.208210	 -0.175333	 1.419774
C	 -0.998893	 1.219485	 0.433193
H	 0.482531	 1.345121	 -1.130325
H	 0.957290	 2.103070	 0.354729
C	 -1.883438	 0.145884	 -0.207175
H	 -1.431207	 2.195402	 0.224832
H	 -1.019646	 1.105716	 1.516076
C	 -2.038939	 -1.097937	 0.670167
H	 -2.866660	 0.567294	 -0.410910
H	 -1.473512	 -0.152318	 -1.169469
C	 -2.916618	 -2.179696	 0.038021
H	 -2.461490	 -0.809749	 1.631225
H	 -1.055308	 -1.513644	 0.883139
C	 -3.069941	 -3.416822	 0.922165
H	 -3.899612	 -1.765691	 -0.176372
H	 -2.493481	 -2.472175	 -0.920724
H	 -3.696935	 -4.165049	 0.447147
H	 -3.523170	 -3.163030	 1.876298
H	 -2.106107	 -3.874515	 1.126654
C	 4.728119	 -1.109107	 -0.004993
H	 4.882018	 -1.033965	 -1.071845
H	 5.068212	 -2.067527	 0.355250
H	 5.265056	 -0.311663	 0.488280

	symmetry c1
}
set optking {
	frozen_dihedral = ("
		21 17 14 11,
		17 14 11 15,
		6 3 5 9,
		11 8 5 9,
		2 4 26 27,
		1 2 4 26,
		6 3 2 1
	")
}

ee = energy('scf')
oeprop('DIPOLE', 'QUADRUPOLE', 'MULLIKEN_CHARGES')
f=open( 'psi4out.xyz', 'w' )
f.write( "29  " )
f.write( str(ee) + "\n" )
f.write( MOL.save_string_xyz() )
f.close()
--------------------------------------------------------------------------

    Molecular point group: c1

    Geometry (in Angstrom), charge = 0, multiplicity = 1:

       Center              X                  Y                   Z               Mass
    ------------   -----------------  -----------------  -----------------  -----------------
           O          2.742646506059     1.466079012239    -0.763117565621    15.994914619560
           C          2.217856506059     0.553609012239    -0.210800565621    12.000000000000
           C          0.762043506059     0.481881012239     0.181949434379    12.000000000000
           O          2.864570506059    -0.550661987761     0.141302434379    15.994914619560
           C         -0.028220493941     1.727124012239    -0.214242565621    12.000000000000
           H          0.355209506059    -0.418100987761    -0.267171565621     1.007825032070
           H          0.724877506059     0.320391012239     1.256303434379     1.007825032070
           C         -1.482225493941     1.715209012239     0.269722434379    12.000000000000
           H         -0.000801493941     1.840845012239    -1.293795565621     1.007825032070
           H          0.473957506059     2.598794012239     0.191258434379     1.007825032070
           C         -2.366770493941     0.641608012239    -0.370645565621    12.000000000000
           H         -1.914539493941     2.691126012239     0.061361434379     1.007825032070
           H         -1.502978493941     1.601440012239     1.352605434379     1.007825032070
           C         -2.522271493941    -0.602212987761     0.506696434379    12.000000000000
           H         -3.349992493941     1.063018012239    -0.574380565621     1.007825032070
           H         -1.956844493941     0.343406012239    -1.332939565621     1.007825032070
           C         -3.399950493941    -1.683971987761    -0.125449565621    12.000000000000
           H         -2.944822493941    -0.314024987761     1.467754434379     1.007825032070
           H         -1.538640493941    -1.017919987761     0.719668434379     1.007825032070
           C         -3.553273493941    -2.921097987761     0.758694434379    12.000000000000
           H         -4.382944493941    -1.269966987761    -0.339842565621     1.007825032070
           H         -2.976813493941    -1.976450987761    -1.084194565621     1.007825032070
           H         -4.180267493941    -3.669324987761     0.283676434379     1.007825032070
           H         -4.006502493941    -2.667305987761     1.712827434379     1.007825032070
           H         -2.589439493941    -3.378790987761     0.963183434379     1.007825032070
           C          4.244786506059    -0.613382987761    -0.168463565621    12.000000000000
           H          4.398685506059    -0.538240987761    -1.235315565621     1.007825032070
           H          4.584879506059    -1.571802987761     0.191779434379     1.007825032070
           H          4.781723506059     0.184061012239     0.324809434379     1.007825032070

  Charge       = 0
  Multiplicity = 1
  Basis Set: 6-31G*
  Basis Set:

    Orbital Energies (a.u.)
    -----------------------

    Doubly Occupied:

       1A    -20.603579     2A    -20.545404     3A    -11.372077
       4A    -11.280831     5A    -11.235022     6A    -11.219080
       7A    -11.216481     8A    -11.216075     9A    -11.215208
      10A    -11.214638    11A    -11.209575    12A     -1.469273
      13A     -1.362707    14A     -1.099803    15A     -1.065518
      16A     -1.019785    17A     -0.976650    18A     -0.930836
      19A     -0.862033    20A     -0.802267    21A     -0.787421
      22A     -0.764509    23A     -0.701988    24A     -0.682793
      25A     -0.671863    26A     -0.649219    27A     -0.627675
      28A     -0.607511    29A     -0.595809    30A     -0.574942
      31A     -0.564881    32A     -0.562988    33A     -0.535601
      34A     -0.526160    35A     -0.516845    36A     -0.505370
      37A     -0.500616    38A     -0.477809    39A     -0.472579
      40A     -0.464510    41A     -0.458273    42A     -0.455314
      43A     -0.436963    44A     -0.434551

  @DF-RHF Final Energy:  -501.03888260936662

   => Energetics <=

    Nuclear Repulsion Energy =            627.1824022863664823
    One-Electron Energy =               -1925.4564298117777525
    Two-Electron Energy =                 797.2351449160460106
    DFT Exchange-Correlation Energy =       0.0000000000000000
    Empirical Dispersion Energy =           0.0000000000000000
    PCM Polarization Energy =               0.0000000000000000
    EFP Energy =                            0.0000000000000000
    Total Energy =                       -501.0388826093653734

  Mulliken Charges: (a.u.)
   Center  Symbol    Alpha    Beta     Spin     Total
       1     O     4.28597  4.28597  0.00000 -0.57194
       2     C     2.60374  2.60374  0.00000  0.79253
       3     C     3.21146  3.21146  0.00000 -0.42291
       4     O     4.30751  4.30751  0.00000 -0.61502
       5     C     3.15308  3.15308  0.00000 -0.30617
       6     H     0.39907  0.39907  0.00000  0.20187
       7     H     0.40084  0.40084  0.00000  0.19833
       8     C     3.16007  3.16007  0.00000 -0.32014
       9     H     0.41289  0.41289  0.00000  0.17422
      10     H     0.40951  0.40951  0.00000  0.18098
      11     C     3.15705  3.15705  0.00000 -0.31410
      12     H     0.41617  0.41617  0.00000  0.16765
      13     H     0.42187  0.42187  0.00000  0.15626
      14     C     3.15491  3.15491  0.00000 -0.30981
      15     H     0.41910  0.41910  0.00000  0.16181
      16     H     0.42188  0.42188  0.00000  0.15624
      17     C     3.15157  3.15157  0.00000 -0.30313
      18     H     0.42286  0.42286  0.00000  0.15428
      19     H     0.42317  0.42317  0.00000  0.15366
      20     C     3.23935  3.23935  0.00000 -0.47869
      21     H     0.42254  0.42254  0.00000  0.15493
      22     H     0.42359  0.42359  0.00000  0.15283
      23     H     0.41911  0.41911  0.00000  0.16179
      24     H     0.42172  0.42172  0.00000  0.15657
      25     H     0.42193  0.42193  0.00000  0.15615
      26     C     3.09244  3.09244  0.00000 -0.18489
      27     H     0.40908  0.40908  0.00000  0.18183
      28     H     0.40849  0.40849  0.00000  0.18301
      29     H     0.40906  0.40906  0.00000  0.18188

   Total alpha = 44.00000, Total beta = 44.00000, Total charge = -0.00000
