                              Psi4 1.0.54 Driver

  ==> Input File <==

--------------------------------------------------------------------------
set {
	reference rhf
	basis cc-pvtz
}

set_num_threads( 4 )
memory 2 gb

molecule MOL {
0 1

H	 -4.211511	 0.348369	 0.520016
O	 -3.496733	 -0.206462	 0.268120
C	 -2.302264	 0.528872	 0.237390
C	 -1.175688	 -0.398187	 -0.171891
H	 -2.380108	 1.352102	 -0.469720
H	 -2.093130	 0.956375	 1.215825
C	 0.196029	 0.106276	 0.266738
H	 -1.201873	 -0.515469	 -1.250677
H	 -1.365975	 -1.378728	 0.252664
C	 1.330220	 -0.826136	 -0.155230
H	 0.359542	 1.097229	 -0.145561
H	 0.212134	 0.218135	 1.348778
C	 2.719700	 -0.407669	 0.328325
H	 1.339388	 -0.911200	 -1.239363
H	 1.119001	 -1.821953	 0.224128
C	 3.241564	 0.893452	 -0.276737
H	 3.418299	 -1.204729	 0.093035
H	 2.711776	 -0.323368	 1.411960
H	 3.254204	 0.841071	 -1.360784
H	 2.634460	 1.745075	 0.005842
H	 4.254264	 1.092401	 0.054971

	symmetry c1
}
set optking {
	frozen_dihedral = ("
		2 3 4 8
	")
}

ee,wfn = optimize('scf', return_wfn=True)
oeprop( wfn, 'DIPOLE', 'QUADRUPOLE', 'MULLIKEN_CHARGES')
f=open( 'psi4out.xyz', 'w' )
f.write( "21  " )
f.write( str(ee) + "\n" )
f.write( MOL.save_string_xyz() )
f.close()
--------------------------------------------------------------------------

    Molecular point group: c1
  Charge       = 0
  Multiplicity = 1
  Basis Set: CC-PVTZ
  Basis Set:
  @DF-RHF Final Energy:  -310.33123682788710
    Total Energy =                       -310.3312368278869826
    Molecular point group: c1
  Basis Set: CC-PVTZ
  Basis Set:
  Basis Set: CC-PVTZ
  Basis Set:
  @DF-RHF Final Energy:  -310.33144103823901
    Total Energy =                       -310.3314410382391202
  Basis Set: CC-PVTZ
  Basis Set:
  Basis Set: CC-PVTZ
  Basis Set:
  @DF-RHF Final Energy:  -310.33147136076997
    Total Energy =                       -310.3314713607700241
  Basis Set: CC-PVTZ
  Basis Set:
  Charge       = 0
  Multiplicity = 1
  Basis Set: CC-PVTZ
  Basis Set:

    Orbital Energies (a.u.)
    -----------------------

    Doubly Occupied:

       1A    -20.545314     2A    -11.265080     3A    -11.212986
       4A    -11.212821     5A    -11.211028     6A    -11.209084
       7A    -11.206133     8A     -1.362825     9A     -1.087122
      10A     -1.034028    11A     -0.955059    12A     -0.876151
      13A     -0.807695    14A     -0.779134    15A     -0.698967
      16A     -0.657602    17A     -0.626306    18A     -0.605447
      19A     -0.587065    20A     -0.574138    21A     -0.536295
      22A     -0.522114    23A     -0.511289    24A     -0.485935
      25A     -0.482532    26A     -0.461151    27A     -0.455648
      28A     -0.444115    29A     -0.435364

  @DF-RHF Final Energy:  -310.33147044668215

   => Energetics <=

    Nuclear Repulsion Energy =            312.8702392611279492
    One-Electron Energy =               -1040.7065566032622428
    Two-Electron Energy =                 417.5048468954518057
    DFT Exchange-Correlation Energy =       0.0000000000000000
    Empirical Dispersion Energy =           0.0000000000000000
    PCM Polarization Energy =               0.0000000000000000
    EFP Energy =                            0.0000000000000000
    Total Energy =                       -310.3314704466824878
    Molecular point group: c1
  Basis Set: CC-PVTZ
  Basis Set:

  -Total Gradient:
     Atom            X                  Y                   Z
    ------   -----------------  -----------------  -----------------
       1       -0.000066512331     0.000021477732     0.000013717552
       2        0.000502093083    -0.000698478688     0.002833051162
       3       -0.000034638747     0.001558779189    -0.003844601715
       4       -0.002970365472    -0.004170338807     0.001308127906
       5        0.000022445369    -0.000046762782    -0.000022338498
       6        0.000128229711    -0.000010397094     0.000038072518
       7       -0.000040971071     0.000010104850     0.000139575319
       8        0.002406856394     0.003119019150    -0.000534000949
       9       -0.000015252641     0.000127108997     0.000073297803
      10        0.000004620831     0.000055042652    -0.000089639637
      11       -0.000078866453    -0.000063665753    -0.000011109885
      12        0.000082877593     0.000087236226     0.000097747273
      13       -0.000110677616     0.000073426100     0.000087505843
      14       -0.000010013748     0.000028328120    -0.000044116156
      15        0.000036618556    -0.000051500493    -0.000031785113
      16        0.000063429376    -0.000009615630    -0.000038073278
      17        0.000023925527    -0.000063628151     0.000013920356
      18       -0.000029469028     0.000038285028     0.000049743631
      19       -0.000015055086     0.000012482168    -0.000052059697
      20        0.000069198417    -0.000002778994     0.000037043976
      21        0.000031527340    -0.000014123818    -0.000024078409

  **** Optimization is complete! (in 4 steps) ****
    Final optimized geometry and variables:
    Molecular point group: c1

    Geometry (in Angstrom), charge = 0, multiplicity = 1:

    H           -4.225079011403     0.381500169327     0.418252039914
    O           -3.505362325927    -0.196118096855     0.242915012356
    C           -2.304568963407     0.529429726898     0.193541851024
    C           -1.178718266638    -0.413516793238    -0.196269993850
    H           -2.374718460355     1.346987186885    -0.519610660785
    H           -2.095364262498     0.963844017474     1.168994660364
    C            0.195788512648     0.123463074878     0.199589780883
    H           -1.194625682687    -0.563764407415    -1.271219095295
    H           -1.356695487333    -1.372453038711     0.275708844720
    C            1.337776830285    -0.778059941685    -0.265278277611
    H            0.321074187821     1.120657898655    -0.212786798578
    H            0.243308601412     0.231465348584     1.280720953660
    C            2.729558248021    -0.342650475135     0.196200828941
    H            1.325138785706    -0.842901062726    -1.350845021862
    H            1.153443272629    -1.784836033114     0.099351361645
    C            3.218673946309     0.973532995312    -0.403691710946
    H            3.436110735243    -1.125541523517    -0.062095512797
    H            2.741523904805    -0.270899593512     1.280685007513
    H            3.204470730052     0.936080267047    -1.488401936954
    H            2.607699518382     1.812849860668    -0.093836107541
    H            4.236779841425     1.181754646180    -0.094971667418

  Mulliken Charges: (a.u.)
   Center  Symbol    Alpha    Beta     Spin     Total
       1     H     0.39652  0.39652  0.00000  0.20696
       2     O     4.19570  4.19570  0.00000 -0.39140
       3     C     2.96321  2.96321  0.00000  0.07357
       4     C     3.08415  3.08415  0.00000 -0.16830
       5     H     0.47262  0.47262  0.00000  0.05476
       6     H     0.47700  0.47700  0.00000  0.04600
       7     C     3.10234  3.10234  0.00000 -0.20468
       8     H     0.45450  0.45450  0.00000  0.09101
       9     H     0.44686  0.44686  0.00000  0.10629
      10     C     3.09519  3.09519  0.00000 -0.19039
      11     H     0.45445  0.45445  0.00000  0.09111
      12     H     0.45437  0.45437  0.00000  0.09125
      13     C     3.08979  3.08979  0.00000 -0.17958
      14     H     0.45354  0.45354  0.00000  0.09292
      15     H     0.44854  0.44854  0.00000  0.10292
      16     C     3.15230  3.15230  0.00000 -0.30460
      17     H     0.44849  0.44849  0.00000  0.10301
      18     H     0.45478  0.45478  0.00000  0.09043
      19     H     0.45493  0.45493  0.00000  0.09014
      20     H     0.45424  0.45424  0.00000  0.09151
      21     H     0.44647  0.44647  0.00000  0.10705

   Total alpha = 29.00000, Total beta = 29.00000, Total charge = -0.00000

*** Psi4 exiting successfully. Buy a developer a beer!
