  ==> Input File <==

--------------------------------------------------------------------------
set {
	reference rhf
	basis 6-31G*
}

set_num_threads( 4 )
memory 2 gb

molecule MOL {
0 1

O	 -2.042549	 -1.228399	 -0.269030
C	 -1.653912	 -0.146171	 0.050137
C	 -0.332303	 0.024011	 0.778412
C	 -2.438579	 1.106236	 -0.272369
C	 0.845713	 -0.001731	 -0.208243
H	 -0.323783	 0.953829	 1.340327
H	 -0.235459	 -0.796807	 1.480410
C	 0.902376	 -1.294089	 -1.024105
H	 1.782013	 0.121606	 0.333249
H	 0.757362	 0.850682	 -0.875122
C	 2.067626	 -1.318642	 -2.012435
H	 0.981492	 -2.144176	 -0.349925
H	 -0.033243	 -1.417267	 -1.564486
H	 3.020604	 -1.231425	 -1.498355
H	 1.997807	 -0.498178	 -2.720535
H	 2.081046	 -2.244519	 -2.578649
H	 -3.277823	 0.863061	 -0.908988
H	 -1.806773	 1.843019	 -0.759671
H	 -2.802853	 1.554979	 0.648059

	symmetry c1
}
set optking {
	frozen_dihedral = ("
		9 5 3 2
	")
}

ee = optimize('scf')
oeprop('DIPOLE', 'QUADRUPOLE', 'MULLIKEN_CHARGES')
f=open( 'psi4out.xyz', 'w' )
f.write( "19  " )
f.write( str(ee) + "\n" )
f.write( MOL.save_string_xyz() )
f.close()
--------------------------------------------------------------------------

    Molecular point group: c1
  Charge       = 0
  Multiplicity = 1
  Basis Set: 6-31G*
  Basis Set:
  @DF-RHF Final Energy:  -309.06225159533182
    Total Energy =                       -309.0622515953318725
    Molecular point group: c1
  Basis Set: 6-31G*
  Basis Set:
  Basis Set: 6-31G*
  Basis Set:
  @DF-RHF Final Energy:  -309.06348628222270
    Total Energy =                       -309.0634862822225273
  Basis Set: 6-31G*
  Basis Set:
  Basis Set: 6-31G*
  Basis Set:
  @DF-RHF Final Energy:  -309.06348616162745
    Total Energy =                       -309.0634861616272246
  Basis Set: 6-31G*
  Basis Set:
  Basis Set: 6-31G*
  Basis Set:
  @DF-RHF Final Energy:  -309.06382140199480
    Total Energy =                       -309.0638214019946872
  Basis Set: 6-31G*
  Basis Set:
  @DF-RHF Final Energy:  -309.06408370443108
    Total Energy =                       -309.0640837044313116
  Basis Set: 6-31G*
  Basis Set:
  @DF-RHF Final Energy:  -309.06413397410449
    Total Energy =                       -309.0641339741043794
  Basis Set: 6-31G*
  Basis Set:
  Basis Set: 6-31G*
  Basis Set:
  @DF-RHF Final Energy:  -309.06414885423220
    Total Energy =                       -309.0641488542316324
  Basis Set: 6-31G*
  Basis Set:
  Basis Set: 6-31G*
  Basis Set:
  @DF-RHF Final Energy:  -309.06415222296283
    Total Energy =                       -309.0641522229625480
  Basis Set: 6-31G*
  Basis Set:
  Charge       = 0
  Multiplicity = 1
  Basis Set: 6-31G*
  Basis Set:

    Orbital Energies (a.u.)
    -----------------------

    Doubly Occupied:

       1A    -20.548567     2A    -11.324569     3A    -11.232607
       4A    -11.229983     5A    -11.228030     6A    -11.220116
       7A    -11.213165     8A     -1.393745     9A     -1.090957
      10A     -1.027028    11A     -0.982570    12A     -0.890228
      13A     -0.810105    14A     -0.730699    15A     -0.659547
      16A     -0.643624    17A     -0.621224    18A     -0.611479
      19A     -0.585027    20A     -0.574326    21A     -0.551608
      22A     -0.540193    23A     -0.514756    24A     -0.497296
      25A     -0.483684    26A     -0.471719    27A     -0.462962
      28A     -0.397765

  @DF-RHF Final Energy:  -309.06415258816185

   => Energetics <=

    Nuclear Repulsion Energy =            308.0299542872727443
    One-Electron Energy =               -1029.1130562336559251
    Two-Electron Energy =                 412.0189493582211071
    DFT Exchange-Correlation Energy =       0.0000000000000000
    Empirical Dispersion Energy =           0.0000000000000000
    PCM Polarization Energy =               0.0000000000000000
    EFP Energy =                            0.0000000000000000
    Total Energy =                       -309.0641525881620737
    Molecular point group: c1
  Basis Set: 6-31G*
  Basis Set:

  -Total Gradient:
     Atom            X                  Y                   Z
    ------   -----------------  -----------------  -----------------
       1       -0.000014355058     0.000016383087     0.000006335399
       2        0.000076468450    -0.000782974757     0.000056572831
       3       -0.000088667080     0.000831150935    -0.000059160540
       4        0.000035018008     0.000015323910    -0.000036788094
       5       -0.000086141049     0.000934655853    -0.000059312890
       6       -0.000006688002    -0.000000353429    -0.000002114997
       7       -0.000005105248    -0.000006534488     0.000005452861
       8        0.000040002958     0.000016541765     0.000025078920
       9        0.000088701434    -0.001010417542     0.000031154689
      10       -0.000006402391    -0.000001129626    -0.000000661499
      11        0.000001232084    -0.000014058603     0.000006308432
      12        0.000008307492    -0.000002386875     0.000003051952
      13       -0.000011290206     0.000018500074    -0.000005576494
      14       -0.000001533070    -0.000003486025    -0.000003649964
      15       -0.000007311827    -0.000000907220     0.000017514956
      16        0.000001364888    -0.000006548495    -0.000015389722
      17       -0.000004891679    -0.000003470494     0.000006706538
      18       -0.000007061390     0.000007344202     0.000011436873
      19       -0.000011648311    -0.000007632271     0.000013040749

  **** Optimization is complete! (in 9 steps) ****
    Final optimized geometry and variables:
    Molecular point group: c1

    Geometry (in Angstrom), charge = 0, multiplicity = 1:

    O           -1.874262766541    -0.809423899879     0.556350387467
    C           -1.299121769065     0.236166107079     0.577296475186
    C            0.076545020949     0.368732147855     1.205940928068
    C           -1.916464520312     1.484934006801    -0.017268547148
    C            1.218811183457     0.400514375065     0.173568461882
    H            0.112939135839     1.276754154286     1.802668697882
    H            0.207904768432    -0.477129161913     1.870490109058
    C            1.293620472036    -0.844079211663    -0.715040897718
    H            2.152781051199     0.496572382422     0.720820784737
    H            1.136835457375     1.289788409235    -0.447247150003
    C            2.492054946113    -0.811092786385    -1.662743683592
    H            1.349884941327    -1.728751050264    -0.086093322789
    H            0.379836422196    -0.945364480854    -1.293172436967
    H            3.427576628247    -0.757426948293    -1.113054862391
    H            2.447968748828     0.050319591453    -2.323552649129
    H            2.523655086008    -1.701092546646    -2.282949126708
    H           -2.823448529771     1.227333857003    -0.546267954565
    H           -1.227909051637     1.984238583280    -0.691246999444
    H           -2.153652435012     2.186620541246     0.778055613176

  Mulliken Charges: (a.u.)
   Center  Symbol    Alpha    Beta     Spin     Total
       1     O     4.26168  4.26168  0.00000 -0.52336
       2     C     2.73590  2.73590  0.00000  0.52821
       3     C     3.20245  3.20245  0.00000 -0.40491
       4     C     3.28982  3.28982  0.00000 -0.57963
       5     C     3.16246  3.16246  0.00000 -0.32491
       6     H     0.41376  0.41376  0.00000  0.17249
       7     H     0.40029  0.40029  0.00000  0.19942
       8     C     3.15436  3.15436  0.00000 -0.30873
       9     H     0.41428  0.41428  0.00000  0.17145
      10     H     0.42073  0.42073  0.00000  0.15854
      11     C     3.24066  3.24066  0.00000 -0.48132
      12     H     0.41596  0.41596  0.00000  0.16809
      13     H     0.41478  0.41478  0.00000  0.17044
      14     H     0.42151  0.42151  0.00000  0.15699
      15     H     0.42238  0.42238  0.00000  0.15524
      16     H     0.41606  0.41606  0.00000  0.16788
      17     H     0.39670  0.39670  0.00000  0.20661
      18     H     0.40936  0.40936  0.00000  0.18128
      19     H     0.40689  0.40689  0.00000  0.18622

   Total alpha = 28.00000, Total beta = 28.00000, Total charge =  0.00000
