  ==> Input File <==

--------------------------------------------------------------------------
set {
	reference rhf
	basis 6-31G*
}

set_num_threads( 4 )
memory 2 gb

molecule MOL {
0 1

H	 2.722275	 -0.524451	 0.797551
N	 2.332695	 -0.069570	 0.000000
C	 0.936681	 -0.007078	 0.000000
H	 2.781857	 0.806563	 -0.159443
C	 0.227108	 -0.002120	 -1.198267
C	 0.227108	 -0.002120	 1.198267
H	 0.761569	 -0.014657	 -2.132680
C	 -1.156334	 0.010459	 -1.192360
H	 0.761569	 -0.014657	 2.132680
C	 -1.156334	 0.010459	 1.192360
H	 -1.684791	 0.014915	 -2.129421
C	 -1.862085	 0.017996	 0.000000
H	 -1.684791	 0.014915	 2.129421
H	 -2.936703	 0.028387	 0.000000

	symmetry c1
}
set optking {
	frozen_dihedral = ("
		1 2 3 5
	")
}

ee = optimize('scf')
oeprop('DIPOLE', 'QUADRUPOLE', 'MULLIKEN_CHARGES')
f=open( 'psi4out.xyz', 'w' )
f.write( "14  " )
f.write( str(ee) + "\n" )
f.write( MOL.save_string_xyz() )
f.close()
--------------------------------------------------------------------------

    Molecular point group: c1
  Charge       = 0
  Multiplicity = 1
  Basis Set: 6-31G*
  Basis Set:
  @DF-RHF Final Energy:  -285.72522261437302
    Total Energy =                       -285.7252226143729672
    Molecular point group: c1
  Basis Set: 6-31G*
  Basis Set:
  Basis Set: 6-31G*
  Basis Set:
  @DF-RHF Final Energy:  -285.72587398561063
    Total Energy =                       -285.7258739856108605
  Basis Set: 6-31G*
  Basis Set:
  Basis Set: 6-31G*
  Basis Set:
  @DF-RHF Final Energy:  -285.72597895268513
    Total Energy =                       -285.7259789526851250
  Basis Set: 6-31G*
  Basis Set:
  Basis Set: 6-31G*
  Basis Set:
  @DF-RHF Final Energy:  -285.72601643333581
    Total Energy =                       -285.7260164333358716
  Basis Set: 6-31G*
  Basis Set:
  Basis Set: 6-31G*
  Basis Set:
  @DF-RHF Final Energy:  -285.72601988719276
    Total Energy =                       -285.7260198871928196
  Basis Set: 6-31G*
  Basis Set:
  Charge       = 0
  Multiplicity = 1
  Basis Set: 6-31G*
  Basis Set:

    Orbital Energies (a.u.)
    -----------------------

    Doubly Occupied:

       1A    -15.549130     2A    -11.261820     3A    -11.228964
       4A    -11.227508     5A    -11.223373     6A    -11.222365
       7A    -11.219055     8A     -1.208237     9A     -1.125575
      10A     -1.010411    11A     -0.984754    12A     -0.826251
      13A     -0.806775    14A     -0.701033    15A     -0.669758
      16A     -0.646490    17A     -0.616569    18A     -0.590378
      19A     -0.581006    20A     -0.506745    21A     -0.498660
      22A     -0.489062    23A     -0.417960    24A     -0.330420
      25A     -0.311398

  @DF-RHF Final Energy:  -285.72602019063919

   => Energetics <=

    Nuclear Repulsion Energy =            272.5166244099639812
    One-Electron Energy =                -925.9778958131760191
    Two-Electron Energy =                 367.7352512125728481
    DFT Exchange-Correlation Energy =       0.0000000000000000
    Empirical Dispersion Energy =           0.0000000000000000
    PCM Polarization Energy =               0.0000000000000000
    EFP Energy =                            0.0000000000000000
    Total Energy =                       -285.7260201906392467
    Molecular point group: c1
  Basis Set: 6-31G*
  Basis Set:

  -Total Gradient:
     Atom            X                  Y                   Z
    ------   -----------------  -----------------  -----------------
       1       -0.000157181831    -0.002960081691    -0.001608288467
       2        0.000149344188     0.002536557269     0.002068626830
       3        0.000107398892     0.002971377031    -0.000493442471
       4        0.000009788317     0.000006904424     0.000003231438
       5       -0.000176634993    -0.002557223242     0.000031350074
       6        0.000039815858     0.000024814808     0.000005751665
       7        0.000000510427     0.000001972991     0.000005590626
       8        0.000075366650     0.000003607171    -0.000023141958
       9       -0.000005378801    -0.000006405492    -0.000005743601
      10       -0.000027425556    -0.000023338545    -0.000023818913
      11       -0.000007898341    -0.000003543816    -0.000005094710
      12       -0.000010081270    -0.000003943770     0.000043658644
      13       -0.000003987939     0.000005187447     0.000005633401
      14        0.000006364402     0.000004115415    -0.000004312559

  **** Optimization is complete! (in 6 steps) ****
    Final optimized geometry and variables:
    Molecular point group: c1

    Geometry (in Angstrom), charge = 0, multiplicity = 1:

    H            2.735872704656    -0.520842678783     0.762009917842
    N            2.350239722845    -0.063934812210    -0.038505547258
    C            0.930167423454    -0.006958593521     0.002579619473
    H            2.773019585598     0.836482751333    -0.144447460311
    C            0.227182770510    -0.010364151950    -1.196442404764
    C            0.221046119199    -0.001658027096     1.196997401847
    H            0.777804885361    -0.047244856636    -2.118710577492
    C           -1.156208570345     0.024609698293    -1.198903791918
    H            0.755112104505    -0.005412576163     2.131961805687
    C           -1.165258156499     0.009193909434     1.193044944180
    H           -1.686214141211     0.028472502328    -2.134952379422
    C           -1.860044608851     0.030742982415    -0.004018783643
    H           -1.699288177347     0.008831448229     2.126820239719
    H           -2.935150531344     0.045501701171    -0.007384062811

  Mulliken Charges: (a.u.)
   Center  Symbol    Alpha    Beta     Spin     Total
       1     H     0.32404  0.32404  0.00000  0.35193
       2     N     3.94545  3.94545  0.00000 -0.89091
       3     C     2.88741  2.88741  0.00000  0.22518
       4     H     0.32109  0.32109  0.00000  0.35782
       5     C     3.10407  3.10407  0.00000 -0.20813
       6     C     3.11680  3.11680  0.00000 -0.23360
       7     H     0.39540  0.39540  0.00000  0.20919
       8     C     3.09750  3.09750  0.00000 -0.19500
       9     H     0.40396  0.40396  0.00000  0.19209
      10     C     3.09703  3.09703  0.00000 -0.19405
      11     H     0.40005  0.40005  0.00000  0.19989
      12     C     3.10577  3.10577  0.00000 -0.21154
      13     H     0.40036  0.40036  0.00000  0.19929
      14     H     0.40107  0.40107  0.00000  0.19786

   Total alpha = 25.00000, Total beta = 25.00000, Total charge = -0.00000
