                              Psi4 1.0.54 Driver

  ==> Input File <==

--------------------------------------------------------------------------
set {
	reference rhf
	basis cc-pvtz
}

set_num_threads( 4 )
memory 2 gb

molecule MOL {
0 1

H	 -3.436473	 1.252944	 -1.023892
O	 -3.458596	 0.315260	 -0.960865
C	 -3.176635	 -0.080824	 0.355601
C	 -1.763371	 0.265266	 0.799691
H	 -3.321825	 -1.153438	 0.379502
H	 -3.895468	 0.357385	 1.043382
C	 -0.673390	 -0.426948	 -0.013392
H	 -1.631049	 1.344913	 0.747560
H	 -1.664587	 -0.001624	 1.849167
C	 0.737842	 -0.043159	 0.423759
H	 -0.806103	 -0.190518	 -1.063345
H	 -0.797221	 -1.503753	 0.074146
C	 1.824000	 -0.743224	 -0.390623
H	 0.850588	 1.033777	 0.343840
H	 0.868587	 -0.286314	 1.476203
C	 3.213882	 -0.113024	 -0.286107
H	 1.523777	 -0.775475	 -1.435456
H	 1.889994	 -1.777344	 -0.063729
C	 3.328194	 1.284498	 -0.890266
H	 3.924487	 -0.765539	 -0.784144
H	 3.514738	 -0.079667	 0.757825
H	 3.027735	 1.283227	 -1.933242
H	 4.350766	 1.641334	 -0.842765
H	 2.708713	 2.004129	 -0.368749

	symmetry c1
}
set optking {
	frozen_dihedral = ("
		17 13 10 7
	")
}

ee,wfn = optimize('scf', return_wfn=True)
oeprop( wfn, 'DIPOLE', 'QUADRUPOLE', 'MULLIKEN_CHARGES')
f=open( 'psi4out.xyz', 'w' )
f.write( "24  " )
f.write( str(ee) + "\n" )
f.write( MOL.save_string_xyz() )
f.close()
--------------------------------------------------------------------------

    Molecular point group: c1
  Charge       = 0
  Multiplicity = 1
  Basis Set: CC-PVTZ
  Basis Set:
  @DF-RHF Final Energy:  -349.37905932849912
    Total Energy =                       -349.3790593284987267
    Molecular point group: c1
  Basis Set: CC-PVTZ
  Basis Set:
  Basis Set: CC-PVTZ
  Basis Set:
  @DF-RHF Final Energy:  -349.37870088317374
    Total Energy =                       -349.3787008831733374
  Basis Set: CC-PVTZ
  Basis Set:
  Basis Set: CC-PVTZ
  Basis Set:
  @DF-RHF Final Energy:  -349.37924704852708
    Total Energy =                       -349.3792470485267359
  Basis Set: CC-PVTZ
  Basis Set:
  Basis Set: CC-PVTZ
  Basis Set:
  @DF-RHF Final Energy:  -349.37930548115759
    Total Energy =                       -349.3793054811572460
  Basis Set: CC-PVTZ
  Basis Set:
  Basis Set: CC-PVTZ
  Basis Set:
  @DF-RHF Final Energy:  -349.37931701346110
    Total Energy =                       -349.3793170134606498
  Basis Set: CC-PVTZ
  Basis Set:
  Basis Set: CC-PVTZ
  Basis Set:
  @DF-RHF Final Energy:  -349.37932039760432
    Total Energy =                       -349.3793203976043742
  Basis Set: CC-PVTZ
  Basis Set:
  Charge       = 0
  Multiplicity = 1
  Basis Set: CC-PVTZ
  Basis Set:

    Orbital Energies (a.u.)
    -----------------------

    Doubly Occupied:

       1A    -20.546313     2A    -11.265517     3A    -11.215130
       4A    -11.212389     5A    -11.210123     6A    -11.209322
       7A    -11.208998     8A    -11.205291     9A     -1.364164
      10A     -1.089453    11A     -1.049357    12A     -0.986829
      13A     -0.916206    14A     -0.850491    15A     -0.801059
      16A     -0.778376    17A     -0.681760    18A     -0.654903
      19A     -0.625195    20A     -0.620950    21A     -0.600051
      22A     -0.581596    23A     -0.563890    24A     -0.537890
      25A     -0.515961    26A     -0.513025    27A     -0.497322
      28A     -0.473800    29A     -0.467993    30A     -0.461229
      31A     -0.457124    32A     -0.449811    33A     -0.421147

  @DF-RHF Final Energy:  -349.37932055386108

   => Energetics <=

    Nuclear Repulsion Energy =            385.3522326259040369
    One-Electron Energy =               -1237.3977749500577374
    Two-Electron Energy =                 502.6662217702932480
    DFT Exchange-Correlation Energy =       0.0000000000000000
    Empirical Dispersion Energy =           0.0000000000000000
    PCM Polarization Energy =               0.0000000000000000
    EFP Energy =                            0.0000000000000000
    Total Energy =                       -349.3793205538605093
    Molecular point group: c1
  Basis Set: CC-PVTZ
  Basis Set:

  -Total Gradient:
     Atom            X                  Y                   Z
    ------   -----------------  -----------------  -----------------
       1        0.000001883621    -0.000013892506     0.000007005583
       2        0.000001638023    -0.000004136489     0.000000216827
       3       -0.000003434300     0.000018917280     0.000003545176
       4       -0.000001983231    -0.000005913979    -0.000005371852
       5        0.000000212552     0.000011348525    -0.000004253257
       6        0.000000302258    -0.000001435012    -0.000007783890
       7        0.000011068923     0.001694687287    -0.001430907098
       8        0.000000852865    -0.000010676968     0.000001195600
       9        0.000006651001    -0.000003679370    -0.000011544284
      10       -0.000349209731    -0.003002304701     0.002135938213
      11       -0.000006317225    -0.000004973624     0.000007084707
      12        0.000002132813     0.000013327173     0.000002497352
      13        0.001711525175     0.004002263830    -0.001133787779
      14       -0.000006788665    -0.000027927056    -0.000000701841
      15       -0.000007640690     0.000008803012    -0.000003088082
      16        0.000013320517    -0.000004877582    -0.000014977873
      17       -0.001379243793    -0.002685332385     0.000440238328
      18        0.000000144805     0.000016044722     0.000000322700
      19       -0.000001391445     0.000009756580     0.000011206366
      20       -0.000010204134     0.000008503658     0.000008585647
      21        0.000004597039     0.000014150096    -0.000019937638
      22        0.000006371615    -0.000003625388     0.000034220591
      23       -0.000023131948    -0.000006473507    -0.000001481635
      24        0.000028643952    -0.000022553594    -0.000018221861

  **** Optimization is complete! (in 7 steps) ****
    Final optimized geometry and variables:
    Molecular point group: c1

    Geometry (in Angstrom), charge = 0, multiplicity = 1:

    H           -3.392553356790     1.241794859365    -0.827024482313
    O           -3.412978246565     0.302057708758    -0.815281381623
    C           -3.138685013123    -0.164322487584     0.479526317809
    C           -1.728554420679     0.158645528833     0.950312262404
    H           -3.282563609829    -1.236782130924     0.444073037467
    H           -3.862461999873     0.235095958757     1.185485778261
    C           -0.632880399554    -0.485244347489     0.106040474384
    H           -1.597819738384     1.239793576149     0.958860981879
    H           -1.635059384045    -0.165807572460     1.983837626553
    C            0.775420609300    -0.111418772583     0.560742996905
    H           -0.763849867951    -0.197677649846    -0.930862407335
    H           -0.750897689699    -1.566254840027     0.139432107732
    C            1.871647334771    -0.810068731242    -0.246386785220
    H            0.885109554849     0.966009635245     0.480513905384
    H            0.901129243518    -0.349318305813     1.614041003227
    C            3.269479679997    -0.208413658070    -0.095230974530
    H            1.590061860128    -0.836887257250    -1.296199953511
    H            1.908734002214    -1.851009863001     0.064276095121
    C            3.458053364195     1.140978495111    -0.784326750545
    H            3.992977239478    -0.907439999508    -0.503063591119
    H            3.505970928819    -0.111890403110     0.961395677468
    H            3.256059177994     1.063972689705    -1.847658970016
    H            4.476351186314     1.494011350524    -0.667213878782
    H            2.802470613847     1.901934898041    -0.378476958802

  Mulliken Charges: (a.u.)
   Center  Symbol    Alpha    Beta     Spin     Total
       1     H     0.39529  0.39529  0.00000  0.20942
       2     O     4.20367  4.20367  0.00000 -0.40734
       3     C     2.97765  2.97765  0.00000  0.04470
       4     C     3.10202  3.10202  0.00000 -0.20403
       5     H     0.45885  0.45885  0.00000  0.08229
       6     H     0.46020  0.46020  0.00000  0.07960
       7     C     3.08787  3.08787  0.00000 -0.17574
       8     H     0.45924  0.45924  0.00000  0.08152
       9     H     0.45314  0.45314  0.00000  0.09372
      10     C     3.09151  3.09151  0.00000 -0.18302
      11     H     0.44614  0.44614  0.00000  0.10772
      12     H     0.45504  0.45504  0.00000  0.08992
      13     C     3.09572  3.09572  0.00000 -0.19145
      14     H     0.45461  0.45461  0.00000  0.09078
      15     H     0.45408  0.45408  0.00000  0.09184
      16     C     3.09031  3.09031  0.00000 -0.18061
      17     H     0.45400  0.45400  0.00000  0.09200
      18     H     0.44964  0.44964  0.00000  0.10072
      19     C     3.15006  3.15006  0.00000 -0.30013
      20     H     0.44827  0.44827  0.00000  0.10346
      21     H     0.45548  0.45548  0.00000  0.08904
      22     H     0.45461  0.45461  0.00000  0.09079
      23     H     0.44734  0.44734  0.00000  0.10531
      24     H     0.45525  0.45525  0.00000  0.08949

   Total alpha = 33.00000, Total beta = 33.00000, Total charge =  0.00000

*** Psi4 exiting successfully. Buy a developer a beer!
