                              Psi4 1.0.54 Driver

  ==> Input File <==

--------------------------------------------------------------------------
set {
	reference rhf
	basis cc-pvtz
}

set_num_threads( 4 )
memory 2 gb

molecule MOL {
0 1

H	 2.646708	 0.758099	 0.000000
O	 2.258158	 -0.097743	 0.000000
C	 0.911162	 -0.015915	 0.000000
C	 0.336374	 1.084661	 0.614126
C	 0.110876	 -0.979964	 -0.583586
H	 0.972668	 1.822491	 1.061604
C	 -1.035716	 1.210539	 0.638633
H	 0.556807	 -1.834137	 -1.060225
C	 -1.265341	 -0.840502	 -0.551395
H	 -1.475616	 2.065549	 1.115965
C	 -1.848159	 0.251162	 0.057313
H	 -1.879506	 -1.593841	 -1.007037
H	 -2.915104	 0.356004	 0.080380

	symmetry c1
}
set optking {
	frozen_dihedral = ("
		4 3 2 1
	")
}

ee,wfn = optimize('scf', return_wfn=True)
oeprop( wfn, 'DIPOLE', 'QUADRUPOLE', 'MULLIKEN_CHARGES')
f=open( 'psi4out.xyz', 'w' )
f.write( "13  " )
f.write( str(ee) + "\n" )
f.write( MOL.save_string_xyz() )
f.close()
--------------------------------------------------------------------------

    Molecular point group: c1
  Charge       = 0
  Multiplicity = 1
  Basis Set: CC-PVTZ
  Basis Set:
  @DF-RHF Final Energy:  -305.66763875375170
    Total Energy =                       -305.6676387537517030
    Molecular point group: c1
  Basis Set: CC-PVTZ
  Basis Set:
  Basis Set: CC-PVTZ
  Basis Set:
  @DF-RHF Final Energy:  -305.66925978078547
    Total Energy =                       -305.6692597807852962
  Basis Set: CC-PVTZ
  Basis Set:
  Basis Set: CC-PVTZ
  Basis Set:
  @DF-RHF Final Energy:  -305.66943319058191
    Total Energy =                       -305.6694331905821400
  Basis Set: CC-PVTZ
  Basis Set:
  Basis Set: CC-PVTZ
  Basis Set:
  @DF-RHF Final Energy:  -305.66944993604648
    Total Energy =                       -305.6694499360467034
  Basis Set: CC-PVTZ
  Basis Set:
  Basis Set: CC-PVTZ
  Basis Set:
  @DF-RHF Final Energy:  -305.66945428879842
    Total Energy =                       -305.6694542887983062
  Basis Set: CC-PVTZ
  Basis Set:
  Charge       = 0
  Multiplicity = 1
  Basis Set: CC-PVTZ
  Basis Set:

    Orbital Energies (a.u.)
    -----------------------

    Doubly Occupied:

       1A    -20.581693     2A    -11.295559     3A    -11.234915
       4A    -11.233280     5A    -11.226211     6A    -11.221287
       7A    -11.220848     8A     -1.411451     9A     -1.152791
      10A     -1.022626    11A     -1.008402    12A     -0.848646
      13A     -0.826979    14A     -0.740909    15A     -0.687464
      16A     -0.653915    17A     -0.618378    18A     -0.598857
      19A     -0.591742    20A     -0.554357    21A     -0.517430
      22A     -0.494752    23A     -0.482492    24A     -0.342845
      25A     -0.317755

  @DF-RHF Final Energy:  -305.66945474825559

   => Energetics <=

    Nuclear Repulsion Energy =            273.7148609612947894
    One-Electron Energy =                -956.9974695420248736
    Two-Electron Energy =                 377.6131538324747225
    DFT Exchange-Correlation Energy =       0.0000000000000000
    Empirical Dispersion Energy =           0.0000000000000000
    PCM Polarization Energy =               0.0000000000000000
    EFP Energy =                            0.0000000000000000
    Total Energy =                       -305.6694547482553617
    Molecular point group: c1
  Basis Set: CC-PVTZ
  Basis Set:

  -Total Gradient:
     Atom            X                  Y                   Z
    ------   -----------------  -----------------  -----------------
       1       -0.000044491834    -0.000091934031    -0.002274515748
       2        0.000022585398    -0.000302076320     0.003677989375
       3        0.000143788328     0.001178979872    -0.002955937754
       4       -0.000042269632    -0.000774223689     0.001525360621
       5       -0.000046962056    -0.000002156911     0.000027492609
       6        0.000002945422    -0.000003398147    -0.000004137147
       7       -0.000007965444    -0.000019426303     0.000022228526
       8        0.000020819029     0.000008298537     0.000001099637
       9       -0.000020178212     0.000026165407     0.000019461328
      10       -0.000018029343    -0.000005561560    -0.000010018369
      11        0.000003260991    -0.000031685746    -0.000030065106
      12       -0.000004213996     0.000005043045    -0.000003110881
      13       -0.000009288647     0.000011975848     0.000004152907

  **** Optimization is complete! (in 6 steps) ****
    Final optimized geometry and variables:
    Molecular point group: c1

    Geometry (in Angstrom), charge = 0, multiplicity = 1:

    H            2.690387207000     0.593869714485    -0.094874674595
    O            2.250327983178    -0.235668829158    -0.049643764355
    C            0.907031034108    -0.068832796268    -0.027973171004
    C            0.316811139107     1.053581321289     0.523308347697
    C            0.120905497073    -1.088995736348    -0.533037663698
    H            0.930086921267     1.834855629022     0.933455661352
    C           -1.061466680384     1.161002046319     0.548263020137
    H            0.596358746789    -1.954930154860    -0.949803026509
    C           -1.253420710491    -0.974912629093    -0.491958218661
    H           -1.512959293855     2.037552435785     0.972681735719
    C           -1.854790023726     0.150219680279     0.043816161565
    H           -1.858640264033    -1.769131604700    -0.886019295617
    H           -2.923616923992     0.234898196917     0.069236064686

  Mulliken Charges: (a.u.)
   Center  Symbol    Alpha    Beta     Spin     Total
       1     H     0.38628  0.38628  0.00000  0.22745
       2     O     4.17972  4.17972  0.00000 -0.35945
       3     C     2.85773  2.85773  0.00000  0.28454
       4     C     3.12873  3.12873  0.00000 -0.25746
       5     C     3.11000  3.11000  0.00000 -0.22000
       6     H     0.43048  0.43048  0.00000  0.13905
       7     C     3.06577  3.06577  0.00000 -0.13153
       8     H     0.41841  0.41841  0.00000  0.16318
       9     C     3.05871  3.05871  0.00000 -0.11742
      10     H     0.42233  0.42233  0.00000  0.15535
      11     C     3.09579  3.09579  0.00000 -0.19159
      12     H     0.42230  0.42230  0.00000  0.15540
      13     H     0.42375  0.42375  0.00000  0.15250

   Total alpha = 25.00000, Total beta = 25.00000, Total charge =  0.00000

*** Psi4 exiting successfully. Buy a developer a beer!
