  ==> Input File <==

--------------------------------------------------------------------------
set {
	reference rhf
	basis 6-31G*
}

set_num_threads( 4 )
memory 2 gb

molecule MOL {
0 1

O	 -2.821601	 1.309235	 -0.001213
C	 -2.668563	 0.129746	 -0.000350
C	 -3.801572	 -0.864014	 -0.000442
O	 -1.481751	 -0.454642	 0.000584
H	 -4.417280	 -0.689587	 -0.874708
H	 -3.443784	 -1.883046	 -0.000565
H	 -4.417179	 -0.689832	 0.873954
C	 -0.334255	 0.388708	 0.000906
C	 0.891947	 -0.504646	 0.000751
H	 -0.365390	 1.025305	 -0.873475
H	 -0.365484	 1.024911	 0.875569
C	 2.191998	 0.301789	 0.000897
H	 0.855148	 -1.151283	 -0.871571
H	 0.855132	 -1.151660	 0.872805
C	 3.441114	 -0.581407	 0.000108
H	 2.215074	 0.954890	 -0.869742
H	 2.215465	 0.953923	 0.872248
C	 4.124951	 -0.643942	 -1.364927
H	 3.170489	 -1.586666	 0.315214
H	 4.145288	 -0.208375	 0.740416
H	 3.455911	 -1.045258	 -2.120801
H	 5.006130	 -1.277019	 -1.333713
H	 4.438334	 0.343309	 -1.692245

	symmetry c1
}
set optking {
	frozen_dihedral = ("
		19 15 12 16
	")
}

ee = optimize('scf')
oeprop('DIPOLE', 'QUADRUPOLE', 'MULLIKEN_CHARGES')
f=open( 'psi4out.xyz', 'w' )
f.write( "23  " )
f.write( str(ee) + "\n" )
f.write( MOL.save_string_xyz() )
f.close()
--------------------------------------------------------------------------

    Molecular point group: c1
  Charge       = 0
  Multiplicity = 1
  Basis Set: 6-31G*
  Basis Set:
  @DF-RHF Final Energy:  -422.97440325818093
    Total Energy =                       -422.9744032581814963
    Molecular point group: c1
  Basis Set: 6-31G*
  Basis Set:
  Basis Set: 6-31G*
  Basis Set:
  @DF-RHF Final Energy:  -422.97469893324592
    Total Energy =                       -422.9746989332462590
  Basis Set: 6-31G*
  Basis Set:
  Basis Set: 6-31G*
  Basis Set:
  @DF-RHF Final Energy:  -422.97479113935412
    Total Energy =                       -422.9747911393537834
  Basis Set: 6-31G*
  Basis Set:
  Basis Set: 6-31G*
  Basis Set:
  @DF-RHF Final Energy:  -422.97461242726189
    Total Energy =                       -422.9746124272624002
  Basis Set: 6-31G*
  Basis Set:
  Basis Set: 6-31G*
  Basis Set:
  @DF-RHF Final Energy:  -422.97479682346273
    Total Energy =                       -422.9747968234626114
  Basis Set: 6-31G*
  Basis Set:
  Charge       = 0
  Multiplicity = 1
  Basis Set: 6-31G*
  Basis Set:

    Orbital Energies (a.u.)
    -----------------------

    Doubly Occupied:

       1A    -20.603043     2A    -20.540563     3A    -11.374110
       4A    -11.281327     5A    -11.232412     6A    -11.224582
       7A    -11.223783     8A    -11.221568     9A    -11.213351
      10A     -1.467970    11A     -1.360762    12A     -1.093137
      13A     -1.041028    14A     -1.002655    15A     -0.930277
      16A     -0.845944    17A     -0.799919    18A     -0.773753
      19A     -0.691356    20A     -0.685313    21A     -0.669286
      22A     -0.635240    23A     -0.615517    24A     -0.595719
      25A     -0.580100    26A     -0.571339    27A     -0.547835
      28A     -0.531749    29A     -0.528136    30A     -0.504784
      31A     -0.499414    32A     -0.474479    33A     -0.465718
      34A     -0.464486    35A     -0.451333    36A     -0.435250

  @DF-RHF Final Energy:  -422.97479701106386

   => Energetics <=

    Nuclear Repulsion Energy =            452.0853989943111628
    One-Electron Energy =               -1471.7659133847078010
    Two-Electron Energy =                 596.7057173793327820
    DFT Exchange-Correlation Energy =       0.0000000000000000
    Empirical Dispersion Energy =           0.0000000000000000
    PCM Polarization Energy =               0.0000000000000000
    EFP Energy =                            0.0000000000000000
    Total Energy =                       -422.9747970110638562
    Molecular point group: c1
  Basis Set: 6-31G*
  Basis Set:

  -Total Gradient:
     Atom            X                  Y                   Z
    ------   -----------------  -----------------  -----------------
       1       -0.000001345057    -0.000001107200    -0.000005625005
       2       -0.000011182091    -0.000003866407     0.000017646074
       3       -0.000001069718     0.000002440696    -0.000004118917
       4       -0.000010704579     0.000006820172    -0.000008609821
       5       -0.000000668595    -0.000002175822    -0.000000837276
       6        0.000000798377     0.000000414495    -0.000000667707
       7       -0.000000071870     0.000001723530    -0.000000697906
       8       -0.000006556535    -0.000006434466    -0.000000147948
       9        0.000049422442     0.000011211208     0.000022229352
      10       -0.000000546973     0.000002766127     0.000002073355
      11        0.000000829520     0.000000913942    -0.000003012677
      12        0.001721425673     0.002368365024     0.001273122672
      13        0.000004212150    -0.000001472131     0.000004877219
      14       -0.000013733060    -0.000004898406     0.000001887170
      15        0.000410155296     0.000418354346     0.003165053126
      16       -0.001516066051    -0.002070681478    -0.001601876749
      17        0.000011778183    -0.000015957067     0.000002645524
      18       -0.000011254087     0.000012839137     0.000021913175
      19       -0.000624509281    -0.000730623591    -0.002878570838
      20       -0.000011624251     0.000014773557    -0.000004011370
      21       -0.000000290811     0.000010550798     0.000002589266
      22        0.000002042247    -0.000010759720    -0.000002439732
      23        0.000008959075    -0.000003196747    -0.000003420983

  **** Optimization is complete! (in 6 steps) ****
    Final optimized geometry and variables:
    Molecular point group: c1

    Geometry (in Angstrom), charge = 0, multiplicity = 1:

    O           -2.750451939585     1.404357457595     0.113579504114
    C           -2.593813763705     0.225578784017     0.137187672226
    C           -3.723750210566    -0.771673944035     0.140219598010
    O           -1.405371495806    -0.354921459676     0.163696915520
    H           -4.329022918030    -0.614379992137    -0.744513998955
    H           -3.362935297927    -1.789403697129     0.162252888740
    H           -4.350741279534    -0.584360227852     1.003746360148
    C           -0.260384124021     0.491911473080     0.163795546368
    C            0.968423409656    -0.396807758379     0.197102838762
    H           -0.281650959828     1.112346156683    -0.722466808846
    H           -0.305221233076     1.144268367814     1.026033824897
    C            2.267916544230     0.414642646031     0.210903090884
    H            0.949354398181    -1.055167477225    -0.667458422238
    H            0.918927059781    -1.032745907265     1.076413430767
    C            3.527486883795    -0.475438250810     0.164707755693
    H            2.264496515550     1.078894461340    -0.650527694906
    H            2.283920765029     1.046687962528     1.094396706058
    C            4.154941393280    -0.550962822190    -1.229023600617
    H            3.268798009366    -1.484671286928     0.474285273179
    H            4.269378758748    -0.112267907262     0.868838944906
    H            3.440853704773    -0.916268386395    -1.962158244161
    H            5.009380498943    -1.220655428454    -1.239406496354
    H            4.494994038010     0.426393181297    -1.558770384805

  Mulliken Charges: (a.u.)
   Center  Symbol    Alpha    Beta     Spin     Total
       1     O     4.28389  4.28389  0.00000 -0.56779
       2     C     2.61533  2.61533  0.00000  0.76933
       3     C     3.28773  3.28773  0.00000 -0.57547
       4     O     4.31257  4.31257  0.00000 -0.62514
       5     H     0.39750  0.39750  0.00000  0.20501
       6     H     0.39988  0.39988  0.00000  0.20024
       7     H     0.39749  0.39749  0.00000  0.20501
       8     C     2.99616  2.99616  0.00000  0.00769
       9     C     3.16682  3.16682  0.00000 -0.33364
      10     H     0.41068  0.41068  0.00000  0.17863
      11     H     0.41075  0.41075  0.00000  0.17851
      12     C     3.16351  3.16351  0.00000 -0.32701
      13     H     0.41442  0.41442  0.00000  0.17116
      14     H     0.41370  0.41370  0.00000  0.17260
      15     C     3.15482  3.15482  0.00000 -0.30965
      16     H     0.41887  0.41887  0.00000  0.16227
      17     H     0.41743  0.41743  0.00000  0.16513
      18     C     3.24069  3.24069  0.00000 -0.48138
      19     H     0.41923  0.41923  0.00000  0.16155
      20     H     0.41771  0.41771  0.00000  0.16459
      21     H     0.42168  0.42168  0.00000  0.15664
      22     H     0.41881  0.41881  0.00000  0.16237
      23     H     0.42033  0.42033  0.00000  0.15934

   Total alpha = 36.00000, Total beta = 36.00000, Total charge =  0.00000
