  ==> Input File <==

--------------------------------------------------------------------------
set {
	reference rhf
	basis 6-31G*
}

set_num_threads( 1 )
memory 2 gb

molecule MOL {
0 1

H	 2.694359	 -0.497538	 -1.039746
N	 2.434251	 -0.367735	 -0.081097
C	 1.267428	 0.496480	 0.024474
H	 3.221972	 0.048116	 0.378771
C	 -0.016086	 -0.325158	 -0.029487
H	 1.288818	 1.183521	 -0.816092
H	 1.267576	 1.109062	 0.929528
C	 -1.282277	 0.529072	 0.046735
H	 -0.012495	 -0.908639	 -0.945788
H	 -0.015903	 -1.041248	 0.791956
C	 -2.563920	 -0.301775	 -0.006060
H	 -1.284084	 1.244622	 -0.773004
H	 -1.271387	 1.115393	 0.963286
H	 -2.621848	 -0.873522	 -0.927727
H	 -3.445135	 0.329952	 0.047812
H	 -2.609542	 -1.004582	 0.821105

	symmetry c1
}
set optking {
	frozen_dihedral = ("
		6 3 5 9,
		12 8 5 9
	")
}

ee = energy('scf')
oeprop('DIPOLE', 'QUADRUPOLE', 'MULLIKEN_CHARGES')
f=open( 'psi4out.xyz', 'w' )
f.write( "16  " )
f.write( str(ee) + "\n" )
f.write( MOL.save_string_xyz() )
f.close()
--------------------------------------------------------------------------

    Molecular point group: c1

    Geometry (in Angstrom), charge = 0, multiplicity = 1:

       Center              X                  Y                   Z               Mass
    ------------   -----------------  -----------------  -----------------  -----------------
           H          2.692453733608    -0.502253642520    -1.022205478845     1.007825032070
           N          2.432345733608    -0.372450642520    -0.063556478845    14.003074004780
           C          1.265522733608     0.491764357480     0.042014521155    12.000000000000
           H          3.220066733608     0.043400357480     0.396311521155     1.007825032070
           C         -0.017991266392    -0.329873642520    -0.011946478845    12.000000000000
           H          1.286912733608     1.178805357480    -0.798551478845     1.007825032070
           H          1.265670733608     1.104346357480     0.947068521155     1.007825032070
           C         -1.284182266392     0.524356357480     0.064275521155    12.000000000000
           H         -0.014400266392    -0.913354642520    -0.928247478845     1.007825032070
           H         -0.017808266392    -1.045963642520     0.809496521155     1.007825032070
           C         -2.565825266392    -0.306490642520     0.011480521155    12.000000000000
           H         -1.285989266392     1.239906357480    -0.755463478845     1.007825032070
           H         -1.273292266392     1.110677357480     0.980826521155     1.007825032070
           H         -2.623753266392    -0.878237642520    -0.910186478845     1.007825032070
           H         -3.447040266392     0.325236357480     0.065352521155     1.007825032070
           H         -2.611447266392    -1.009297642520     0.838645521155     1.007825032070

  Charge       = 0
  Multiplicity = 1
  Basis Set: 6-31G*
  Basis Set:

    Orbital Energies (a.u.)
    -----------------------

    Doubly Occupied:

       1A    -15.531458     2A    -11.240371     3A    -11.212658
       4A    -11.206267     5A    -11.205058     6A     -1.176352
       7A     -1.057519     8A     -0.957362     9A     -0.842109
      10A     -0.788024    11A     -0.672108    12A     -0.626066
      13A     -0.608215    14A     -0.576967    15A     -0.557259
      16A     -0.529804    17A     -0.495158    18A     -0.470708
      19A     -0.465847    20A     -0.457960    21A     -0.377065

  @DF-RHF Final Energy:  -212.31372716773834

   => Energetics <=

    Nuclear Repulsion Energy =            186.1388092814622439
    One-Electron Energy =                -654.7964249625404136
    Two-Electron Energy =                 256.3438885133395502
    DFT Exchange-Correlation Energy =       0.0000000000000000
    Empirical Dispersion Energy =           0.0000000000000000
    PCM Polarization Energy =               0.0000000000000000
    EFP Energy =                            0.0000000000000000
    Total Energy =                       -212.3137271677385911

  Mulliken Charges: (a.u.)
   Center  Symbol    Alpha    Beta     Spin     Total
       1     H     0.33284  0.33284  0.00000  0.33432
       2     N     3.92265  3.92265  0.00000 -0.84531
       3     C     3.06801  3.06801  0.00000 -0.13601
       4     H     0.33230  0.33230  0.00000  0.33541
       5     C     3.14112  3.14112  0.00000 -0.28225
       6     H     0.43191  0.43191  0.00000  0.13619
       7     H     0.42152  0.42152  0.00000  0.15695
       8     C     3.15692  3.15692  0.00000 -0.31383
       9     H     0.42547  0.42547  0.00000  0.14905
      10     H     0.41715  0.41715  0.00000  0.16570
      11     C     3.23820  3.23820  0.00000 -0.47641
      12     H     0.42473  0.42473  0.00000  0.15053
      13     H     0.42415  0.42415  0.00000  0.15171
      14     H     0.42174  0.42174  0.00000  0.15653
      15     H     0.42028  0.42028  0.00000  0.15943
      16     H     0.42100  0.42100  0.00000  0.15800

   Total alpha = 21.00000, Total beta = 21.00000, Total charge = -0.00000
