  ==> Input File <==

--------------------------------------------------------------------------
set {
	reference rhf
	basis 6-31G*
}

set_num_threads( 4 )
memory 2 gb

molecule MOL {
0 1

H	 -1.696318	 1.873667	 3.896310
O	 -1.000483	 1.300504	 3.607863
C	 -1.013692	 1.209845	 2.206364
C	 0.112984	 0.285351	 1.780151
H	 -1.968629	 0.819813	 1.856682
H	 -0.879083	 2.193092	 1.757539
C	 0.198102	 0.111031	 0.262842
H	 -0.035391	 -0.678207	 2.260014
H	 1.047213	 0.685017	 2.164808
C	 1.331804	 -0.827780	 -0.158768
H	 -0.752017	 -0.266307	 -0.107377
H	 0.346614	 1.082489	 -0.206980
C	 2.723619	 -0.410569	 0.329459
H	 1.342964	 -0.912588	 -1.244120
H	 1.116806	 -1.824343	 0.220779
C	 3.243875	 0.895854	 -0.272975
H	 3.424222	 -1.207124	 0.091250
H	 2.714788	 -0.329854	 1.414619
H	 3.251977	 0.848779	 -1.358681
H	 2.637085	 1.747371	 0.016682
H	 4.259473	 1.094070	 0.055697

	symmetry c1
}
set optking {
	frozen_dihedral = ("
		4 7 10 14
	")
}

ee = optimize('scf')
oeprop('DIPOLE', 'QUADRUPOLE', 'MULLIKEN_CHARGES')
f=open( 'psi4out.xyz', 'w' )
f.write( "21  " )
f.write( str(ee) + "\n" )
f.write( MOL.save_string_xyz() )
f.close()
--------------------------------------------------------------------------

    Molecular point group: c1
  Charge       = 0
  Multiplicity = 1
  Basis Set: 6-31G*
  Basis Set:
  @DF-RHF Final Energy:  -310.21032230833600
    Total Energy =                       -310.2103223083361740
    Molecular point group: c1
  Basis Set: 6-31G*
  Basis Set:
  Basis Set: 6-31G*
  Basis Set:
  @DF-RHF Final Energy:  -310.21092801772579
    Total Energy =                       -310.2109280177258483
  Basis Set: 6-31G*
  Basis Set:
  Basis Set: 6-31G*
  Basis Set:
  @DF-RHF Final Energy:  -310.21132228766993
    Total Energy =                       -310.2113222876703276
  Basis Set: 6-31G*
  Basis Set:
  Basis Set: 6-31G*
  Basis Set:
  @DF-RHF Final Energy:  -310.21135175277482
    Total Energy =                       -310.2113517527747604
  Basis Set: 6-31G*
  Basis Set:
  Basis Set: 6-31G*
  Basis Set:
  @DF-RHF Final Energy:  -310.21135434758162
    Total Energy =                       -310.2113543475818460
  Basis Set: 6-31G*
  Basis Set:
  Charge       = 0
  Multiplicity = 1
  Basis Set: 6-31G*
  Basis Set:

    Orbital Energies (a.u.)
    -----------------------

    Doubly Occupied:

       1A    -20.551995     2A    -11.267272     3A    -11.215872
       4A    -11.214075     5A    -11.213184     6A    -11.210506
       7A    -11.207364     8A     -1.358839     9A     -1.086162
      10A     -1.029755    11A     -0.955676    12A     -0.875358
      13A     -0.819083    14A     -0.764609    15A     -0.689948
      16A     -0.659933    17A     -0.627416    18A     -0.615848
      19A     -0.572774    20A     -0.559326    21A     -0.553343
      22A     -0.526400    23A     -0.500898    24A     -0.491555
      25A     -0.479068    26A     -0.456407    27A     -0.448839
      28A     -0.446794    29A     -0.434172

  @DF-RHF Final Energy:  -310.21135458524782

   => Energetics <=

    Nuclear Repulsion Energy =            318.8868788891377335
    One-Electron Energy =               -1052.5315262875417375
    Two-Electron Energy =                 423.4332928131562994
    DFT Exchange-Correlation Energy =       0.0000000000000000
    Empirical Dispersion Energy =           0.0000000000000000
    PCM Polarization Energy =               0.0000000000000000
    EFP Energy =                            0.0000000000000000
    Total Energy =                       -310.2113545852477046
    Molecular point group: c1
  Basis Set: 6-31G*
  Basis Set:

  -Total Gradient:
     Atom            X                  Y                   Z
    ------   -----------------  -----------------  -----------------
       1        0.000001124252     0.000000063883    -0.000009071748
       2        0.000014479265    -0.000002290486    -0.000009944326
       3       -0.000019205809    -0.000003332540    -0.000003107904
       4        0.000501121336     0.000581147758    -0.000019300418
       5       -0.000003375930     0.000000871981    -0.000002418540
       6        0.000002210319     0.000002097398     0.000007492956
       7       -0.000558935918    -0.000684679290     0.000049161871
       8       -0.000000803713     0.000000646225     0.000012760266
       9        0.000020515275    -0.000001393510    -0.000002264640
      10       -0.000637463860    -0.000738636632     0.000047939710
      11        0.000003215583    -0.000004503552    -0.000001800192
      12        0.000016711396    -0.000004315407    -0.000020964100
      13       -0.000015782824     0.000019047939     0.000023563512
      14        0.000681371095     0.000810892088    -0.000071886285
      15       -0.000023971337     0.000014709386     0.000010189872
      16        0.000025200317     0.000001633106    -0.000017214543
      17       -0.000013006432     0.000010117461    -0.000013633502
      18        0.000009944872    -0.000011864795     0.000022476583
      19        0.000008518167     0.000004306021    -0.000003155967
      20       -0.000011363573    -0.000003277585    -0.000001078178
      21       -0.000000502479     0.000008760550     0.000002255569

  **** Optimization is complete! (in 6 steps) ****
    Final optimized geometry and variables:
    Molecular point group: c1

    Geometry (in Angstrom), charge = 0, multiplicity = 1:

    H           -2.557053946523     1.462321816295     2.706843607378
    O           -1.817493460350     0.936522177282     2.437548200828
    C           -1.828254259255     0.786387211473     1.041175094753
    C           -0.632591162628    -0.062665243261     0.646134760814
    H           -2.750280322921     0.307740742630     0.714314556618
    H           -1.773641832180     1.757684584844     0.551087323443
    C           -0.534421141617    -0.266904378206    -0.867447107468
    H           -0.712159609164    -1.022102211657     1.150959341177
    H            0.260889708252     0.418818414605     1.029836276909
    C            0.570917879658    -1.235594542840    -1.308667382256
    H           -1.482803241006    -0.651785054368    -1.237649147976
    H           -0.394249685024     0.696292416062    -1.352847178278
    C            1.998393173872    -0.874419837442    -0.877357774346
    H            0.550245056503    -1.305201769371    -2.394533052558
    H            0.335886180750    -2.228779264134    -0.932154587649
    C            2.502422628002     0.462640190099    -1.423219731771
    H            2.661689987442    -1.664388551275    -1.221169733939
    H            2.072466172621    -0.874298140107     0.206457624788
    H            2.434649604833     0.493210319945    -2.507508470803
    H            1.933449116694     1.300608695899    -1.033426143499
    H            3.541714706240     0.622344906323    -1.153173970300

  Mulliken Charges: (a.u.)
   Center  Symbol    Alpha    Beta     Spin     Total
       1     H     0.28116  0.28116  0.00000  0.43768
       2     O     4.37190  4.37190  0.00000 -0.74381
       3     C     2.98927  2.98927  0.00000  0.02146
       4     C     3.16182  3.16182  0.00000 -0.32365
       5     H     0.43269  0.43269  0.00000  0.13462
       6     H     0.43303  0.43303  0.00000  0.13394
       7     C     3.16348  3.16348  0.00000 -0.32696
       8     H     0.41543  0.41543  0.00000  0.16914
       9     H     0.41255  0.41255  0.00000  0.17491
      10     C     3.15197  3.15197  0.00000 -0.30395
      11     H     0.42202  0.42202  0.00000  0.15596
      12     H     0.42165  0.42165  0.00000  0.15671
      13     C     3.15557  3.15557  0.00000 -0.31113
      14     H     0.42270  0.42270  0.00000  0.15459
      15     H     0.42145  0.42145  0.00000  0.15710
      16     C     3.24137  3.24137  0.00000 -0.48275
      17     H     0.42087  0.42087  0.00000  0.15827
      18     H     0.41906  0.41906  0.00000  0.16189
      19     H     0.42262  0.42262  0.00000  0.15476
      20     H     0.42058  0.42058  0.00000  0.15884
      21     H     0.41881  0.41881  0.00000  0.16238

   Total alpha = 29.00000, Total beta = 29.00000, Total charge =  0.00000
