  ==> Input File <==

--------------------------------------------------------------------------
set {
	reference rhf
	basis 6-31G*
}

set_num_threads( 1 )
memory 2 gb

molecule MOL {
0 1

O	 -1.492863	 -0.483586	 -0.816471
C	 -1.083277	 0.139568	 0.115197
C	 0.323299	 -0.082943	 0.642902
C	 -1.943845	 1.157346	 0.830304
C	 1.355627	 -0.005344	 -0.493127
H	 0.396251	 -1.044647	 1.143147
H	 0.528637	 0.693580	 1.371677
C	 2.786168	 -0.195604	 0.007473
H	 1.132807	 -0.760304	 -1.243899
H	 1.259610	 0.958506	 -0.981915
H	 3.495561	 -0.130713	 -0.811210
H	 2.912696	 -1.165395	 0.480041
H	 3.049284	 0.565503	 0.735850
H	 -1.948779	 0.973579	 1.900758
H	 -2.954020	 1.122341	 0.446825
H	 -1.534598	 2.152602	 0.678029

	symmetry c1
}
set optking {
	frozen_dihedral = ("
		9 5 3 2
	")
}

ee = energy('scf')
oeprop('DIPOLE', 'QUADRUPOLE', 'MULLIKEN_CHARGES')
f=open( 'psi4out.xyz', 'w' )
f.write( "16  " )
f.write( str(ee) + "\n" )
f.write( MOL.save_string_xyz() )
f.close()
--------------------------------------------------------------------------

    Molecular point group: c1

    Geometry (in Angstrom), charge = 0, multiplicity = 1:

       Center              X                  Y                   Z               Mass
    ------------   -----------------  -----------------  -----------------  -----------------
           O         -1.490126810594    -0.574354625320    -0.862037010424    15.994914619560
           C         -1.080540810594     0.048799374680     0.069630989576    12.000000000000
           C          0.326035189406    -0.173711625320     0.597335989576    12.000000000000
           C         -1.941108810594     1.066577374680     0.784737989576    12.000000000000
           C          1.358363189406    -0.096112625320    -0.538693010424    12.000000000000
           H          0.398987189406    -1.135415625320     1.097580989576     1.007825032070
           H          0.531373189406     0.602811374680     1.326110989576     1.007825032070
           C          2.788904189406    -0.286372625320    -0.038093010424    12.000000000000
           H          1.135543189406    -0.851072625320    -1.289465010424     1.007825032070
           H          1.262346189406     0.867737374680    -1.027481010424     1.007825032070
           H          3.498297189406    -0.221481625320    -0.856776010424     1.007825032070
           H          2.915432189406    -1.256163625320     0.434474989576     1.007825032070
           H          3.052020189406     0.474734374680     0.690283989576     1.007825032070
           H         -1.946042810594     0.882810374680     1.855191989576     1.007825032070
           H         -2.951283810594     1.031572374680     0.401258989576     1.007825032070
           H         -1.531861810594     2.061833374680     0.632462989576     1.007825032070

  Charge       = 0
  Multiplicity = 1
  Basis Set: 6-31G*
  Basis Set:

    Orbital Energies (a.u.)
    -----------------------

    Doubly Occupied:

       1A    -20.548404     2A    -11.325553     3A    -11.230694
       4A    -11.229381     5A    -11.225919     6A    -11.215529
       7A     -1.394393     8A     -1.078374     9A     -1.014951
      10A     -0.947934    11A     -0.824563    12A     -0.733961
      13A     -0.656165    14A     -0.650520    15A     -0.617367
      16A     -0.601671    17A     -0.571574    18A     -0.559950
      19A     -0.545060    20A     -0.509122    21A     -0.495835
      22A     -0.480736    23A     -0.471854    24A     -0.399088

  @DF-RHF Final Energy:  -270.02975193393553

   => Energetics <=

    Nuclear Repulsion Energy =            237.0156464938297063
    One-Electron Energy =                -835.4336395400828224
    Two-Electron Energy =                 328.3882411123171323
    DFT Exchange-Correlation Energy =       0.0000000000000000
    Empirical Dispersion Energy =           0.0000000000000000
    PCM Polarization Energy =               0.0000000000000000
    EFP Energy =                            0.0000000000000000
    Total Energy =                       -270.0297519339359269

  Mulliken Charges: (a.u.)
   Center  Symbol    Alpha    Beta     Spin     Total
       1     O     4.26255  4.26255  0.00000 -0.52509
       2     C     2.73558  2.73558  0.00000  0.52884
       3     C     3.20279  3.20279  0.00000 -0.40559
       4     C     3.28986  3.28986  0.00000 -0.57971
       5     C     3.15602  3.15602  0.00000 -0.31205
       6     H     0.40116  0.40116  0.00000  0.19769
       7     H     0.41755  0.41755  0.00000  0.16491
       8     C     3.24052  3.24052  0.00000 -0.48104
       9     H     0.40319  0.40319  0.00000  0.19362
      10     H     0.41978  0.41978  0.00000  0.16044
      11     H     0.41577  0.41577  0.00000  0.16846
      12     H     0.42004  0.42004  0.00000  0.15992
      13     H     0.42234  0.42234  0.00000  0.15533
      14     H     0.40877  0.40877  0.00000  0.18246
      15     H     0.39683  0.39683  0.00000  0.20634
      16     H     0.40726  0.40726  0.00000  0.18548

   Total alpha = 24.00000, Total beta = 24.00000, Total charge = -0.00000
