  ==> Input File <==

--------------------------------------------------------------------------
set {
	reference rhf
	basis 6-31G*
}

set_num_threads( 4 )
memory 2 gb

molecule MOL {
0 1

H	 -0.000158	 1.970498	 0.756846
O	 -0.000074	 1.880206	 -0.189275
C	 -0.000015	 0.544847	 -0.545111
C	 -1.278788	 -0.123820	 -0.051541
C	 1.278802	 -0.123718	 -0.051505
H	 -0.000001	 0.490777	 -1.623619
F	 -0.982621	 -1.259503	 0.543483
F	 -1.934947	 0.627177	 0.807423
F	 -2.087467	 -0.396764	 -1.063043
F	 2.323327	 0.466644	 -0.591854
F	 1.326242	 -1.401483	 -0.363667
F	 1.388946	 -0.015632	 1.262939

	symmetry c1
}
set optking {
	frozen_dihedral = ("
		7 4 3 6
	")
}

ee = optimize('scf')
oeprop('DIPOLE', 'QUADRUPOLE', 'MULLIKEN_CHARGES')
f=open( 'psi4out.xyz', 'w' )
f.write( "12  " )
f.write( str(ee) + "\n" )
f.write( MOL.save_string_xyz() )
f.close()
--------------------------------------------------------------------------

    Molecular point group: c1
  Charge       = 0
  Multiplicity = 1
  Basis Set: 6-31G*
  Basis Set:
  @DF-RHF Final Energy:  -786.27076185340320
    Total Energy =                       -786.2707618534035419
    Molecular point group: c1
  Basis Set: 6-31G*
  Basis Set:
  Basis Set: 6-31G*
  Basis Set:
  @DF-RHF Final Energy:  -786.27215232517710
    Total Energy =                       -786.2721523251768758
  Basis Set: 6-31G*
  Basis Set:
  Basis Set: 6-31G*
  Basis Set:
  @DF-RHF Final Energy:  -786.27271313457470
    Total Energy =                       -786.2727131345745875
  Basis Set: 6-31G*
  Basis Set:
  Basis Set: 6-31G*
  Basis Set:
  @DF-RHF Final Energy:  -786.27279981472566
    Total Energy =                       -786.2727998147256585
  Basis Set: 6-31G*
  Basis Set:
  Basis Set: 6-31G*
  Basis Set:
  @DF-RHF Final Energy:  -786.27281376088479
    Total Energy =                       -786.2728137608851284
  Basis Set: 6-31G*
  Basis Set:
  Charge       = 0
  Multiplicity = 1
  Basis Set: 6-31G*
  Basis Set:

    Orbital Energies (a.u.)
    -----------------------

    Doubly Occupied:

       1A    -26.363853     2A    -26.362155     3A    -26.361557
       4A    -26.360764     5A    -26.359359     6A    -26.355742
       7A    -20.614978     8A    -11.529654     9A    -11.523096
      10A    -11.349412    11A     -1.765569    12A     -1.757667
      13A     -1.660267    14A     -1.660100    15A     -1.657211
      16A     -1.653064    17A     -1.433596    18A     -1.098818
      19A     -0.996304    20A     -0.937009    21A     -0.866334
      22A     -0.860090    23A     -0.850737    24A     -0.845663
      25A     -0.833858    26A     -0.814158    27A     -0.733765
      28A     -0.731549    29A     -0.726765    30A     -0.722655
      31A     -0.687613    32A     -0.685501    33A     -0.681833
      34A     -0.676726    35A     -0.667817    36A     -0.662674
      37A     -0.656092    38A     -0.649232    39A     -0.617822
      40A     -0.550413    41A     -0.504559

  @DF-RHF Final Energy:  -786.27281555214074

   => Energetics <=

    Nuclear Repulsion Energy =            669.1561093540238971
    One-Electron Energy =               -2425.2057880684737938
    Two-Electron Energy =                 969.7768631623093825
    DFT Exchange-Correlation Energy =       0.0000000000000000
    Empirical Dispersion Energy =           0.0000000000000000
    PCM Polarization Energy =               0.0000000000000000
    EFP Energy =                            0.0000000000000000
    Total Energy =                       -786.2728155521404005
    Molecular point group: c1
  Basis Set: 6-31G*
  Basis Set:

  -Total Gradient:
     Atom            X                  Y                   Z
    ------   -----------------  -----------------  -----------------
       1        0.000006912903     0.000003857380    -0.000021377675
       2        0.000040907820    -0.000022395275    -0.000015913742
       3        0.002023582298    -0.002972145592     0.001097653010
       4       -0.000777766406    -0.001305825317    -0.003373916994
       5       -0.000115546373    -0.000011280936    -0.000205141688
       6       -0.001596828418     0.002889774532    -0.000166254455
       7        0.000269779657     0.001380763673     0.002436595831
       8       -0.000002770316     0.000046902887     0.000087974826
       9        0.000031152148    -0.000013437265    -0.000027020160
      10       -0.000011722874    -0.000052194683     0.000032962975
      11        0.000074780266     0.000090220130     0.000074583337
      12        0.000057519273    -0.000034239541     0.000079854733

  **** Optimization is complete! (in 6 steps) ****
    Final optimized geometry and variables:
    Molecular point group: c1

    Geometry (in Angstrom), charge = 0, multiplicity = 1:

    H           -0.097755554765     2.029274320676     0.694355840428
    O            0.026494979173     1.896372080468    -0.237303089873
    C            0.007355646810     0.551057203481    -0.549102148262
    C           -1.283428153026    -0.128778123937    -0.036587441579
    C            1.283913989766    -0.118216987540    -0.056165304702
    H           -0.003721256786     0.492122641703    -1.626493496593
    F           -1.055219330029    -1.274198225395     0.574405150880
    F           -1.903696288672     0.651272174654     0.831238590058
    F           -2.110898602163    -0.358998248633    -1.035050903715
    F            2.332447594255     0.516233819948    -0.533746206623
    F            1.359162687444    -1.373888786899    -0.446962360088
    F            1.356327792177    -0.082802376065     1.264767223752

  Mulliken Charges: (a.u.)
   Center  Symbol    Alpha    Beta     Spin     Total
       1     H     0.26616  0.26616  0.00000  0.46768
       2     O     4.36040  4.36040  0.00000 -0.72080
       3     C     3.06941  3.06941  0.00000 -0.13883
       4     C     2.43372  2.43372  0.00000  1.13256
       5     C     2.43663  2.43663  0.00000  1.12674
       6     H     0.37134  0.37134  0.00000  0.25733
       7     F     4.67346  4.67346  0.00000 -0.34693
       8     F     4.67909  4.67909  0.00000 -0.35818
       9     F     4.67618  4.67618  0.00000 -0.35236
      10     F     4.67484  4.67484  0.00000 -0.34968
      11     F     4.67660  4.67660  0.00000 -0.35320
      12     F     4.68217  4.68217  0.00000 -0.36435

   Total alpha = 41.00000, Total beta = 41.00000, Total charge = -0.00000
