  ==> Input File <==

--------------------------------------------------------------------------
set {
	reference rhf
	basis 6-31G*
}

set_num_threads( 1 )
memory 2 gb

molecule MOL {
0 1

H	 2.850817	 -0.405164	 -0.136094
O	 2.012586	 -0.856947	 -0.143039
C	 1.050492	 0.053836	 0.000068
C	 -0.318135	 -0.576402	 0.000164
O	 1.287977	 1.212413	 0.110950
C	 -1.454360	 0.441875	 -0.000474
H	 -0.374042	 -1.230163	 -0.866135
H	 -0.374274	 -1.229227	 0.867154
C	 -2.826123	 -0.230780	 0.000056
H	 -1.357605	 1.085198	 -0.868380
H	 -1.357504	 1.086451	 0.866496
H	 -2.959731	 -0.858053	 -0.876869
H	 -3.619374	 0.509403	 -0.000080
H	 -2.959371	 -0.857318	 0.877556

	symmetry c1
}
set optking {
	frozen_dihedral = ("
		7 4 6 10,
		1 2 3 5
	")
}

ee = energy('scf')
oeprop('DIPOLE', 'QUADRUPOLE', 'MULLIKEN_CHARGES')
f=open( 'psi4out.xyz', 'w' )
f.write( "14  " )
f.write( str(ee) + "\n" )
f.write( MOL.save_string_xyz() )
f.close()
--------------------------------------------------------------------------

    Molecular point group: c1

    Geometry (in Angstrom), charge = 0, multiplicity = 1:

       Center              X                  Y                   Z               Mass
    ------------   -----------------  -----------------  -----------------  -----------------
           H          2.850996497334    -0.405553138360    -0.128678965824     1.007825032070
           O          2.012765497334    -0.857336138360    -0.135623965824    15.994914619560
           C          1.050671497334     0.053446861640     0.007483034176    12.000000000000
           C         -0.317955502666    -0.576791138360     0.007579034176    12.000000000000
           O          1.288156497334     1.212023861640     0.118365034176    15.994914619560
           C         -1.454180502666     0.441485861640     0.006941034176    12.000000000000
           H         -0.373862502666    -1.230552138360    -0.858719965824     1.007825032070
           H         -0.374094502666    -1.229616138360     0.874569034176     1.007825032070
           C         -2.825943502666    -0.231169138360     0.007471034176    12.000000000000
           H         -1.357425502666     1.084808861640    -0.860964965824     1.007825032070
           H         -1.357324502666     1.086061861640     0.873911034176     1.007825032070
           H         -2.959551502666    -0.858442138360    -0.869453965824     1.007825032070
           H         -3.619194502666     0.509013861640     0.007335034176     1.007825032070
           H         -2.959191502666    -0.857707138360     0.884971034176     1.007825032070

  Charge       = 0
  Multiplicity = 1
  Basis Set: 6-31G*
  Basis Set:

    Orbital Energies (a.u.)
    -----------------------

    Doubly Occupied:

       1A    -20.613188     2A    -20.552193     3A    -11.381786
       4A    -11.241327     5A    -11.225766     6A    -11.217184
       7A     -1.475219     8A     -1.366302     9A     -1.083237
      10A     -0.979743    11A     -0.857334    12A     -0.791402
      13A     -0.700125    14A     -0.688869    15A     -0.667221
      16A     -0.615624    17A     -0.594096    18A     -0.572977
      19A     -0.545437    20A     -0.505419    21A     -0.491721
      22A     -0.482452    23A     -0.478991    24A     -0.444689

  @DF-RHF Final Energy:  -305.88082386559893

   => Energetics <=

    Nuclear Repulsion Energy =            239.9615858213636272
    One-Electron Energy =                -892.5402140392143338
    Two-Electron Energy =                 346.6978043522523194
    DFT Exchange-Correlation Energy =       0.0000000000000000
    Empirical Dispersion Energy =           0.0000000000000000
    PCM Polarization Energy =               0.0000000000000000
    EFP Energy =                            0.0000000000000000
    Total Energy =                       -305.8808238655983587

  Mulliken Charges: (a.u.)
   Center  Symbol    Alpha    Beta     Spin     Total
       1     H     0.26778  0.26778  0.00000  0.46445
       2     O     4.35110  4.35110  0.00000 -0.70220
       3     C     2.62326  2.62326  0.00000  0.75348
       4     C     3.20946  3.20946  0.00000 -0.41891
       5     O     4.27913  4.27913  0.00000 -0.55827
       6     C     3.15260  3.15260  0.00000 -0.30519
       7     H     0.39920  0.39920  0.00000  0.20159
       8     H     0.39836  0.39836  0.00000  0.20328
       9     C     3.24291  3.24291  0.00000 -0.48581
      10     H     0.41135  0.41135  0.00000  0.17731
      11     H     0.40881  0.40881  0.00000  0.18239
      12     H     0.42083  0.42083  0.00000  0.15833
      13     H     0.41445  0.41445  0.00000  0.17110
      14     H     0.42077  0.42077  0.00000  0.15845

   Total alpha = 24.00000, Total beta = 24.00000, Total charge = -0.00000
