                              Psi4 1.0.54 Driver

  ==> Input File <==

--------------------------------------------------------------------------
set {
	reference rhf
	basis cc-pvtz
}

set_num_threads( 4 )
memory 2 gb

molecule MOL {
0 1

O	 -2.440701	 -0.934798	 -0.415053
C	 -1.922978	 0.063265	 -0.045005
C	 -2.632749	 1.372204	 0.158357
O	 -0.637375	 0.157174	 0.243149
H	 -2.187724	 2.129143	 -0.474664
H	 -3.677681	 1.257276	 -0.079438
H	 -2.516788	 1.693160	 1.185542
C	 0.162530	 -1.009518	 0.097799
C	 1.587210	 -0.664190	 0.477086
H	 0.096803	 -1.356267	 -0.924704
H	 -0.233803	 -1.785900	 0.736810
C	 2.256770	 0.342732	 -0.454344
H	 2.154716	 -1.590834	 0.479041
H	 1.598751	 -0.289614	 1.496104
C	 3.077888	 1.384376	 0.298224
H	 2.899325	 -0.189022	 -1.151092
H	 1.500068	 0.839438	 -1.050607
H	 3.544785	 2.083056	 -0.386056
H	 3.864488	 0.918316	 0.882553
H	 2.455612	 1.955122	 0.979428

	symmetry c1
}
set optking {
	frozen_dihedral = ("
		16 12 9 8
	")
}

ee,wfn = optimize('scf', return_wfn=True)
oeprop( wfn, 'DIPOLE', 'QUADRUPOLE', 'MULLIKEN_CHARGES')
f=open( 'psi4out.xyz', 'w' )
f.write( "20  " )
f.write( str(ee) + "\n" )
f.write( MOL.save_string_xyz() )
f.close()
--------------------------------------------------------------------------

    Molecular point group: c1
  Charge       = 0
  Multiplicity = 1
  Basis Set: CC-PVTZ
  Basis Set:
  @DF-RHF Final Energy:  -384.08323692007963
    Total Energy =                       -384.0832369200792300
    Molecular point group: c1
  Basis Set: CC-PVTZ
  Basis Set:
  Basis Set: CC-PVTZ
  Basis Set:
  @DF-RHF Final Energy:  -384.08347690273359
    Total Energy =                       -384.0834769027334232
  Basis Set: CC-PVTZ
  Basis Set:
  Basis Set: CC-PVTZ
  Basis Set:
  @DF-RHF Final Energy:  -384.08339759621941
    Total Energy =                       -384.0833975962193563
  Basis Set: CC-PVTZ
  Basis Set:
  Basis Set: CC-PVTZ
  Basis Set:
  @DF-RHF Final Energy:  -384.08354440175719
    Total Energy =                       -384.0835444017571945
  Basis Set: CC-PVTZ
  Basis Set:
  Basis Set: CC-PVTZ
  Basis Set:
  @DF-RHF Final Energy:  -384.08354418808244
    Total Energy =                       -384.0835441880824419
  Basis Set: CC-PVTZ
  Basis Set:
  Basis Set: CC-PVTZ
  Basis Set:
  @DF-RHF Final Energy:  -384.08354638234681
    Total Energy =                       -384.0835463823468672
  Basis Set: CC-PVTZ
  Basis Set:
  Charge       = 0
  Multiplicity = 1
  Basis Set: CC-PVTZ
  Basis Set:

    Orbital Energies (a.u.)
    -----------------------

    Doubly Occupied:

       1A    -20.594801     2A    -20.532969     3A    -11.367017
       4A    -11.280348     5A    -11.231967     6A    -11.223234
       7A    -11.219011     8A    -11.210750     9A     -1.471433
      10A     -1.365627    11A     -1.085266    12A     -1.028848
      13A     -0.982227    14A     -0.881037    15A     -0.810924
      16A     -0.778553    17A     -0.693338    18A     -0.686647
      19A     -0.670147    20A     -0.627216    21A     -0.605136
      22A     -0.594652    23A     -0.575492    24A     -0.553142
      25A     -0.538357    26A     -0.536286    27A     -0.514744
      28A     -0.481731    29A     -0.474809    30A     -0.471677
      31A     -0.452072    32A     -0.442162

  @DF-RHF Final Energy:  -384.08354640883732

   => Energetics <=

    Nuclear Repulsion Energy =            387.9246928775727952
    One-Electron Energy =               -1292.0532325065128134
    Two-Electron Energy =                 520.0449932201029242
    DFT Exchange-Correlation Energy =       0.0000000000000000
    Empirical Dispersion Energy =           0.0000000000000000
    PCM Polarization Energy =               0.0000000000000000
    EFP Energy =                            0.0000000000000000
    Total Energy =                       -384.0835464088370372
    Molecular point group: c1
  Basis Set: CC-PVTZ
  Basis Set:

  -Total Gradient:
     Atom            X                  Y                   Z
    ------   -----------------  -----------------  -----------------
       1        0.000009171381    -0.000006742425    -0.000000680832
       2        0.000007630176     0.000024855633     0.000006783779
       3       -0.000006449805    -0.000001778997    -0.000003000472
       4       -0.000013304139    -0.000015103407    -0.000007845529
       5       -0.000000430175    -0.000002209020     0.000002832267
       6       -0.000000676227     0.000002342169     0.000001014595
       7       -0.000000283939    -0.000000614928    -0.000001826977
       8       -0.000832776845     0.001833236984     0.001402962838
       9        0.001752488708    -0.002502660395    -0.001451999439
      10        0.000000226126    -0.000002098009    -0.000004544105
      11        0.000003183037     0.000001637409    -0.000003371278
      12       -0.003421126680     0.000374747211    -0.002054190559
      13        0.000002113121     0.000000401510     0.000000547820
      14       -0.000004115011    -0.000001401364     0.000000109224
      15       -0.000005509940    -0.000002012669    -0.000002658193
      16        0.002505126280     0.000296565085     0.002114454027
      17        0.000004318887     0.000001247929    -0.000000023811
      18       -0.000001262709     0.000000367770     0.000000315529
      19        0.000001154257    -0.000000679623    -0.000001259688
      20        0.000000523495    -0.000000100859     0.000002380803

  **** Optimization is complete! (in 7 steps) ****
    Final optimized geometry and variables:
    Molecular point group: c1

    Geometry (in Angstrom), charge = 0, multiplicity = 1:

    O           -2.357101474220    -1.026826638739    -0.488009857055
    C           -1.843578727305    -0.035622956519    -0.094818232453
    C           -2.554820757789     1.270131060729     0.121442397478
    O           -0.561154287053     0.052284009133     0.209861794774
    H           -2.101902852609     2.036834022794    -0.493924364748
    H           -3.596982180794     1.159922132825    -0.130345957369
    H           -2.450519394766     1.574005243441     1.154985151999
    C            0.239833190622    -1.112320902404     0.055683375304
    C            1.661486800562    -0.757487442831     0.438869266653
    H            0.172451797698    -1.453039858607    -0.968891049820
    H           -0.153378147039    -1.893433669800     0.690891200601
    C            2.333080540443     0.259937408002    -0.499889275416
    H            2.237020017827    -1.676103953524     0.473779649943
    H            1.642180309206    -0.368577226477     1.451589595817
    C            3.173753128571     1.291907453778     0.247401221917
    H            2.980995913245    -0.264810713948    -1.194188807873
    H            1.582271449415     0.773314486428    -1.087627884515
    H            3.663595210054     1.970824162267    -0.441182976299
    H            3.944131736056     0.812379100327     0.842648675150
    H            2.558345456143     1.882245233981     0.917447405618

  Mulliken Charges: (a.u.)
   Center  Symbol    Alpha    Beta     Spin     Total
       1     O     4.19704  4.19704  0.00000 -0.39407
       2     C     2.80860  2.80860  0.00000  0.38280
       3     C     3.13811  3.13811  0.00000 -0.27622
       4     O     4.15334  4.15334  0.00000 -0.30668
       5     H     0.44620  0.44620  0.00000  0.10760
       6     H     0.43787  0.43787  0.00000  0.12426
       7     H     0.44568  0.44568  0.00000  0.10865
       8     C     2.99444  2.99444  0.00000  0.01111
       9     C     3.08770  3.08770  0.00000 -0.17539
      10     H     0.45036  0.45036  0.00000  0.09927
      11     H     0.44435  0.44435  0.00000  0.11129
      12     C     3.08544  3.08544  0.00000 -0.17088
      13     H     0.44779  0.44779  0.00000  0.10442
      14     H     0.45362  0.45362  0.00000  0.09277
      15     C     3.14859  3.14859  0.00000 -0.29719
      16     H     0.45150  0.45150  0.00000  0.09700
      17     H     0.45167  0.45167  0.00000  0.09666
      18     H     0.44917  0.44917  0.00000  0.10166
      19     H     0.45483  0.45483  0.00000  0.09033
      20     H     0.45370  0.45370  0.00000  0.09260

   Total alpha = 32.00000, Total beta = 32.00000, Total charge = -0.00000

*** Psi4 exiting successfully. Buy a developer a beer!
