  ==> Input File <==

--------------------------------------------------------------------------
set {
	reference rhf
	basis 6-31G*
}

set_num_threads( 4 )
memory 2 gb

molecule MOL {
0 1

H	 -0.367348	 2.047014	 -0.308205
C	 0.352277	 1.337084	 0.083769
N	 -0.000016	 0.000074	 -0.335546
H	 1.328359	 1.600444	 -0.307950
H	 0.381933	 1.450534	 1.172486
C	 1.123466	 -0.905092	 -0.253482
C	 -1.152164	 -0.503385	 0.376662
H	 0.841594	 -1.877196	 -0.641959
H	 1.942976	 -0.529739	 -0.855957
H	 1.489404	 -1.041756	 0.769403
H	 -1.993780	 0.164999	 0.234114
H	 -1.429183	 -1.476466	 -0.012969
H	 -0.979215	 -0.605692	 1.453022

	symmetry c1
}
set optking {
	frozen_dihedral = ("
		6 3 2 1
	")
}

ee = optimize('scf')
oeprop('DIPOLE', 'QUADRUPOLE', 'MULLIKEN_CHARGES')
f=open( 'psi4out.xyz', 'w' )
f.write( "13  " )
f.write( str(ee) + "\n" )
f.write( MOL.save_string_xyz() )
f.close()
--------------------------------------------------------------------------

    Molecular point group: c1
  Charge       = 0
  Multiplicity = 1
  Basis Set: 6-31G*
  Basis Set:
  @DF-RHF Final Energy:  -173.26800280235676
    Total Energy =                       -173.2680028023567615
    Molecular point group: c1
  Basis Set: 6-31G*
  Basis Set:
  Basis Set: 6-31G*
  Basis Set:
  @DF-RHF Final Energy:  -173.26820157697199
    Total Energy =                       -173.2682015769719897
  Basis Set: 6-31G*
  Basis Set:
  Basis Set: 6-31G*
  Basis Set:
  @DF-RHF Final Energy:  -173.26822276180542
    Total Energy =                       -173.2682227618054753
  Basis Set: 6-31G*
  Basis Set:
  Charge       = 0
  Multiplicity = 1
  Basis Set: 6-31G*
  Basis Set:

    Orbital Energies (a.u.)
    -----------------------

    Doubly Occupied:

       1A    -15.542213     2A    -11.235926     3A    -11.235670
       4A    -11.235596     5A     -1.223855     6A     -0.952202
       7A     -0.951674     8A     -0.805537     9A     -0.640675
      10A     -0.630673    11A     -0.629497    12A     -0.546846
      13A     -0.542999    14A     -0.516289    15A     -0.502033
      16A     -0.501557    17A     -0.343302

  @DF-RHF Final Energy:  -173.26822382772548

   => Energetics <=

    Nuclear Repulsion Energy =            139.1107923074552559
    One-Electron Energy =                -508.6849454720829726
    Two-Electron Energy =                 196.3059293369020679
    DFT Exchange-Correlation Energy =       0.0000000000000000
    Empirical Dispersion Energy =           0.0000000000000000
    PCM Polarization Energy =               0.0000000000000000
    EFP Energy =                            0.0000000000000000
    Total Energy =                       -173.2682238277256488
    Molecular point group: c1
  Basis Set: 6-31G*
  Basis Set:

  -Total Gradient:
     Atom            X                  Y                   Z
    ------   -----------------  -----------------  -----------------
       1        0.001922255844     0.000381485716    -0.002926137855
       2       -0.002190811236    -0.000184291061     0.002757455004
       3       -0.000381618352    -0.000706190130     0.002739346633
       4        0.000022045783     0.000005971684    -0.000023729674
       5        0.000001508081    -0.000034562674    -0.000044745397
       6        0.000692677256     0.000517155770    -0.002508960552
       7       -0.000034444729    -0.000023105655     0.000082548117
       8        0.000004158299    -0.000014068233    -0.000000860062
       9       -0.000027401637     0.000019728954     0.000003921793
      10       -0.000029649525     0.000026268800    -0.000031217949
      11        0.000014123755     0.000005412846    -0.000008179732
      12        0.000010846795     0.000004416733    -0.000012289749
      13       -0.000003690333     0.000001777251    -0.000027150579

  **** Optimization is complete! (in 4 steps) ****
    Final optimized geometry and variables:
    Molecular point group: c1

    Geometry (in Angstrom), charge = 0, multiplicity = 1:

    H           -0.475930782476     2.060834300102    -0.291796686672
    C            0.258684564783     1.362837209578     0.095975834524
    N           -0.077532248466     0.016111625871    -0.307139473383
    H            1.214740542417     1.641970566767    -0.332044964775
    H            0.328416515773     1.485982338926     1.180448690989
    C            1.043770971900    -0.891617729253    -0.240900640023
    C           -1.245671335272    -0.483482874955     0.377068096025
    H            0.751354504185    -1.861414497527    -0.627834474290
    H            1.854983378308    -0.518714080392    -0.855241251426
    H            1.425635355133    -1.036328368845     0.775248906649
    H           -2.076751534534     0.197015606451     0.227540546146
    H           -1.527805737885    -1.448768246676    -0.028224667810
    H           -1.093501781785    -0.598420053107     1.455316935242

  Mulliken Charges: (a.u.)
   Center  Symbol    Alpha    Beta     Spin     Total
       1     H     0.41600  0.41600  0.00000  0.16801
       2     C     3.14208  3.14208  0.00000 -0.28416
       3     N     3.76828  3.76828  0.00000 -0.53655
       4     H     0.41848  0.41848  0.00000  0.16304
       5     H     0.43378  0.43378  0.00000  0.13244
       6     C     3.14105  3.14105  0.00000 -0.28210
       7     C     3.14152  3.14152  0.00000 -0.28303
       8     H     0.41742  0.41742  0.00000  0.16517
       9     H     0.41672  0.41672  0.00000  0.16655
      10     H     0.43555  0.43555  0.00000  0.12889
      11     H     0.41694  0.41694  0.00000  0.16612
      12     H     0.41704  0.41704  0.00000  0.16592
      13     H     0.43515  0.43515  0.00000  0.12971

   Total alpha = 17.00000, Total beta = 17.00000, Total charge =  0.00000
