                              Psi4 1.0.54 Driver

  ==> Input File <==

--------------------------------------------------------------------------
set {
	reference rhf
	basis cc-pvtz
}

set_num_threads( 4 )
memory 2 gb

molecule MOL {
0 1

O	 -2.491919	 0.817868	 -0.757736
C	 -1.922978	 0.063265	 -0.045005
C	 -2.559163	 -1.113331	 0.640080
O	 -0.637375	 0.157174	 0.243149
H	 -2.448345	 -1.013215	 1.712188
H	 -3.603481	 -1.162576	 0.378142
H	 -2.056051	 -2.023941	 0.341354
C	 0.162530	 -1.009518	 0.097799
C	 1.587210	 -0.664190	 0.477086
H	 0.096803	 -1.356267	 -0.924704
H	 -0.233803	 -1.785900	 0.736810
C	 2.256770	 0.342732	 -0.454344
H	 2.154716	 -1.590834	 0.479041
H	 1.598751	 -0.289614	 1.496104
C	 3.698146	 0.643205	 -0.057145
H	 2.235038	 -0.042575	 -1.470299
H	 1.683491	 1.262594	 -0.461300
H	 4.150202	 1.356548	 -0.736242
H	 4.305463	 -0.255904	 -0.069842
H	 3.749130	 1.061068	 0.942759

	symmetry c1
}
set optking {
	frozen_dihedral = ("
		1 2 4 8
	")
}

ee,wfn = optimize('scf', return_wfn=True)
oeprop( wfn, 'DIPOLE', 'QUADRUPOLE', 'MULLIKEN_CHARGES')
f=open( 'psi4out.xyz', 'w' )
f.write( "20  " )
f.write( str(ee) + "\n" )
f.write( MOL.save_string_xyz() )
f.close()
--------------------------------------------------------------------------

    Molecular point group: c1
  Charge       = 0
  Multiplicity = 1
  Basis Set: CC-PVTZ
  Basis Set:
  @DF-RHF Final Energy:  -384.06461267726996
    Total Energy =                       -384.0646126772702473
    Molecular point group: c1
  Basis Set: CC-PVTZ
  Basis Set:
  Basis Set: CC-PVTZ
  Basis Set:
  @DF-RHF Final Energy:  -383.65797265467376
    Total Energy =                       -383.6579726546741540
  Basis Set: CC-PVTZ
  Basis Set:
  Basis Set: CC-PVTZ
  Basis Set:
  @DF-RHF Final Energy:  -383.83825448952990
    Total Energy =                       -383.8382544895298452
  Basis Set: CC-PVTZ
  Basis Set:
  Basis Set: CC-PVTZ
  Basis Set:
  @DF-RHF Final Energy:  -384.00917784797264
    Total Energy =                       -384.0091778479722961
  Basis Set: CC-PVTZ
  Basis Set:
  @DF-RHF Final Energy:  -384.06455583761294
    Total Energy =                       -384.0645558376130566
  @DF-RHF Final Energy:  -384.06804429194500
    Total Energy =                       -384.0680442919449433
  @DF-RHF Final Energy:  -384.06973170146836
    Total Energy =                       -384.0697317014685268
  @DF-RHF Final Energy:  -384.07020242031041
    Total Energy =                       -384.0702024203106930
  @DF-RHF Final Energy:  -384.07029911120088
    Total Energy =                       -384.0702991112002564
  Basis Set: CC-PVTZ
  Basis Set:
  @DF-RHF Final Energy:  -384.07031850224780
    Total Energy =                       -384.0703185022479147
  Basis Set: CC-PVTZ
  Basis Set:
  Basis Set: CC-PVTZ
  Basis Set:
  @DF-RHF Final Energy:  -384.07032923210323
    Total Energy =                       -384.0703292321023810
  Basis Set: CC-PVTZ
  Basis Set:
  Basis Set: CC-PVTZ
  Basis Set:
  @DF-RHF Final Energy:  -384.07033414706927
    Total Energy =                       -384.0703341470698433
  Basis Set: CC-PVTZ
  Basis Set:
  Charge       = 0
  Multiplicity = 1
  Basis Set: CC-PVTZ
  Basis Set:

    Orbital Energies (a.u.)
    -----------------------

    Doubly Occupied:

       1A    -20.583103     2A    -20.537558     3A    -11.369268
       4A    -11.294046     5A    -11.238488     6A    -11.227164
       7A    -11.216836     8A    -11.210160     9A     -1.462498
      10A     -1.369661    11A     -1.085668    12A     -1.019833
      13A     -0.996439    14A     -0.886483    15A     -0.811478
      16A     -0.781157    17A     -0.699492    18A     -0.687023
      19A     -0.659370    20A     -0.636385    21A     -0.613860
      22A     -0.592999    23A     -0.581472    24A     -0.565255
      25A     -0.543767    26A     -0.526241    27A     -0.510634
      28A     -0.485606    29A     -0.478438    30A     -0.474025
      31A     -0.449894    32A     -0.438161

  @DF-RHF Final Energy:  -384.07033502143105

   => Energetics <=

    Nuclear Repulsion Energy =            385.4706739600499645
    One-Electron Energy =               -1287.0170904832955330
    Two-Electron Energy =                 517.4760815018146332
    DFT Exchange-Correlation Energy =       0.0000000000000000
    Empirical Dispersion Energy =           0.0000000000000000
    PCM Polarization Energy =               0.0000000000000000
    EFP Energy =                            0.0000000000000000
    Total Energy =                       -384.0703350214309921
    Molecular point group: c1
  Basis Set: CC-PVTZ
  Basis Set:

  -Total Gradient:
     Atom            X                  Y                   Z
    ------   -----------------  -----------------  -----------------
       1       -0.001480732900    -0.002680505014    -0.002381907185
       2        0.001704990995     0.004023445192     0.001802618462
       3       -0.000002641701    -0.000031780961     0.000087890387
       4        0.000395195985    -0.001619687255     0.003723270385
       5       -0.000053232412     0.000015443573    -0.000072674161
       6        0.000042945285    -0.000030377105    -0.000012904084
       7        0.000014653003     0.000049727792     0.000004246860
       8       -0.000614954298     0.000317659701    -0.003171039520
       9       -0.000009482331    -0.000034314019     0.000054548921
      10       -0.000002843860    -0.000007357366    -0.000000698149
      11       -0.000000939704    -0.000024893552     0.000010770679
      12        0.000018477734     0.000030416608    -0.000049204580
      13        0.000004951664    -0.000002851706    -0.000004315756
      14        0.000001135778     0.000004975373    -0.000009872741
      15       -0.000022744242    -0.000012553143     0.000037783287
      16        0.000000429211    -0.000003483660     0.000005936077
      17        0.000002379749     0.000001897913     0.000002466739
      18        0.000000982961     0.000006581197    -0.000022762909
      19        0.000003470436    -0.000005388203    -0.000002898014
      20       -0.000002041357     0.000003044637    -0.000001254700

  **** Optimization is complete! (in 13 steps) ****
    Final optimized geometry and variables:
    Molecular point group: c1

    Geometry (in Angstrom), charge = 0, multiplicity = 1:

    O           -1.945242707490     1.780487602820     0.182458803929
    C           -1.473215037256     0.906586180434     0.813700475583
    C           -2.174231509793     0.255425444944     1.979272846737
    O           -0.245989455296     0.452435644678     0.530831762331
    H           -1.507046344753     0.177603845517     2.827715112635
    H           -3.040871193551     0.841472768556     2.237244878110
    H           -2.493566089519    -0.744723883410     1.712212840055
    C           -0.016864032208    -0.936130705721     0.374742186186
    C            1.376735558371    -1.131727417937    -0.186370660316
    H           -0.759344699355    -1.349643313840    -0.300390320831
    H           -0.106822309466    -1.438450650815     1.330983850380
    C            1.562525745132    -0.575451756097    -1.595254742687
    H            1.584425926215    -2.198498964068    -0.181718325373
    H            2.087690054313    -0.670113876688     0.491584993716
    C            2.977081837340    -0.783954869539    -2.124750444287
    H            0.852513376676    -1.054967161635    -2.264027949761
    H            1.322826245536     0.480413291818    -1.596826305774
    H            3.079970303429    -0.385483086396    -3.127094462493
    H            3.234944487139    -1.837579003612    -2.159614400611
    H            3.707158903838    -0.286161424042    -1.495406709481

  Mulliken Charges: (a.u.)
   Center  Symbol    Alpha    Beta     Spin     Total
       1     O     4.17269  4.17269  0.00000 -0.34538
       2     C     2.81678  2.81678  0.00000  0.36643
       3     C     3.16090  3.16090  0.00000 -0.32180
       4     O     4.14991  4.14991  0.00000 -0.29981
       5     H     0.44234  0.44234  0.00000  0.11531
       6     H     0.42920  0.42920  0.00000  0.14160
       7     H     0.44770  0.44770  0.00000  0.10459
       8     C     2.99628  2.99628  0.00000  0.00743
       9     C     3.08453  3.08453  0.00000 -0.16906
      10     H     0.45677  0.45677  0.00000  0.08646
      11     H     0.45077  0.45077  0.00000  0.09847
      12     C     3.08564  3.08564  0.00000 -0.17129
      13     H     0.45296  0.45296  0.00000  0.09408
      14     H     0.44981  0.44981  0.00000  0.10038
      15     C     3.15079  3.15079  0.00000 -0.30158
      16     H     0.45651  0.45651  0.00000  0.08699
      17     H     0.43896  0.43896  0.00000  0.12209
      18     H     0.44637  0.44637  0.00000  0.10726
      19     H     0.45719  0.45719  0.00000  0.08563
      20     H     0.45390  0.45390  0.00000  0.09220

   Total alpha = 32.00000, Total beta = 32.00000, Total charge = -0.00000

*** Psi4 exiting successfully. Buy a developer a beer!
