  ==> Input File <==

--------------------------------------------------------------------------
set {
	reference rhf
	basis 6-31G*
}

set_num_threads( 4 )
memory 2 gb

molecule MOL {
0 1

O	 0.787902	 0.643145	 2.081577
C	 0.307400	 0.876305	 1.004796
C	 -0.706429	 1.994397	 0.849533
N	 0.623947	 0.147590	 -0.102813
H	 -1.655031	 1.622116	 0.478529
H	 -0.855016	 2.432748	 1.824631
H	 -0.354705	 2.759725	 0.166053
C	 1.665360	 -0.855771	 0.000151
C	 0.254492	 0.520576	 -1.450637
H	 2.465253	 -0.618490	 -0.692587
H	 1.257730	 -1.821716	 -0.242189
H	 2.081488	 -0.891645	 1.004627
H	 0.111201	 -0.377255	 -2.040050
H	 -0.670654	 1.074353	 -1.469901
H	 1.025792	 1.118584	 -1.932607

	symmetry c1
}
set optking {
	frozen_dihedral = ("
		2 4 8 10
	")
}

ee = optimize('scf')
oeprop('DIPOLE', 'QUADRUPOLE', 'MULLIKEN_CHARGES')
f=open( 'psi4out.xyz', 'w' )
f.write( "15  " )
f.write( str(ee) + "\n" )
f.write( MOL.save_string_xyz() )
f.close()
--------------------------------------------------------------------------

    Molecular point group: c1
  Charge       = 0
  Multiplicity = 1
  Basis Set: 6-31G*
  Basis Set:
  @DF-RHF Final Energy:  -286.02889890894022
    Total Energy =                       -286.0288989089400502
    Molecular point group: c1
  Basis Set: 6-31G*
  Basis Set:
  Basis Set: 6-31G*
  Basis Set:
  @DF-RHF Final Energy:  -286.02946348918658
    Total Energy =                       -286.0294634891864689
  Basis Set: 6-31G*
  Basis Set:
  Basis Set: 6-31G*
  Basis Set:
  @DF-RHF Final Energy:  -286.02935268232386
    Total Energy =                       -286.0293526823239176
  Basis Set: 6-31G*
  Basis Set:
  Basis Set: 6-31G*
  Basis Set:
  @DF-RHF Final Energy:  -286.02961925872739
    Total Energy =                       -286.0296192587275641
  Basis Set: 6-31G*
  Basis Set:
  @DF-RHF Final Energy:  -286.02965288201710
    Total Energy =                       -286.0296528820173307
  @DF-RHF Final Energy:  -286.02966355498069
    Total Energy =                       -286.0296635549804591
  @DF-RHF Final Energy:  -286.02967061450204
    Total Energy =                       -286.0296706145019243
  @DF-RHF Final Energy:  -286.02968360531452
    Total Energy =                       -286.0296836053146876
  Basis Set: 6-31G*
  Basis Set:
  @DF-RHF Final Energy:  -286.02969429956943
    Total Energy =                       -286.0296942995694849
  Basis Set: 6-31G*
  Basis Set:
  Basis Set: 6-31G*
  Basis Set:
  @DF-RHF Final Energy:  -286.02970120366967
    Total Energy =                       -286.0297012036696742
  Basis Set: 6-31G*
  Basis Set:
  Basis Set: 6-31G*
  Basis Set:
  @DF-RHF Final Energy:  -286.02970306713894
    Total Energy =                       -286.0297030671389393
  Basis Set: 6-31G*
  Basis Set:
  Charge       = 0
  Multiplicity = 1
  Basis Set: 6-31G*
  Basis Set:

    Orbital Energies (a.u.)
    -----------------------

    Doubly Occupied:

       1A    -20.512030     2A    -15.584799     3A    -11.342111
       4A    -11.266720     5A    -11.247685     6A    -11.228285
       7A     -1.382752     8A     -1.244115     9A     -1.014179
      10A     -0.973178    11A     -0.920516    12A     -0.738751
      13A     -0.681289    14A     -0.659490    15A     -0.651472
      16A     -0.590420    17A     -0.575707    18A     -0.566357
      19A     -0.560520    20A     -0.547574    21A     -0.529861
      22A     -0.504020    23A     -0.408838    24A     -0.365081

  @DF-RHF Final Energy:  -286.02970383293734

   => Energetics <=

    Nuclear Repulsion Energy =            252.1986783883866394
    One-Electron Energy =                -888.2652569463773489
    Two-Electron Energy =                 350.0368747250532806
    DFT Exchange-Correlation Energy =       0.0000000000000000
    Empirical Dispersion Energy =           0.0000000000000000
    PCM Polarization Energy =               0.0000000000000000
    EFP Energy =                            0.0000000000000000
    Total Energy =                       -286.0297038329374573
    Molecular point group: c1
  Basis Set: 6-31G*
  Basis Set:

  -Total Gradient:
     Atom            X                  Y                   Z
    ------   -----------------  -----------------  -----------------
       1        0.000014113631    -0.000011901557     0.000003610364
       2       -0.000040023556    -0.000041916976    -0.000051743790
       3       -0.000075387312    -0.000044263699     0.000033642182
       4        0.000006194214     0.000111681555    -0.000010236582
       5        0.000008079101     0.000027580903     0.000009206602
       6       -0.000003608723     0.000014114127    -0.000001494415
       7        0.000025255082     0.000002472630    -0.000004253840
       8       -0.000000078154     0.000036035694     0.000064163333
       9        0.000049013279    -0.000012680379     0.000013909104
      10       -0.000034210278    -0.000074650391    -0.000093225632
      11        0.000014354110     0.000014293675     0.000003418768
      12        0.000012257509    -0.000001724399     0.000021629000
      13        0.000001703066    -0.000009075551     0.000008784378
      14        0.000016266103    -0.000018445667     0.000013702724
      15        0.000006071926     0.000008480033    -0.000011112200

  **** Optimization is complete! (in 12 steps) ****
    Final optimized geometry and variables:
    Molecular point group: c1

    Geometry (in Angstrom), charge = 0, multiplicity = 1:

    O            0.247198783539     0.056791160289     1.707789671892
    C           -0.192140677007     0.322973408767     0.620363018844
    C           -1.225587241886     1.424709781308     0.471305662673
    N            0.204116318873    -0.337065412513    -0.501517348868
    H           -2.160300792332     1.043644937884     0.074612498762
    H           -1.401236558519     1.833585115584     1.454592331716
    H           -0.877090502983     2.214799567711    -0.184762632226
    C            1.204443242219    -1.379945987348    -0.400741310440
    C           -0.255327294052    -0.062894240381    -1.843658935260
    H            2.072560226380    -1.129726063644    -1.004578640648
    H            0.802770936838    -2.323386090145    -0.759746929661
    H            1.505326503707    -1.489763663512     0.626260949388
    H           -0.630442652972    -0.973307589282    -2.301604144052
    H           -1.049030363633     0.665321832142    -1.854479840415
    H            0.557837945680     0.311107003854    -2.460520034386

  Mulliken Charges: (a.u.)
   Center  Symbol    Alpha    Beta     Spin     Total
       1     O     4.30651  4.30651  0.00000 -0.61301
       2     C     2.62208  2.62208  0.00000  0.75584
       3     C     3.29928  3.29928  0.00000 -0.59855
       4     N     3.82495  3.82495  0.00000 -0.64990
       5     H     0.40732  0.40732  0.00000  0.18536
       6     H     0.38995  0.38995  0.00000  0.22011
       7     H     0.40776  0.40776  0.00000  0.18447
       8     C     3.14646  3.14646  0.00000 -0.29292
       9     C     3.14081  3.14081  0.00000 -0.28163
      10     H     0.41990  0.41990  0.00000  0.16020
      11     H     0.41926  0.41926  0.00000  0.16149
      12     H     0.38171  0.38171  0.00000  0.23659
      13     H     0.41321  0.41321  0.00000  0.17359
      14     H     0.40635  0.40635  0.00000  0.18730
      15     H     0.41446  0.41446  0.00000  0.17107

   Total alpha = 24.00000, Total beta = 24.00000, Total charge = -0.00000
