                              Psi4 1.0.54 Driver

  ==> Input File <==

--------------------------------------------------------------------------
set {
	reference rhf
	basis cc-pvtz
}

set_num_threads( 4 )
memory 2 gb

molecule MOL {
0 1

H	 -2.362939	 -1.309000	 -0.383250
C	 -1.359344	 -1.272457	 0.020748
C	 -0.684082	 0.000127	 -0.464918
H	 -0.825835	 -2.151141	 -0.318537
H	 -1.416276	 -1.292399	 1.099455
C	 -1.359089	 1.272668	 0.021259
N	 0.742439	 -0.000109	 0.007333
H	 -0.596914	 0.000345	 -1.538146
H	 -2.362696	 1.309620	 -0.382686
H	 -0.825392	 2.151374	 -0.317674
H	 -1.415983	 1.292181	 1.099973
O	 0.948337	 -0.360280	 1.117075
O	 1.572269	 0.359736	 -0.759599

	symmetry c1
}
set optking {
	frozen_dihedral = ("
		12 7 3 8
	")
}

ee,wfn = optimize('scf', return_wfn=True)
oeprop( wfn, 'DIPOLE', 'QUADRUPOLE', 'MULLIKEN_CHARGES')
f=open( 'psi4out.xyz', 'w' )
f.write( "13  " )
f.write( str(ee) + "\n" )
f.write( MOL.save_string_xyz() )
f.close()
--------------------------------------------------------------------------

    Molecular point group: c1
  Charge       = 0
  Multiplicity = 1
  Basis Set: CC-PVTZ
  Basis Set:
  @DF-RHF Final Energy:  -321.86415510212908
    Total Energy =                       -321.8641551021291889
    Molecular point group: c1
  Basis Set: CC-PVTZ
  Basis Set:
  Basis Set: CC-PVTZ
  Basis Set:
  @DF-RHF Final Energy:  -321.86012577130873
    Total Energy =                       -321.8601257713087307
  Basis Set: CC-PVTZ
  Basis Set:
  Basis Set: CC-PVTZ
  Basis Set:
  @DF-RHF Final Energy:  -321.86427082011323
    Total Energy =                       -321.8642708201133473
  Basis Set: CC-PVTZ
  Basis Set:
  Basis Set: CC-PVTZ
  Basis Set:
  @DF-RHF Final Energy:  -321.86435512045932
    Total Energy =                       -321.8643551204593223
  Basis Set: CC-PVTZ
  Basis Set:
  Basis Set: CC-PVTZ
  Basis Set:
  @DF-RHF Final Energy:  -321.86417555789365
    Total Energy =                       -321.8641755578934749
  Basis Set: CC-PVTZ
  Basis Set:
  Basis Set: CC-PVTZ
  Basis Set:
  @DF-RHF Final Energy:  -321.86441798034190
    Total Energy =                       -321.8644179803417273
  Basis Set: CC-PVTZ
  Basis Set:
  Charge       = 0
  Multiplicity = 1
  Basis Set: CC-PVTZ
  Basis Set:

    Orbital Energies (a.u.)
    -----------------------

    Doubly Occupied:

       1A    -20.589094     2A    -20.588728     3A    -15.832690
       4A    -11.304438     5A    -11.245319     6A    -11.240316
       7A     -1.633930     8A     -1.418182     9A     -1.142508
      10A     -0.973763    11A     -0.957266    12A     -0.816451
      13A     -0.753302    14A     -0.732360    15A     -0.726430
      16A     -0.649571    17A     -0.594866    18A     -0.588036
      19A     -0.571226    20A     -0.529981    21A     -0.522352
      22A     -0.485288    23A     -0.470118    24A     -0.452103

  @DF-RHF Final Energy:  -321.86441840653276

   => Energetics <=

    Nuclear Repulsion Energy =            257.3588856218538012
    One-Electron Energy =                -948.8099717647094167
    Two-Electron Energy =                 369.5866677363228519
    DFT Exchange-Correlation Energy =       0.0000000000000000
    Empirical Dispersion Energy =           0.0000000000000000
    PCM Polarization Energy =               0.0000000000000000
    EFP Energy =                            0.0000000000000000
    Total Energy =                       -321.8644184065327636
    Molecular point group: c1
  Basis Set: CC-PVTZ
  Basis Set:

  -Total Gradient:
     Atom            X                  Y                   Z
    ------   -----------------  -----------------  -----------------
       1        0.000006303762     0.000000408037     0.000001140288
       2       -0.000008522441    -0.000021441262     0.000006693460
       3       -0.000007685370     0.000507037466    -0.000060532034
       4        0.000000310442    -0.000003736993     0.000001040684
       5       -0.000000588885     0.000004442817    -0.000001417937
       6        0.000006647320    -0.000014496325    -0.000018496726
       7       -0.000087163212     0.000616082831     0.000294276650
       8        0.000015090843    -0.000572960153     0.000003322374
       9       -0.000003715443     0.000003252563     0.000001070133
      10        0.000001387756     0.000009286113     0.000004943103
      11        0.000000604085    -0.000006660000    -0.000003840622
      12        0.000076061727    -0.000519243807    -0.000240463038
      13        0.000001269416    -0.000001971288     0.000012263668

  **** Optimization is complete! (in 7 steps) ****
    Final optimized geometry and variables:
    Molecular point group: c1

    Geometry (in Angstrom), charge = 0, multiplicity = 1:

    H           -2.355233150440    -1.325934804082    -0.462184422372
    C           -1.369986479868    -1.293417989808    -0.013964715843
    C           -0.675079663632    -0.026084291010    -0.475610392478
    H           -0.826224332834    -2.175153117632    -0.326883710477
    H           -1.473801717863    -1.315262632177     1.060428457024
    C           -1.351623288676     1.251687326604     0.002742561546
    N            0.743450222017     0.003206892664     0.021752208157
    H           -0.567188121205    -0.014873898922    -1.547363405514
    H           -2.355374328461     1.289238714350    -0.399891624122
    H           -0.814086434999     2.126358089117    -0.337974084542
    H           -1.411822428619     1.271897819779     1.082671486901
    O            0.950174816520    -0.359172333220     1.130987347604
    O            1.565007707759     0.416298465938    -0.726116369134

  Mulliken Charges: (a.u.)
   Center  Symbol    Alpha    Beta     Spin     Total
       1     H     0.44995  0.44995  0.00000  0.10009
       2     C     3.14450  3.14450  0.00000 -0.28901
       3     C     3.00771  3.00771  0.00000 -0.01541
       4     H     0.44118  0.44118  0.00000  0.11764
       5     H     0.43829  0.43829  0.00000  0.12343
       6     C     3.14301  3.14301  0.00000 -0.28602
       7     N     3.27456  3.27456  0.00000  0.45089
       8     H     0.42527  0.42527  0.00000  0.14945
       9     H     0.44844  0.44844  0.00000  0.10311
      10     H     0.43796  0.43796  0.00000  0.12408
      11     H     0.44150  0.44150  0.00000  0.11700
      12     O     4.17597  4.17597  0.00000 -0.35195
      13     O     4.17165  4.17165  0.00000 -0.34330

   Total alpha = 24.00000, Total beta = 24.00000, Total charge =  0.00000

*** Psi4 exiting successfully. Buy a developer a beer!
