  ==> Input File <==

--------------------------------------------------------------------------
set {
	reference rhf
	basis 6-31G*
}

set_num_threads( 1 )
memory 2 gb

molecule MOL {
0 1

H	 1.307819	 1.166499	 6.491037
C	 0.847719	 0.278534	 6.068723
C	 0.083150	 0.608754	 4.787488
H	 1.636264	 -0.442988	 5.876515
H	 0.189094	 -0.143430	 6.823016
C	 -0.584455	 -0.621494	 4.168934
H	 0.764230	 1.051046	 4.067690
H	 -0.675793	 1.358701	 5.004916
C	 -1.372664	 -0.318728	 2.894444
H	 0.167370	 -1.371021	 3.948451
H	 -1.264925	 -1.059521	 4.895663
C	 -0.508491	 0.016640	 1.687805
H	 -1.969411	 -1.186201	 2.616680
H	 -2.084601	 0.486846	 3.059894
C	 -1.181045	 0.701995	 0.511084
O	 0.652280	 -0.262245	 1.652593
C	 -2.285934	 -0.139295	 -0.145128
H	 -0.404593	 0.928186	 -0.209801
H	 -1.602401	 1.644916	 0.854658
C	 -3.651768	 0.085446	 0.506485
H	 -2.346596	 0.110469	 -1.202272
H	 -2.034737	 -1.195320	 -0.088721
C	 -4.759797	 -0.746382	 -0.137905
H	 -3.908762	 1.140117	 0.445781
H	 -3.588286	 -0.154158	 1.565709
H	 -4.868882	 -0.505166	 -1.191300
H	 -4.548009	 -1.809175	 -0.062213
H	 -5.715422	 -0.564821	 0.343442

	symmetry c1
}
set optking {
	frozen_dihedral = ("
		10 6 3 2,
		16 12 15 17
	")
}

ee = energy('scf')
oeprop('DIPOLE', 'QUADRUPOLE', 'MULLIKEN_CHARGES')
f=open( 'psi4out.xyz', 'w' )
f.write( "28  " )
f.write( str(ee) + "\n" )
f.write( MOL.save_string_xyz() )
f.close()
--------------------------------------------------------------------------

    Molecular point group: c1

    Geometry (in Angstrom), charge = 0, multiplicity = 1:

       Center              X                  Y                   Z               Mass
    ------------   -----------------  -----------------  -----------------  -----------------
           H          2.586287259721     1.211232513640     4.281081355147     1.007825032070
           C          2.126187259721     0.323267513640     3.858767355147    12.000000000000
           C          1.361618259721     0.653487513640     2.577532355147    12.000000000000
           H          2.914732259721    -0.398254486360     3.666559355147     1.007825032070
           H          1.467562259721    -0.098696486360     4.613060355147     1.007825032070
           C          0.694013259721    -0.576760486360     1.958978355147    12.000000000000
           H          2.042698259721     1.095779513640     1.857734355147     1.007825032070
           H          0.602675259721     1.403434513640     2.794960355147     1.007825032070
           C         -0.094195740279    -0.273994486360     0.684488355147    12.000000000000
           H          1.445838259721    -1.326287486360     1.738495355147     1.007825032070
           H          0.013543259721    -1.014787486360     2.685707355147     1.007825032070
           C          0.769977259721     0.061373513640    -0.522150644853    12.000000000000
           H         -0.690942740279    -1.141467486360     0.406724355147     1.007825032070
           H         -0.806132740279     0.531579513640     0.849938355147     1.007825032070
           C          0.097423259721     0.746728513640    -1.698871644853    12.000000000000
           O          1.930748259721    -0.217511486360    -0.557362644853    15.994914619560
           C         -1.007465740279    -0.094561486360    -2.355083644853    12.000000000000
           H          0.873875259721     0.972919513640    -2.419756644853     1.007825032070
           H         -0.323932740279     1.689649513640    -1.355297644853     1.007825032070
           C         -2.373299740279     0.130179513640    -1.703470644853    12.000000000000
           H         -1.068127740279     0.155202513640    -3.412227644853     1.007825032070
           H         -0.756268740279    -1.150586486360    -2.298676644853     1.007825032070
           C         -3.481328740279    -0.701648486360    -2.347860644853    12.000000000000
           H         -2.630293740279     1.184850513640    -1.764174644853     1.007825032070
           H         -2.309817740279    -0.109424486360    -0.644246644853     1.007825032070
           H         -3.590413740279    -0.460432486360    -3.401255644853     1.007825032070
           H         -3.269540740279    -1.764441486360    -2.272168644853     1.007825032070
           H         -4.436953740279    -0.520087486360    -1.866513644853     1.007825032070

  Charge       = 0
  Multiplicity = 1
  Basis Set: 6-31G*
  Basis Set:

    Orbital Energies (a.u.)
    -----------------------

    Doubly Occupied:

       1A    -20.548374     2A    -11.322445     3A    -11.232218
       4A    -11.230362     5A    -11.228086     6A    -11.225989
       7A    -11.216943     8A    -11.216647     9A    -11.212655
      10A    -11.205954    11A     -1.393473    12A     -1.098138
      13A     -1.076958    14A     -1.020474    15A     -0.992723
      16A     -0.906790    17A     -0.876880    18A     -0.813584
      19A     -0.796441    20A     -0.724651    21A     -0.673709
      22A     -0.648915    23A     -0.627466    24A     -0.611913
      25A     -0.610481    26A     -0.592385    27A     -0.578711
      28A     -0.574654    29A     -0.548625    30A     -0.532217
      31A     -0.524453    32A     -0.518376    33A     -0.496447
      34A     -0.483919    35A     -0.480595    36A     -0.475987
      37A     -0.465243    38A     -0.461303    39A     -0.454099
      40A     -0.393595

  @DF-RHF Final Energy:  -426.16334481374815

   => Energetics <=

    Nuclear Repulsion Energy =            542.7776219288573429
    One-Electron Energy =               -1653.6963325915792211
    Two-Electron Energy =                 684.7553658489750887
    DFT Exchange-Correlation Energy =       0.0000000000000000
    Empirical Dispersion Energy =           0.0000000000000000
    PCM Polarization Energy =               0.0000000000000000
    EFP Energy =                            0.0000000000000000
    Total Energy =                       -426.1633448137467894

  Mulliken Charges: (a.u.)
   Center  Symbol    Alpha    Beta     Spin     Total
       1     H     0.41928  0.41928  0.00000  0.16144
       2     C     3.24013  3.24013  0.00000 -0.48026
       3     C     3.15662  3.15662  0.00000 -0.31323
       4     H     0.41825  0.41825  0.00000  0.16350
       5     H     0.42361  0.42361  0.00000  0.15278
       6     C     3.14731  3.14731  0.00000 -0.29462
       7     H     0.41040  0.41040  0.00000  0.17919
       8     H     0.42765  0.42765  0.00000  0.14471
       9     C     3.21595  3.21595  0.00000 -0.43190
      10     H     0.40674  0.40674  0.00000  0.18653
      11     H     0.42208  0.42208  0.00000  0.15584
      12     C     2.73086  2.73086  0.00000  0.53828
      13     H     0.40286  0.40286  0.00000  0.19429
      14     H     0.41155  0.41155  0.00000  0.17690
      15     C     3.20373  3.20373  0.00000 -0.40747
      16     O     4.26686  4.26686  0.00000 -0.53372
      17     C     3.16452  3.16452  0.00000 -0.32904
      18     H     0.39770  0.39770  0.00000  0.20459
      19     H     0.41175  0.41175  0.00000  0.17651
      20     C     3.15803  3.15803  0.00000 -0.31605
      21     H     0.41185  0.41185  0.00000  0.17629
      22     H     0.41496  0.41496  0.00000  0.17008
      23     C     3.23964  3.23964  0.00000 -0.47929
      24     H     0.42075  0.42075  0.00000  0.15850
      25     H     0.41865  0.41865  0.00000  0.16269
      26     H     0.41998  0.41998  0.00000  0.16005
      27     H     0.42074  0.42074  0.00000  0.15852
      28     H     0.41754  0.41754  0.00000  0.16492

   Total alpha = 40.00000, Total beta = 40.00000, Total charge = -0.00000
