  ==> Input File <==

--------------------------------------------------------------------------
set {
	reference rhf
	basis 6-31G*
}

set_num_threads( 4 )
memory 2 gb

molecule MOL {
0 1

H	 3.162900	 0.391355	 -0.719102
N	 2.337105	 -0.175377	 -0.699328
C	 1.267428	 0.496480	 0.024474
H	 2.585314	 -1.032720	 -0.242962
C	 -0.016086	 -0.325158	 -0.029487
H	 1.098593	 1.456850	 -0.453249
H	 1.520093	 0.705569	 1.066981
C	 -1.282277	 0.529072	 0.046735
H	 -0.012495	 -0.908639	 -0.945788
H	 -0.015903	 -1.041248	 0.791956
C	 -2.563920	 -0.301775	 -0.006060
H	 -1.284084	 1.244622	 -0.773004
H	 -1.271387	 1.115393	 0.963286
H	 -2.621848	 -0.873522	 -0.927727
H	 -3.445135	 0.329952	 0.047812
H	 -2.609542	 -1.004582	 0.821105

	symmetry c1
}
set optking {
	frozen_dihedral = ("
		6 3 5 9
	")
}

ee = optimize('scf')
oeprop('DIPOLE', 'QUADRUPOLE', 'MULLIKEN_CHARGES')
f=open( 'psi4out.xyz', 'w' )
f.write( "16  " )
f.write( str(ee) + "\n" )
f.write( MOL.save_string_xyz() )
f.close()
--------------------------------------------------------------------------

    Molecular point group: c1
  Charge       = 0
  Multiplicity = 1
  Basis Set: 6-31G*
  Basis Set:
  @DF-RHF Final Energy:  -212.31431392442889
    Total Energy =                       -212.3143139244290296
    Molecular point group: c1
  Basis Set: 6-31G*
  Basis Set:
  Basis Set: 6-31G*
  Basis Set:
  @DF-RHF Final Energy:  -212.31454675375386
    Total Energy =                       -212.3145467537539730
  Basis Set: 6-31G*
  Basis Set:
  Basis Set: 6-31G*
  Basis Set:
  @DF-RHF Final Energy:  -212.31460999002161
    Total Energy =                       -212.3146099900214949
  Basis Set: 6-31G*
  Basis Set:
  Basis Set: 6-31G*
  Basis Set:
  @DF-RHF Final Energy:  -212.31461261291324
    Total Energy =                       -212.3146126129135496
  Basis Set: 6-31G*
  Basis Set:
  Charge       = 0
  Multiplicity = 1
  Basis Set: 6-31G*
  Basis Set:

    Orbital Energies (a.u.)
    -----------------------

    Doubly Occupied:

       1A    -15.533256     2A    -11.239746     3A    -11.215325
       4A    -11.209522     5A    -11.207724     6A     -1.176787
       7A     -1.059200     8A     -0.958094     9A     -0.844006
      10A     -0.793138    11A     -0.655928    12A     -0.645869
      13A     -0.598878    14A     -0.576572    15A     -0.570251
      16A     -0.519781    17A     -0.502051    18A     -0.469152
      19A     -0.463876    20A     -0.462302    21A     -0.380528

  @DF-RHF Final Energy:  -212.31461656100208

   => Energetics <=

    Nuclear Repulsion Energy =            186.1646399253734216
    One-Electron Energy =                -654.7945411993495100
    Two-Electron Energy =                 256.3152847129741190
    DFT Exchange-Correlation Energy =       0.0000000000000000
    Empirical Dispersion Energy =           0.0000000000000000
    PCM Polarization Energy =               0.0000000000000000
    EFP Energy =                            0.0000000000000000
    Total Energy =                       -212.3146165610019693
    Molecular point group: c1
  Basis Set: 6-31G*
  Basis Set:

  -Total Gradient:
     Atom            X                  Y                   Z
    ------   -----------------  -----------------  -----------------
       1        0.000042009661     0.000008193340    -0.000015167935
       2       -0.000017562319     0.000019106580    -0.000008428280
       3        0.001974614828    -0.002825248518    -0.004349789732
       4        0.000004088320    -0.000016058764     0.000014876868
       5       -0.002707430779     0.004538661110    -0.001609924273
       6       -0.001299499621     0.001654489632     0.003872868374
       7        0.000023552502    -0.000013348836     0.000034587139
       8        0.000030296481    -0.000016029004    -0.000003015051
       9        0.001968513292    -0.003341205037     0.002054235468
      10        0.000007743396    -0.000000457389     0.000016876467
      11       -0.000023763119     0.000006403897    -0.000007158504
      12       -0.000001882122    -0.000007923864     0.000005501015
      13        0.000012645953    -0.000009797880    -0.000007325116
      14        0.000002310812     0.000004304382     0.000007708897
      15       -0.000020376886    -0.000008962216    -0.000001670903
      16        0.000004739601     0.000007872568    -0.000004174431

  **** Optimization is complete! (in 5 steps) ****
    Final optimized geometry and variables:
    Molecular point group: c1

    Geometry (in Angstrom), charge = 0, multiplicity = 1:

    H            3.221053373993     0.335606521490    -0.476590257585
    N            2.382381335782    -0.209387935196    -0.536985812731
    C            1.284382607884     0.462325286864     0.141703455620
    H            2.578750811548    -1.088495470166    -0.096364593628
    C           -0.006664286841    -0.355595061091     0.056046540777
    H            1.133946606731     1.434303473164    -0.318581960739
    H            1.498152670261     0.670899534828     1.193389712729
    C           -1.274385164499     0.490622380186     0.165314312266
    H            0.004746559988    -0.922850123076    -0.870418323615
    H           -0.007074083330    -1.099889969329     0.852372012581
    C           -2.552496499472    -0.346730353927     0.163803372885
    H           -1.304155421873     1.197191602155    -0.660850127682
    H           -1.234899749888     1.086096193311     1.075677934738
    H           -2.633064614872    -0.934518698040    -0.746083555123
    H           -3.435011803875     0.281952666537     0.231186713323
    H           -2.571633889792    -1.035102636565     1.004008193044

  Mulliken Charges: (a.u.)
   Center  Symbol    Alpha    Beta     Spin     Total
       1     H     0.33281  0.33281  0.00000  0.33438
       2     N     3.92055  3.92055  0.00000 -0.84109
       3     C     3.06097  3.06097  0.00000 -0.12195
       4     H     0.33530  0.33530  0.00000  0.32940
       5     C     3.15661  3.15661  0.00000 -0.31321
       6     H     0.42037  0.42037  0.00000  0.15926
       7     H     0.43454  0.43454  0.00000  0.13092
       8     C     3.15514  3.15514  0.00000 -0.31029
       9     H     0.41116  0.41116  0.00000  0.17768
      10     H     0.42690  0.42690  0.00000  0.14620
      11     C     3.23939  3.23939  0.00000 -0.47877
      12     H     0.42044  0.42044  0.00000  0.15913
      13     H     0.42389  0.42389  0.00000  0.15221
      14     H     0.42033  0.42033  0.00000  0.15935
      15     H     0.41948  0.41948  0.00000  0.16104
      16     H     0.42213  0.42213  0.00000  0.15574

   Total alpha = 21.00000, Total beta = 21.00000, Total charge = -0.00000
