  ==> Input File <==

--------------------------------------------------------------------------
set {
	reference rhf
	basis 6-31G*
}

set_num_threads( 1 )
memory 2 gb

molecule MOL {
0 1

H	 3.729471	 -0.928294	 -0.070608
O	 2.826016	 -1.159218	 0.122261
C	 2.077727	 -0.067559	 -0.035091
C	 0.624473	 -0.343591	 0.253101
O	 2.542965	 0.974826	 -0.363729
C	 -0.265902	 0.883932	 0.072916
H	 0.324016	 -1.163849	 -0.390541
H	 0.565024	 -0.726111	 1.268924
C	 -1.728698	 0.646073	 0.462102
H	 -0.209144	 1.219470	 -0.958188
H	 0.135059	 1.692851	 0.673903
C	 -2.587056	 -0.011759	 -0.622072
H	 -2.169986	 1.606618	 0.717798
H	 -1.770283	 0.044496	 1.369038
C	 -4.056368	 -0.128607	 -0.217168
H	 -2.510594	 0.567687	 -1.539918
H	 -2.205629	 -1.003001	 -0.853013
H	 -4.643623	 -0.598774	 -0.999720
H	 -4.487752	 0.848794	 -0.021151
H	 -4.168229	 -0.725127	 0.683881

	symmetry c1
}
set optking {
	frozen_dihedral = ("
		16 12 9 6,
		7 4 6 10,
		5 3 4 7,
		1 2 3 5
	")
}

ee = energy('scf')
oeprop('DIPOLE', 'QUADRUPOLE', 'MULLIKEN_CHARGES')
f=open( 'psi4out.xyz', 'w' )
f.write( "20  " )
f.write( str(ee) + "\n" )
f.write( MOL.save_string_xyz() )
f.close()
--------------------------------------------------------------------------

    Molecular point group: c1

    Geometry (in Angstrom), charge = 0, multiplicity = 1:

       Center              X                  Y                   Z               Mass
    ------------   -----------------  -----------------  -----------------  -----------------
           H          3.754465133084    -1.011284318785    -0.027386310842     1.007825032070
           O          2.851010133084    -1.242208318785     0.165482689158    15.994914619560
           C          2.102721133084    -0.150549318785     0.008130689158    12.000000000000
           C          0.649467133084    -0.426581318785     0.296322689158    12.000000000000
           O          2.567959133084     0.891835681215    -0.320507310842    15.994914619560
           C         -0.240907866916     0.800941681215     0.116137689158    12.000000000000
           H          0.349010133084    -1.246839318785    -0.347319310842     1.007825032070
           H          0.590018133084    -0.809101318785     1.312145689158     1.007825032070
           C         -1.703703866916     0.563082681215     0.505323689158    12.000000000000
           H         -0.184149866916     1.136479681215    -0.914966310842     1.007825032070
           H          0.160053133084     1.609860681215     0.717124689158     1.007825032070
           C         -2.562061866916    -0.094749318785    -0.578850310842    12.000000000000
           H         -2.144991866916     1.523627681215     0.761019689158     1.007825032070
           H         -1.745288866916    -0.038494318785     1.412259689158     1.007825032070
           C         -4.031373866916    -0.211597318785    -0.173946310842    12.000000000000
           H         -2.485599866916     0.484696681215    -1.496696310842     1.007825032070
           H         -2.180634866916    -1.085991318785    -0.809791310842     1.007825032070
           H         -4.618628866916    -0.681764318785    -0.956498310842     1.007825032070
           H         -4.462757866916     0.765803681215     0.022070689158     1.007825032070
           H         -4.143234866916    -0.808117318785     0.727102689158     1.007825032070

  Charge       = 0
  Multiplicity = 1
  Basis Set: 6-31G*
  Basis Set:

    Orbital Energies (a.u.)
    -----------------------

    Doubly Occupied:

       1A    -20.612549     2A    -20.551696     3A    -11.381183
       4A    -11.240551     5A    -11.222498     6A    -11.220307
       7A    -11.219708     8A    -11.211984     9A     -1.474636
      10A     -1.365694    11A     -1.095553    12A     -1.041619
      13A     -0.960813    14A     -0.868555    15A     -0.813092
      16A     -0.780765    17A     -0.699591    18A     -0.689748
      19A     -0.663097    20A     -0.635011    21A     -0.604451
      22A     -0.593593    23A     -0.572972    24A     -0.556670
      25A     -0.541851    26A     -0.508543    27A     -0.497213
      28A     -0.479288    29A     -0.471412    30A     -0.467702
      31A     -0.456389    32A     -0.443233

  @DF-RHF Final Energy:  -383.94774616465713

   => Energetics <=

    Nuclear Repulsion Energy =            374.6671132163405673
    One-Electron Energy =               -1265.3457126100770438
    Two-Electron Energy =                 506.7308532290790026
    DFT Exchange-Correlation Energy =       0.0000000000000000
    Empirical Dispersion Energy =           0.0000000000000000
    PCM Polarization Energy =               0.0000000000000000
    EFP Energy =                            0.0000000000000000
    Total Energy =                       -383.9477461646574739

  Mulliken Charges: (a.u.)
   Center  Symbol    Alpha    Beta     Spin     Total
       1     H     0.26787  0.26787  0.00000  0.46426
       2     O     4.35164  4.35164  0.00000 -0.70328
       3     C     2.62264  2.62264  0.00000  0.75472
       4     C     3.21167  3.21167  0.00000 -0.42335
       5     O     4.27926  4.27926  0.00000 -0.55851
       6     C     3.15536  3.15536  0.00000 -0.31071
       7     H     0.39761  0.39761  0.00000  0.20477
       8     H     0.39871  0.39871  0.00000  0.20259
       9     C     3.15661  3.15661  0.00000 -0.31322
      10     H     0.41156  0.41156  0.00000  0.17688
      11     H     0.40781  0.40781  0.00000  0.18437
      12     C     3.15303  3.15303  0.00000 -0.30607
      13     H     0.41788  0.41788  0.00000  0.16424
      14     H     0.42379  0.42379  0.00000  0.15241
      15     C     3.23967  3.23967  0.00000 -0.47934
      16     H     0.42086  0.42086  0.00000  0.15829
      17     H     0.42355  0.42355  0.00000  0.15290
      18     H     0.41833  0.41833  0.00000  0.16334
      19     H     0.42066  0.42066  0.00000  0.15868
      20     H     0.42149  0.42149  0.00000  0.15701

   Total alpha = 32.00000, Total beta = 32.00000, Total charge =  0.00000
