  ==> Input File <==

--------------------------------------------------------------------------
set {
	reference rhf
	basis 6-31G*
}

set_num_threads( 4 )
memory 2 gb

molecule MOL {
0 1

H	 -4.236494	 0.538104	 0.039757
O	 -3.517110	 -0.026191	 -0.205115
C	 -2.306886	 0.532354	 0.237577
C	 -1.177863	 -0.397191	 -0.171080
H	 -2.156308	 1.517575	 -0.201710
H	 -2.315015	 0.655684	 1.319734
C	 0.198102	 0.111031	 0.262842
H	 -1.208843	 -0.518759	 -1.250427
H	 -1.368741	 -1.376554	 0.258909
C	 1.331804	 -0.827780	 -0.158768
H	 0.361943	 1.100838	 -0.156218
H	 0.217265	 0.229072	 1.345532
C	 2.723619	 -0.410569	 0.329459
H	 1.342964	 -0.912588	 -1.244120
H	 1.116806	 -1.824343	 0.220779
C	 2.758656	 0.913210	 1.095433
H	 3.380680	 -0.331205	 -0.533131
H	 3.137469	 -1.200223	 0.953429
H	 2.338918	 1.719654	 0.500027
H	 2.198823	 0.861163	 2.023363
H	 3.779050	 1.185981	 1.346722

	symmetry c1
}
set optking {
	frozen_dihedral = ("
		16 13 10 14
	")
}

ee = optimize('scf')
oeprop('DIPOLE', 'QUADRUPOLE', 'MULLIKEN_CHARGES')
f=open( 'psi4out.xyz', 'w' )
f.write( "21  " )
f.write( str(ee) + "\n" )
f.write( MOL.save_string_xyz() )
f.close()
--------------------------------------------------------------------------

    Molecular point group: c1
  Charge       = 0
  Multiplicity = 1
  Basis Set: 6-31G*
  Basis Set:
  @DF-RHF Final Energy:  -310.20235037930536
    Total Energy =                       -310.2023503793052441
    Molecular point group: c1
  Basis Set: 6-31G*
  Basis Set:
  Basis Set: 6-31G*
  Basis Set:
  @DF-RHF Final Energy:  -310.20256511384480
    Total Energy =                       -310.2025651138449120
  Basis Set: 6-31G*
  Basis Set:
  Basis Set: 6-31G*
  Basis Set:
  @DF-RHF Final Energy:  -310.20435626274025
    Total Energy =                       -310.2043562627403048
  Basis Set: 6-31G*
  Basis Set:
  Basis Set: 6-31G*
  Basis Set:
  @DF-RHF Final Energy:  -310.20448604031947
    Total Energy =                       -310.2044860403192388
  Basis Set: 6-31G*
  Basis Set:
  Basis Set: 6-31G*
  Basis Set:
  @DF-RHF Final Energy:  -310.20448695700537
    Total Energy =                       -310.2044869570050878
  Basis Set: 6-31G*
  Basis Set:
  Basis Set: 6-31G*
  Basis Set:
  @DF-RHF Final Energy:  -310.20448777802710
    Total Energy =                       -310.2044877780272145
  Basis Set: 6-31G*
  Basis Set:
  Basis Set: 6-31G*
  Basis Set:
  @DF-RHF Final Energy:  -310.20449396901512
    Total Energy =                       -310.2044939690147203
  Basis Set: 6-31G*
  Basis Set:
  Charge       = 0
  Multiplicity = 1
  Basis Set: 6-31G*
  Basis Set:

    Orbital Energies (a.u.)
    -----------------------

    Doubly Occupied:

       1A    -20.551758     2A    -11.266956     3A    -11.215715
       4A    -11.215421     5A    -11.213783     6A    -11.210477
       7A    -11.208427     8A     -1.358539     9A     -1.083367
      10A     -1.030724    11A     -0.953945    12A     -0.878930
      13A     -0.809449    14A     -0.771745    15A     -0.691642
      16A     -0.663162    17A     -0.629214    18A     -0.596089
      19A     -0.579712    20A     -0.578126    21A     -0.531239
      22A     -0.527782    23A     -0.505691    24A     -0.487496
      25A     -0.484918    26A     -0.458110    27A     -0.445336
      28A     -0.443899    29A     -0.433754

  @DF-RHF Final Energy:  -310.20449399871069

   => Energetics <=

    Nuclear Repulsion Energy =            312.9976436998517215
    One-Electron Energy =               -1040.7534605723312779
    Two-Electron Energy =                 417.5513228737692657
    DFT Exchange-Correlation Energy =       0.0000000000000000
    Empirical Dispersion Energy =           0.0000000000000000
    PCM Polarization Energy =               0.0000000000000000
    EFP Energy =                            0.0000000000000000
    Total Energy =                       -310.2044939987102339
    Molecular point group: c1
  Basis Set: 6-31G*
  Basis Set:

  -Total Gradient:
     Atom            X                  Y                   Z
    ------   -----------------  -----------------  -----------------
       1       -0.000017089577    -0.000003244410    -0.000001993799
       2       -0.000037697560    -0.000001202180    -0.000002259972
       3        0.000015148032    -0.000021688111    -0.000012159327
       4        0.000007048509     0.000005167314    -0.000012257972
       5        0.000001867960     0.000018027060    -0.000007530219
       6        0.000004559174     0.000007266649     0.000021780464
       7       -0.000009717355    -0.000078813931     0.000026890010
       8       -0.000018665645     0.000004084162    -0.000021435105
       9        0.000001858314    -0.000018016230    -0.000001812609
      10       -0.000425689319     0.001118172172     0.000230113928
      11        0.000036322427     0.000023033556    -0.000018467296
      12       -0.000006368233    -0.000002083848    -0.000011150346
      13        0.000244281494     0.000389770319    -0.001047054884
      14        0.000225811248    -0.001043259287     0.000095458853
      15       -0.000041192564    -0.000003297669    -0.000007671165
      16       -0.000073102810    -0.000421541105     0.000685392106
      17        0.000045870055     0.000007831216     0.000019659643
      18        0.000017728332     0.000015256592     0.000025502361
      19       -0.000019129999    -0.000002438264    -0.000015816613
      20       -0.000013085718     0.000002635912     0.000041579537
      21        0.000061243237     0.000004340082     0.000013232406

  **** Optimization is complete! (in 8 steps) ****
    Final optimized geometry and variables:
    Molecular point group: c1

    Geometry (in Angstrom), charge = 0, multiplicity = 1:

    H           -4.205502595481     0.481881783074    -0.227890311954
    O           -3.469604996570    -0.061147186729    -0.471828616873
    C           -2.282783366705     0.498917740589     0.028818922715
    C           -1.126376217932    -0.396207394382    -0.380517090631
    H           -2.135967749297     1.502726869554    -0.367605828334
    H           -2.325619236402     0.580067942666     1.114143807762
    C            0.227049482052     0.117991122592     0.114038254181
    H           -1.124090347037    -0.477307097305    -1.464075695474
    H           -1.313257810146    -1.394167150150     0.006539384873
    C            1.376912520488    -0.802989902795    -0.307570827458
    H            0.391956247215     1.120558882411    -0.272952567234
    H            0.201610922316     0.206559342763     1.197583469693
    C            2.812634176193    -0.397592459869     0.131714778341
    H            1.353397637717    -0.902808372864    -1.389460802007
    H            1.163909235552    -1.797696026791     0.074971703881
    C            2.967313636249     0.928976157835     0.881687687845
    H            3.452311138507    -0.365980473028    -0.745284413925
    H            3.220644811463    -1.183336072512     0.760961880244
    H            2.639872038193     1.775084440494     0.286255238384
    H            2.407303040136     0.939530719502     1.810791413726
    H            4.011911739933     1.091449410079     1.129844743695

  Mulliken Charges: (a.u.)
   Center  Symbol    Alpha    Beta     Spin     Total
       1     H     0.28118  0.28118  0.00000  0.43763
       2     O     4.37189  4.37189  0.00000 -0.74378
       3     C     2.98944  2.98944  0.00000  0.02112
       4     C     3.15935  3.15935  0.00000 -0.31869
       5     H     0.43292  0.43292  0.00000  0.13417
       6     H     0.43295  0.43295  0.00000  0.13411
       7     C     3.16216  3.16216  0.00000 -0.32432
       8     H     0.41486  0.41486  0.00000  0.17028
       9     H     0.41488  0.41488  0.00000  0.17024
      10     C     3.15609  3.15609  0.00000 -0.31219
      11     H     0.42214  0.42214  0.00000  0.15572
      12     H     0.42255  0.42255  0.00000  0.15490
      13     C     3.15550  3.15550  0.00000 -0.31099
      14     H     0.42018  0.42018  0.00000  0.15964
      15     H     0.42015  0.42015  0.00000  0.15970
      16     C     3.24177  3.24177  0.00000 -0.48354
      17     H     0.42006  0.42006  0.00000  0.15989
      18     H     0.42047  0.42047  0.00000  0.15906
      19     H     0.42126  0.42126  0.00000  0.15748
      20     H     0.42097  0.42097  0.00000  0.15805
      21     H     0.41922  0.41922  0.00000  0.16155

   Total alpha = 29.00000, Total beta = 29.00000, Total charge =  0.00000
