                              Psi4 1.0.54 Driver

  ==> Input File <==

--------------------------------------------------------------------------
set {
	reference rhf
	basis cc-pvtz
}

set_num_threads( 4 )
memory 2 gb

molecule MOL {
0 1

H	 -2.535427	 0.209915	 0.858183
O	 -2.041679	 -0.058866	 0.103463
C	 -0.959304	 0.780994	 -0.094939
C	 0.354905	 0.037902	 -0.006215
H	 -0.985899	 1.279578	 -1.057596
H	 -0.969809	 1.529522	 0.682889
F	 0.412060	 -0.931028	 -0.902708
F	 1.359641	 0.856111	 -0.239961
F	 0.545380	 -0.506387	 1.171682

	symmetry c1
}
set optking {
	frozen_dihedral = ("
		1 2 3 5
	")
}

ee,wfn = optimize('scf', return_wfn=True)
oeprop( wfn, 'DIPOLE', 'QUADRUPOLE', 'MULLIKEN_CHARGES')
f=open( 'psi4out.xyz', 'w' )
f.write( "9  " )
f.write( str(ee) + "\n" )
f.write( MOL.save_string_xyz() )
f.close()
--------------------------------------------------------------------------

    Molecular point group: c1
  Charge       = 0
  Multiplicity = 1
  Basis Set: CC-PVTZ
  Basis Set:
  @DF-RHF Final Energy:  -450.84348336315492
    Total Energy =                       -450.8434833631547463
    Molecular point group: c1
  Basis Set: CC-PVTZ
  Basis Set:
  Basis Set: CC-PVTZ
  Basis Set:
  @DF-RHF Final Energy:  -450.82516646962318
    Total Energy =                       -450.8251664696231842
  Basis Set: CC-PVTZ
  Basis Set:
  Basis Set: CC-PVTZ
  Basis Set:
  @DF-RHF Final Energy:  -450.84458956874209
    Total Energy =                       -450.8445895687422080
  Basis Set: CC-PVTZ
  Basis Set:
  Basis Set: CC-PVTZ
  Basis Set:
  @DF-RHF Final Energy:  -450.84481736952341
    Total Energy =                       -450.8448173695235255
  Basis Set: CC-PVTZ
  Basis Set:
  Basis Set: CC-PVTZ
  Basis Set:
  @DF-RHF Final Energy:  -450.84482652510462
    Total Energy =                       -450.8448265251045086
  Basis Set: CC-PVTZ
  Basis Set:
  Charge       = 0
  Multiplicity = 1
  Basis Set: CC-PVTZ
  Basis Set:

    Orbital Energies (a.u.)
    -----------------------

    Doubly Occupied:

       1A    -26.334312     2A    -26.331994     3A    -26.330510
       4A    -20.582583     5A    -11.489527     6A    -11.310277
       7A     -1.742294     8A     -1.638844     9A     -1.637372
      10A     -1.405931    11A     -1.050117    12A     -0.924862
      13A     -0.833153    14A     -0.831746    15A     -0.794374
      16A     -0.742100    17A     -0.713676    18A     -0.704014
      19A     -0.669567    20A     -0.658925    21A     -0.643315
      22A     -0.638012    23A     -0.602066    24A     -0.535188
      25A     -0.483219

  @DF-RHF Final Energy:  -450.84482843534670

   => Energetics <=

    Nuclear Repulsion Energy =            277.4893258604927269
    One-Electron Energy =               -1177.4123548083475725
    Two-Electron Energy =                 449.0782005125077490
    DFT Exchange-Correlation Energy =       0.0000000000000000
    Empirical Dispersion Energy =           0.0000000000000000
    PCM Polarization Energy =               0.0000000000000000
    EFP Energy =                            0.0000000000000000
    Total Energy =                       -450.8448284353470967
    Molecular point group: c1
  Basis Set: CC-PVTZ
  Basis Set:

  -Total Gradient:
     Atom            X                  Y                   Z
    ------   -----------------  -----------------  -----------------
       1       -0.000938834811     0.000879518009    -0.000351231416
       2        0.001018236514    -0.000852061951     0.000683598337
       3        0.000582907578    -0.000664197900    -0.001074543129
       4        0.000132213352     0.000012310341     0.000201787876
       5       -0.000614108476     0.000613366063     0.000745916882
       6       -0.000055173573    -0.000024550100     0.000027982301
       7       -0.000040060376    -0.000097182113    -0.000154458902
       8        0.000030241342     0.000088479671    -0.000026923461
       9       -0.000115421551     0.000044317988    -0.000052128489

  **** Optimization is complete! (in 6 steps) ****
    Final optimized geometry and variables:
    Molecular point group: c1

    Geometry (in Angstrom), charge = 0, multiplicity = 1:

    H           -2.401996162191    -0.343468685389     1.115229776152
    O           -1.977180111512    -0.315719434994     0.279301656595
    C           -1.006955556466     0.675997044780     0.247309914503
    C            0.343267119429     0.069778194842    -0.057355740216
    H           -1.230196906519     1.400025194517    -0.525617539375
    H           -0.914106798819     1.201681815856     1.189323503698
    F            0.351800077799    -0.568677730660    -1.203619521013
    F            1.254890384220     1.021671857282    -0.121416534573
    F            0.718292464417    -0.778037579404     0.875539742091

  Mulliken Charges: (a.u.)
   Center  Symbol    Alpha    Beta     Spin     Total
       1     H     0.38566  0.38566  0.00000  0.22869
       2     O     4.19158  4.19158  0.00000 -0.38315
       3     C     2.99105  2.99105  0.00000  0.01790
       4     C     2.67704  2.67704  0.00000  0.64591
       5     H     0.45692  0.45692  0.00000  0.08615
       6     H     0.46281  0.46281  0.00000  0.07439
       7     F     4.60791  4.60791  0.00000 -0.21583
       8     F     4.61458  4.61458  0.00000 -0.22916
       9     F     4.61245  4.61245  0.00000 -0.22489

   Total alpha = 25.00000, Total beta = 25.00000, Total charge = -0.00000

*** Psi4 exiting successfully. Buy a developer a beer!
