  ==> Input File <==

--------------------------------------------------------------------------
set {
	reference rhf
	basis cc-pvtz
}

set_num_threads( 4 )
memory 2 gb

molecule MOL {
0 1

H	 -3.162190	 0.493205	 -0.000107
C	 -2.363908	 -0.234727	 0.000005
O	 -1.158738	 0.454634	 -0.000087
H	 -2.464314	 -0.863616	 -0.882153
H	 -2.464327	 -0.863359	 0.882345
C	 -0.028611	 -0.359694	 0.000037
C	 -0.173026	 -1.413841	 1.079070
H	 0.864336	 0.240043	 0.177796
H	 0.090884	 -0.833534	 -0.974560
C	 1.029039	 -2.349362	 1.143794
H	 -0.310466	 -0.915703	 2.032429
H	 -1.077734	 -1.980768	 0.889200
H	 1.942812	 -1.804808	 1.357258
H	 0.899602	 -3.091310	 1.922112
H	 1.170239	 -2.877207	 0.206505

	symmetry c1
}
set optking {
	frozen_dihedral = ("
		8 6 3 2
	")
}

ee = optimize('scf')
oeprop('DIPOLE', 'QUADRUPOLE', 'MULLIKEN_CHARGES')
f=open( 'psi4out.xyz', 'w' )
f.write( "15  " )
f.write( str(ee) + "\n" )
f.write( MOL.save_string_xyz() )
f.close()
--------------------------------------------------------------------------

    Molecular point group: c1
  Charge       = 0
  Multiplicity = 1
  Basis Set: CC-PVTZ
  Basis Set:
  @DF-RHF Final Energy:  -232.21539598118522
    Total Energy =                       -232.2153959811854520
    Molecular point group: c1
  Basis Set: CC-PVTZ
  Basis Set:
  Basis Set: CC-PVTZ
  Basis Set:
  @DF-RHF Final Energy:  -232.21596457071607
    Total Energy =                       -232.2159645707159825
  Basis Set: CC-PVTZ
  Basis Set:
  Basis Set: CC-PVTZ
  Basis Set:
  @DF-RHF Final Energy:  -232.22157234730329
    Total Energy =                       -232.2215723473032085
  Basis Set: CC-PVTZ
  Basis Set:
  Basis Set: CC-PVTZ
  Basis Set:
  @DF-RHF Final Energy:  -232.22318547475598
    Total Energy =                       -232.2231854747560647
  Basis Set: CC-PVTZ
  Basis Set:
  Basis Set: CC-PVTZ
  Basis Set:
  @DF-RHF Final Energy:  -232.22337628885620
    Total Energy =                       -232.2233762888563433
  Basis Set: CC-PVTZ
  Basis Set:
  Basis Set: CC-PVTZ
  Basis Set:
  @DF-RHF Final Energy:  -232.22341591478127
    Total Energy =                       -232.2234159147812989
  Basis Set: CC-PVTZ
  Basis Set:
  Basis Set: CC-PVTZ
  Basis Set:
  @DF-RHF Final Energy:  -232.22341882356804
    Total Energy =                       -232.2234188235681813
  Basis Set: CC-PVTZ
  Basis Set:
  Charge       = 0
  Multiplicity = 1
  Basis Set: CC-PVTZ
  Basis Set:

    Orbital Energies (a.u.)
    -----------------------

    Doubly Occupied:

       1A    -20.544825     2A    -11.264411     3A    -11.260419
       4A    -11.217321     5A    -11.213970     6A     -1.376409
       7A     -1.058523     8A     -0.961473     9A     -0.885350
      10A     -0.800797    11A     -0.673288    12A     -0.660494
      13A     -0.632305    14A     -0.605838    15A     -0.563562
      16A     -0.531597    17A     -0.526768    18A     -0.498733
      19A     -0.488245    20A     -0.450928    21A     -0.409616

  @DF-RHF Final Energy:  -232.22341910575693

   => Energetics <=

    Nuclear Repulsion Energy =            192.3958073893114147
    One-Electron Energy =                -695.9887109357269992
    Two-Electron Energy =                 271.3694844406583684
    DFT Exchange-Correlation Energy =       0.0000000000000000
    Empirical Dispersion Energy =           0.0000000000000000
    PCM Polarization Energy =               0.0000000000000000
    EFP Energy =                            0.0000000000000000
    Total Energy =                       -232.2234191057572161
    Molecular point group: c1
  Basis Set: CC-PVTZ
  Basis Set:

  -Total Gradient:
     Atom            X                  Y                   Z
    ------   -----------------  -----------------  -----------------
       1       -0.000006749039    -0.000003645548     0.000005319838
       2       -0.000072661926     0.000008633541     0.003333831700
       3       -0.000023149170    -0.000110900246    -0.004050098927
       4        0.000005488363    -0.000005176668    -0.000002397034
       5        0.000003732211     0.000001482348    -0.000008830523
       6        0.000581788948     0.000661736675    -0.003134455359
       7        0.000003622759    -0.000006031966    -0.000006865583
       8       -0.000497362872    -0.000547646993     0.003865168116
       9        0.000008772017    -0.000013187229     0.000006928909
      10       -0.000000262598     0.000002619881    -0.000001450796
      11       -0.000000265508     0.000004142223    -0.000002164287
      12       -0.000001682131     0.000006358437    -0.000005893922
      13        0.000000633003     0.000000325069    -0.000000667995
      14       -0.000000430304     0.000000431394     0.000000503488
      15       -0.000001473753     0.000000859081     0.000001072374

  **** Optimization is complete! (in 8 steps) ****
    Final optimized geometry and variables:
    Molecular point group: c1

    Geometry (in Angstrom), charge = 0, multiplicity = 1:

    H           -2.571945580541     1.491019060175    -0.654785915868
    C           -1.881094342056     0.682241350962    -0.463951045924
    O           -0.603394855210     1.229176077154    -0.438032140556
    H           -1.988359083658    -0.055836068600    -1.257079059538
    H           -2.149363365959     0.216993615970     0.478544577541
    C            0.473698929680     0.339289855645    -0.418840078853
    C            0.408575227163    -0.742952040393     0.652969733042
    H            1.344751781413     0.950110848694    -0.219347745132
    H            0.593150642840    -0.120694154941    -1.399497249536
    C            1.706602630904    -1.542495108404     0.712285482738
    H            0.219033567821    -0.274280975542     1.613691694986
    H           -0.416556304340    -1.420016705776     0.462646450040
    H            2.550925279835    -0.905397902553     0.952200584772
    H            1.651680056124    -2.316408439415     1.468088727320
    H            1.915552905332    -2.024175019281    -0.237191399472

  Mulliken Charges: (a.u.)
   Center  Symbol    Alpha    Beta     Spin     Total
       1     H     0.44372  0.44372  0.00000  0.11256
       2     C     3.03666  3.03666  0.00000 -0.07332
       3     O     4.17626  4.17626  0.00000 -0.35253
       4     H     0.47298  0.47298  0.00000  0.05404
       5     H     0.46811  0.46811  0.00000  0.06377
       6     C     2.97217  2.97217  0.00000  0.05565
       7     C     3.09658  3.09658  0.00000 -0.19316
       8     H     0.45335  0.45335  0.00000  0.09330
       9     H     0.46940  0.46940  0.00000  0.06120
      10     C     3.15241  3.15241  0.00000 -0.30481
      11     H     0.44911  0.44911  0.00000  0.10178
      12     H     0.45421  0.45421  0.00000  0.09157
      13     H     0.45341  0.45341  0.00000  0.09318
      14     H     0.44663  0.44663  0.00000  0.10674
      15     H     0.45499  0.45499  0.00000  0.09001

   Total alpha = 21.00000, Total beta = 21.00000, Total charge = -0.00000
