                              Psi4 1.0.54 Driver

  ==> Input File <==

--------------------------------------------------------------------------
set {
	reference rhf
	basis cc-pvtz
}

set_num_threads( 4 )
memory 2 gb

molecule MOL {
0 1

H	 1.692550	 -1.631777	 0.448720
O	 2.012307	 -0.863440	 0.000222
C	 1.050374	 0.054877	 0.000135
C	 -0.318151	 -0.570512	 0.000144
O	 1.286319	 1.213453	 -0.000040
C	 -1.454884	 0.441630	 -0.000560
H	 -0.371613	 -1.223646	 -0.864985
H	 -0.371920	 -1.222758	 0.865929
C	 -2.822577	 -0.232186	 0.000063
H	 -1.359760	 1.084704	 -0.867077
H	 -1.359641	 1.085996	 0.864983
H	 -2.954352	 -0.858985	 -0.875745
H	 -3.615886	 0.505352	 0.000019
H	 -2.953878	 -0.858359	 0.876394

	symmetry c1
}
set optking {
	frozen_dihedral = ("
		1 2 3 5
	")
}

ee,wfn = optimize('scf', return_wfn=True)
oeprop( wfn, 'DIPOLE', 'QUADRUPOLE', 'MULLIKEN_CHARGES')
f=open( 'psi4out.xyz', 'w' )
f.write( "14  " )
f.write( str(ee) + "\n" )
f.write( MOL.save_string_xyz() )
f.close()
--------------------------------------------------------------------------

    Molecular point group: c1
  Charge       = 0
  Multiplicity = 1
  Basis Set: CC-PVTZ
  Basis Set:
  @DF-RHF Final Energy:  -305.98745297219966
    Total Energy =                       -305.9874529721996623
    Molecular point group: c1
  Basis Set: CC-PVTZ
  Basis Set:
  Basis Set: CC-PVTZ
  Basis Set:
  @DF-RHF Final Energy:  -305.98845052184993
    Total Energy =                       -305.9884505218498134
  Basis Set: CC-PVTZ
  Basis Set:
  Basis Set: CC-PVTZ
  Basis Set:
  @DF-RHF Final Energy:  -305.98866153251618
    Total Energy =                       -305.9886615325162893
  Basis Set: CC-PVTZ
  Basis Set:
  Basis Set: CC-PVTZ
  Basis Set:
  @DF-RHF Final Energy:  -305.98874226004330
    Total Energy =                       -305.9887422600435229
  Basis Set: CC-PVTZ
  Basis Set:
  Basis Set: CC-PVTZ
  Basis Set:
  @DF-RHF Final Energy:  -305.98886228904814
    Total Energy =                       -305.9888622890483703
  Basis Set: CC-PVTZ
  Basis Set:
  Charge       = 0
  Multiplicity = 1
  Basis Set: CC-PVTZ
  Basis Set:

    Orbital Energies (a.u.)
    -----------------------

    Doubly Occupied:

       1A    -20.600530     2A    -20.540104     3A    -11.373455
       4A    -11.249675     5A    -11.228950     6A    -11.220230
       7A     -1.469603     8A     -1.373792     9A     -1.088412
      10A     -0.978972    11A     -0.854163    12A     -0.817598
      13A     -0.721238    14A     -0.674863    15A     -0.663242
      16A     -0.626697    17A     -0.586245    18A     -0.582210
      19A     -0.552336    20A     -0.510533    21A     -0.496572
      22A     -0.488924    23A     -0.483083    24A     -0.444871

  @DF-RHF Final Energy:  -305.98886292291161

   => Energetics <=

    Nuclear Repulsion Energy =            240.2526463628305748
    One-Electron Energy =                -893.2304248936000022
    Two-Electron Energy =                 346.9889156078578480
    DFT Exchange-Correlation Energy =       0.0000000000000000
    Empirical Dispersion Energy =           0.0000000000000000
    PCM Polarization Energy =               0.0000000000000000
    EFP Energy =                            0.0000000000000000
    Total Energy =                       -305.9888629229116077
    Molecular point group: c1
  Basis Set: CC-PVTZ
  Basis Set:

  -Total Gradient:
     Atom            X                  Y                   Z
    ------   -----------------  -----------------  -----------------
       1        0.001916878373     0.002010662078     0.005434384869
       2       -0.002397671637    -0.002590277480    -0.004541756868
       3        0.000373915182     0.000957189295    -0.006154326338
       4       -0.000011742346    -0.000008019126    -0.000046589600
       5        0.000166002506    -0.000343767854     0.005267633227
       6       -0.000014868087    -0.000008295946     0.000027345383
       7       -0.000014158828    -0.000016177711     0.000013703694
       8       -0.000001983985    -0.000002098161     0.000023592236
       9       -0.000003998957     0.000001968700    -0.000008560242
      10        0.000001563014     0.000008434553    -0.000014392828
      11        0.000005220164     0.000000680514    -0.000000444483
      12       -0.000005252500    -0.000009776362    -0.000012284115
      13       -0.000012760307     0.000008263844     0.000000041992
      14       -0.000001142593    -0.000008786344     0.000011653073

  **** Optimization is complete! (in 6 steps) ****
    Final optimized geometry and variables:
    Molecular point group: c1

    Geometry (in Angstrom), charge = 0, multiplicity = 1:

    H            1.920978173863    -1.560602801518     0.297175235249
    O            2.108419061739    -0.721796409284    -0.087019597616
    C            1.056679221613     0.107219688318    -0.018262361465
    C           -0.291529912121    -0.575954247772    -0.044804398683
    O            1.220754779752     1.268491164595     0.056928640089
    C           -1.469767050685     0.382874556053     0.052927999592
    H           -0.340268824128    -1.159991585955    -0.959253600397
    H           -0.318214370788    -1.294586013487     0.772137954642
    C           -2.809218836476    -0.344693026576     0.020753306162
    H           -1.413634428584     1.094104863068    -0.761564922952
    H           -1.382578771934     0.960722937752     0.964708202392
    H           -2.932176222440    -0.906278836237    -0.899491436362
    H           -3.630405046050     0.358073153097     0.089763443707
    H           -2.901455143524    -1.041363042941     0.847704880058

  Mulliken Charges: (a.u.)
   Center  Symbol    Alpha    Beta     Spin     Total
       1     H     0.38798  0.38798  0.00000  0.22405
       2     O     4.15132  4.15132  0.00000 -0.30263
       3     C     2.80473  2.80473  0.00000  0.39053
       4     C     3.11964  3.11964  0.00000 -0.23929
       5     O     4.17131  4.17131  0.00000 -0.34262
       6     C     3.08311  3.08311  0.00000 -0.16622
       7     H     0.43720  0.43720  0.00000  0.12559
       8     H     0.45186  0.45186  0.00000  0.09627
       9     C     3.15022  3.15022  0.00000 -0.30044
      10     H     0.44268  0.44268  0.00000  0.11464
      11     H     0.44436  0.44436  0.00000  0.11128
      12     H     0.45536  0.45536  0.00000  0.08928
      13     H     0.44391  0.44391  0.00000  0.11217
      14     H     0.45631  0.45631  0.00000  0.08737

   Total alpha = 24.00000, Total beta = 24.00000, Total charge = -0.00000

*** Psi4 exiting successfully. Buy a developer a beer!
