                              Psi4 1.0.54 Driver

  ==> Input File <==

--------------------------------------------------------------------------
set {
	reference rhf
	basis cc-pvtz
}

set_num_threads( 4 )
memory 2 gb

molecule MOL {
0 1

H	 -3.144994	 -1.202467	 -0.018751
O	 -2.321472	 -0.864941	 -0.318626
C	 -2.021813	 0.336996	 0.342658
C	 -0.669613	 0.837286	 -0.127252
H	 -2.780861	 1.084746	 0.127159
H	 -2.006390	 0.184138	 1.420053
C	 0.490865	 -0.082543	 0.241244
H	 -0.708709	 0.967192	 -1.204587
H	 -0.507562	 1.822272	 0.303070
C	 1.839800	 0.429565	 -0.255472
H	 0.305636	 -1.070211	 -0.165276
H	 0.527397	 -0.195943	 1.322876
C	 2.160791	 1.838349	 0.232461
H	 2.622452	 -0.250307	 0.070002
H	 1.855482	 0.413168	 -1.342290
H	 2.187264	 1.879384	 1.316219
H	 3.124548	 2.172163	 -0.135024
H	 1.413938	 2.549333	 -0.105411

	symmetry c1
}
set optking {
	frozen_dihedral = ("
		14 10 7 11
	")
}

ee,wfn = optimize('scf', return_wfn=True)
oeprop( wfn, 'DIPOLE', 'QUADRUPOLE', 'MULLIKEN_CHARGES')
f=open( 'psi4out.xyz', 'w' )
f.write( "18  " )
f.write( str(ee) + "\n" )
f.write( MOL.save_string_xyz() )
f.close()
--------------------------------------------------------------------------

    Molecular point group: c1
  Charge       = 0
  Multiplicity = 1
  Basis Set: CC-PVTZ
  Basis Set:
  @DF-RHF Final Energy:  -271.28391516000471
    Total Energy =                       -271.2839151600046534
    Molecular point group: c1
  Basis Set: CC-PVTZ
  Basis Set:
  Basis Set: CC-PVTZ
  Basis Set:
  @DF-RHF Final Energy:  -271.28411156867344
    Total Energy =                       -271.2841115686734383
  Basis Set: CC-PVTZ
  Basis Set:
  Basis Set: CC-PVTZ
  Basis Set:
  @DF-RHF Final Energy:  -271.28494353146471
    Total Energy =                       -271.2849435314646485
  Basis Set: CC-PVTZ
  Basis Set:
  Basis Set: CC-PVTZ
  Basis Set:
  @DF-RHF Final Energy:  -271.28498845489526
    Total Energy =                       -271.2849884548951422
  Basis Set: CC-PVTZ
  Basis Set:
  Basis Set: CC-PVTZ
  Basis Set:
  @DF-RHF Final Energy:  -271.28499114269960
    Total Energy =                       -271.2849911426996528
  Basis Set: CC-PVTZ
  Basis Set:
  Charge       = 0
  Multiplicity = 1
  Basis Set: CC-PVTZ
  Basis Set:

    Orbital Energies (a.u.)
    -----------------------

    Doubly Occupied:

       1A    -20.546252     2A    -11.265921     3A    -11.209864
       4A    -11.209388     5A    -11.205120     6A    -11.203404
       7A     -1.364158     8A     -1.076271     9A     -1.007355
      10A     -0.916244    11A     -0.830670    12A     -0.771360
      13A     -0.708795    14A     -0.635968    15A     -0.621664
      16A     -0.606811    17A     -0.569014    18A     -0.552298
      19A     -0.525947    20A     -0.502801    21A     -0.495091
      22A     -0.462094    23A     -0.458574    24A     -0.449885
      25A     -0.429922

  @DF-RHF Final Energy:  -271.28499170940825

   => Energetics <=

    Nuclear Repulsion Energy =            251.9051931297968565
    One-Electron Energy =                -867.1306211974666667
    Two-Electron Energy =                 343.9404363582618771
    DFT Exchange-Correlation Energy =       0.0000000000000000
    Empirical Dispersion Energy =           0.0000000000000000
    PCM Polarization Energy =               0.0000000000000000
    EFP Energy =                            0.0000000000000000
    Total Energy =                       -271.2849917094079046
    Molecular point group: c1
  Basis Set: CC-PVTZ
  Basis Set:

  -Total Gradient:
     Atom            X                  Y                   Z
    ------   -----------------  -----------------  -----------------
       1       -0.000003455122     0.000003831238    -0.000001771542
       2       -0.000014364302     0.000019019083    -0.000015581516
       3        0.000021152934    -0.000025805148     0.000047240280
       4        0.000008861975    -0.000009973214    -0.000038160874
       5        0.000001217253    -0.000014601591    -0.000013192212
       6       -0.000009909401     0.000007266695     0.000013460556
       7        0.000951177973    -0.000632463269     0.002126988395
       8        0.000007344875     0.000011371665    -0.000012206690
       9        0.000003567074     0.000001347973     0.000002095019
      10       -0.000413094954    -0.001026626346    -0.002119729525
      11       -0.000731668215     0.000710406639    -0.001453428828
      12       -0.000003401875    -0.000006684509     0.000010225269
      13       -0.000000195134    -0.000022115150     0.000008088772
      14        0.000189128008     0.000992003027     0.001457181992
      15        0.000002398318     0.000000501909    -0.000010929985
      16       -0.000004127275     0.000004279054     0.000005775485
      17        0.000005343427    -0.000005766380     0.000000724479
      18       -0.000009975560    -0.000005991682    -0.000006779075

  **** Optimization is complete! (in 6 steps) ****
    Final optimized geometry and variables:
    Molecular point group: c1

    Geometry (in Angstrom), charge = 0, multiplicity = 1:

    H           -2.975737890651    -1.638416044841    -0.240866900533
    O           -2.145188837552    -1.269999128220    -0.478224092595
    C           -1.923647010513    -0.079176549430     0.232122688717
    C           -0.556707359337     0.470129660513    -0.129884234391
    H           -2.686705288910     0.654011927898    -0.016442839056
    H           -1.977726593727    -0.260416616949     1.303933540348
    C            0.595371174006    -0.432418510501     0.310133637970
    H           -0.521366155400     0.614441015737    -1.206056048514
    H           -0.465465581303     1.451442932376     0.324035177897
    C            1.974913954155     0.017710084205    -0.173928188570
    H            0.403714320923    -1.428254001916    -0.070081721908
    H            0.599145376334    -0.502093585270     1.395804641179
    C            2.384075742425     1.422015188993     0.266217038485
    H            2.712108590232    -0.683275000369     0.205546390167
    H            2.014654193291    -0.046029994749    -1.257627654653
    H            2.326495439783     1.525345862368     1.345503873756
    H            3.405105892022     1.634188333158    -0.029957332368
    H            1.753909707936     2.186022180680    -0.172939120430

  Mulliken Charges: (a.u.)
   Center  Symbol    Alpha    Beta     Spin     Total
       1     H     0.39563  0.39563  0.00000  0.20873
       2     O     4.19865  4.19865  0.00000 -0.39730
       3     C     2.97244  2.97244  0.00000  0.05512
       4     C     3.09387  3.09387  0.00000 -0.18774
       5     H     0.46491  0.46491  0.00000  0.07018
       6     H     0.47365  0.47365  0.00000  0.05271
       7     C     3.09588  3.09588  0.00000 -0.19176
       8     H     0.45206  0.45206  0.00000  0.09589
       9     H     0.45260  0.45260  0.00000  0.09480
      10     C     3.09074  3.09074  0.00000 -0.18148
      11     H     0.44011  0.44011  0.00000  0.11978
      12     H     0.45737  0.45737  0.00000  0.08526
      13     C     3.15445  3.15445  0.00000 -0.30889
      14     H     0.44965  0.44965  0.00000  0.10069
      15     H     0.45268  0.45268  0.00000  0.09464
      16     H     0.45550  0.45550  0.00000  0.08901
      17     H     0.44628  0.44628  0.00000  0.10745
      18     H     0.45354  0.45354  0.00000  0.09292

   Total alpha = 25.00000, Total beta = 25.00000, Total charge = -0.00000

*** Psi4 exiting successfully. Buy a developer a beer!
