                              Psi4 1.0.54 Driver

  ==> Input File <==

--------------------------------------------------------------------------
set {
	reference rhf
	basis cc-pvtz
}

set_num_threads( 4 )
memory 2 gb

molecule MOL {
0 1

H	 1.166964	 -1.062386	 0.758429
O	 1.324748	 -0.612467	 -0.052206
C	 0.706474	 0.636793	 -0.025501
C	 -0.781241	 0.594476	 0.180769
H	 0.921138	 1.105668	 -0.978589
H	 1.149318	 1.272404	 0.739082
C	 -1.520732	 -0.491470	 0.227464
H	 -1.246323	 1.559889	 0.294455
H	 -1.096953	 -1.469481	 0.101454
H	 -2.581450	 -0.433560	 0.381036

	symmetry c1
}
set optking {
	frozen_dihedral = ("
		5 3 2 1
	")
}

ee,wfn = optimize('scf', return_wfn=True)
oeprop( wfn, 'DIPOLE', 'QUADRUPOLE', 'MULLIKEN_CHARGES')
f=open( 'psi4out.xyz', 'w' )
f.write( "10  " )
f.write( str(ee) + "\n" )
f.write( MOL.save_string_xyz() )
f.close()
--------------------------------------------------------------------------

    Molecular point group: c1
  Charge       = 0
  Multiplicity = 1
  Basis Set: CC-PVTZ
  Basis Set:
  @DF-RHF Final Energy:  -191.99879653174088
    Total Energy =                       -191.9987965317408793
    Molecular point group: c1
  Basis Set: CC-PVTZ
  Basis Set:
  Basis Set: CC-PVTZ
  Basis Set:
  @DF-RHF Final Energy:  -191.99880382346225
    Total Energy =                       -191.9988038234623389
  Basis Set: CC-PVTZ
  Basis Set:
  Charge       = 0
  Multiplicity = 1
  Basis Set: CC-PVTZ
  Basis Set:

    Orbital Energies (a.u.)
    -----------------------

    Doubly Occupied:

       1A    -20.554334     2A    -11.278202     3A    -11.231556
       4A    -11.217802     5A     -1.374917     6A     -1.063015
       7A     -0.932939     8A     -0.772821     9A     -0.691231
      10A     -0.666077    11A     -0.622176    12A     -0.573954
      13A     -0.543486    14A     -0.495063    15A     -0.453275
      16A     -0.370001

  @DF-RHF Final Energy:  -191.99880554302320

   => Energetics <=

    Nuclear Repulsion Energy =            119.5709866219697091
    One-Electron Energy =                -497.4578845051055396
    Two-Electron Energy =                 185.8880923401126495
    DFT Exchange-Correlation Energy =       0.0000000000000000
    Empirical Dispersion Energy =           0.0000000000000000
    PCM Polarization Energy =               0.0000000000000000
    EFP Energy =                            0.0000000000000000
    Total Energy =                       -191.9988055430231668
    Molecular point group: c1
  Basis Set: CC-PVTZ
  Basis Set:

  -Total Gradient:
     Atom            X                  Y                   Z
    ------   -----------------  -----------------  -----------------
       1       -0.000522919966    -0.000240782907    -0.000222314098
       2        0.000523500522     0.000290993222     0.000212962080
       3        0.000392370881     0.000177454611     0.000207997092
       4        0.000056655269    -0.000005362071    -0.000013052669
       5       -0.000445633213    -0.000226275946    -0.000215689184
       6       -0.000008666292     0.000011597891     0.000030137723
       7       -0.000032597534     0.000011707942    -0.000045438540
       8        0.000018500567    -0.000002343852     0.000007846159
       9        0.000008405303    -0.000017394317     0.000020714451
      10        0.000010384462     0.000000405423     0.000016836986

  **** Optimization is complete! (in 3 steps) ****
    Final optimized geometry and variables:
    Molecular point group: c1

    Geometry (in Angstrom), charge = 0, multiplicity = 1:

    H            1.168652831893    -1.055478624011     0.681699517963
    O            1.320847691086    -0.613248520430    -0.134343923539
    C            0.700423250289     0.634786634188    -0.114891670928
    C           -0.786722915512     0.592667931808     0.095944686918
    H            0.908318412802     1.095044719002    -1.073687921233
    H            1.144428324247     1.276924018782     0.643522389753
    C           -1.529186064242    -0.491650326530     0.134159958887
    H           -1.249579095298     1.557678981680     0.220606486529
    H           -1.110220573182    -1.470220933654    -0.004118990478
    H           -2.589099451860    -0.432344143135     0.292292921007

  Mulliken Charges: (a.u.)
   Center  Symbol    Alpha    Beta     Spin     Total
       1     H     0.39097  0.39097  0.00000  0.21805
       2     O     4.19962  4.19962  0.00000 -0.39923
       3     C     2.94927  2.94927  0.00000  0.10145
       4     C     3.08482  3.08482  0.00000 -0.16964
       5     H     0.45374  0.45374  0.00000  0.09252
       6     H     0.46858  0.46858  0.00000  0.06285
       7     C     3.17669  3.17669  0.00000 -0.35337
       8     H     0.42319  0.42319  0.00000  0.15362
       9     H     0.42510  0.42510  0.00000  0.14979
      10     H     0.42802  0.42802  0.00000  0.14397

   Total alpha = 16.00000, Total beta = 16.00000, Total charge = -0.00000

*** Psi4 exiting successfully. Buy a developer a beer!
