  ==> Input File <==

--------------------------------------------------------------------------
set {
	reference rhf
	basis 6-31G*
}

set_num_threads( 4 )
memory 2 gb

molecule MOL {
0 1

H	 -3.879460	 0.844461	 0.060976
O	 -3.027799	 1.166238	 -0.197691
C	 -2.026376	 0.340750	 0.341611
C	 -0.673256	 0.843270	 -0.132153
H	 -2.064542	 0.359503	 1.429328
H	 -2.171006	 -0.691708	 0.025753
C	 0.486613	 -0.083066	 0.235839
H	 -0.715586	 0.970948	 -1.210718
H	 -0.508072	 1.829858	 0.297090
C	 1.840406	 0.433480	 -0.254303
H	 0.300215	 -1.068318	 -0.178947
H	 0.519509	 -0.203625	 1.318070
C	 3.000220	 -0.489290	 0.118523
H	 1.809207	 0.553576	 -1.335192
H	 2.021860	 1.424500	 0.157276
H	 2.864959	 -1.479103	 -0.307933
H	 3.946603	 -0.099227	 -0.243630
H	 3.080049	 -0.602997	 1.196117

	symmetry c1
}
set optking {
	frozen_dihedral = ("
		2 3 4 8
	")
}

ee = optimize('scf')
oeprop('DIPOLE', 'QUADRUPOLE', 'MULLIKEN_CHARGES')
f=open( 'psi4out.xyz', 'w' )
f.write( "18  " )
f.write( str(ee) + "\n" )
f.write( MOL.save_string_xyz() )
f.close()
--------------------------------------------------------------------------

    Molecular point group: c1
  Charge       = 0
  Multiplicity = 1
  Basis Set: 6-31G*
  Basis Set:
  @DF-RHF Final Energy:  -271.17938753272233
    Total Energy =                       -271.1793875327221599
    Molecular point group: c1
  Basis Set: 6-31G*
  Basis Set:
  Basis Set: 6-31G*
  Basis Set:
  @DF-RHF Final Energy:  -271.17951070942166
    Total Energy =                       -271.1795107094217201
  Basis Set: 6-31G*
  Basis Set:
  Basis Set: 6-31G*
  Basis Set:
  @DF-RHF Final Energy:  -271.17953069244254
    Total Energy =                       -271.1795306924425404
  Basis Set: 6-31G*
  Basis Set:
  Basis Set: 6-31G*
  Basis Set:
  @DF-RHF Final Energy:  -271.17953247406501
    Total Energy =                       -271.1795324740651267
  Basis Set: 6-31G*
  Basis Set:
  Basis Set: 6-31G*
  Basis Set:
  @DF-RHF Final Energy:  -271.17953462419831
    Total Energy =                       -271.1795346241985385
  Basis Set: 6-31G*
  Basis Set:
  Charge       = 0
  Multiplicity = 1
  Basis Set: 6-31G*
  Basis Set:

    Orbital Energies (a.u.)
    -----------------------

    Doubly Occupied:

       1A    -20.552025     2A    -11.267252     3A    -11.216419
       4A    -11.215581     5A    -11.210762     6A    -11.208841
       7A     -1.358861     8A     -1.080460     9A     -1.011135
      10A     -0.913353    11A     -0.819912    12A     -0.792669
      13A     -0.692916    14A     -0.661607    15A     -0.621392
      16A     -0.587563    17A     -0.571528    18A     -0.555579
      19A     -0.531495    20A     -0.493135    21A     -0.490433
      22A     -0.469405    23A     -0.464213    24A     -0.450952
      25A     -0.433902

  @DF-RHF Final Energy:  -271.17953479547020

   => Energetics <=

    Nuclear Repulsion Energy =            245.2454541333679572
    One-Electron Energy =                -853.5071981815802928
    Two-Electron Energy =                 337.0822092527420750
    DFT Exchange-Correlation Energy =       0.0000000000000000
    Empirical Dispersion Energy =           0.0000000000000000
    PCM Polarization Energy =               0.0000000000000000
    EFP Energy =                            0.0000000000000000
    Total Energy =                       -271.1795347954702606
    Molecular point group: c1
  Basis Set: 6-31G*
  Basis Set:

  -Total Gradient:
     Atom            X                  Y                   Z
    ------   -----------------  -----------------  -----------------
       1        0.000026294384    -0.000016263766     0.000006481962
       2       -0.000060491919    -0.000750449682    -0.001008175951
       3       -0.000026470484     0.001311798617     0.001353271286
       4        0.000561073424    -0.002078602136    -0.000533462187
       5        0.000005109869     0.000003508897     0.000002432755
       6       -0.000002846139     0.000006036239    -0.000012837250
       7        0.000016288911    -0.000018798118    -0.000003599889
       8       -0.000489688511     0.001516145515     0.000169450447
       9       -0.000000030484     0.000007778554     0.000019894152
      10       -0.000018012394    -0.000011531093    -0.000022312857
      11        0.000006898595     0.000036226501     0.000003277650
      12        0.000002752775    -0.000003690321     0.000014019407
      13       -0.000009618358    -0.000005018147     0.000016454241
      14       -0.000006301246    -0.000000509453    -0.000007008324
      15       -0.000005757227     0.000001584897     0.000000894812
      16        0.000002742091     0.000002829723    -0.000002737634
      17       -0.000002036867     0.000006912998     0.000003291168
      18        0.000000093577    -0.000007959228     0.000000666211

  **** Optimization is complete! (in 6 steps) ****
    Final optimized geometry and variables:
    Molecular point group: c1

    Geometry (in Angstrom), charge = 0, multiplicity = 1:

    H           -3.737961358710     0.507981460263     0.102987637767
    O           -2.891198443771     0.786736756718    -0.215129147305
    C           -1.889828475771    -0.037363071559     0.323981561282
    C           -0.544661000787     0.463504311302    -0.173059155816
    H           -1.917766398610    -0.018685689622     1.412419609004
    H           -2.040302677137    -1.070146277153     0.011842329424
    C            0.614730331018    -0.457411020819     0.206791875139
    H           -0.604482967218     0.579642096688    -1.251558126420
    H           -0.378235938096     1.458804675371     0.231171401205
    C            1.973079579747     0.063800540347    -0.265802011805
    H            0.445906168799    -1.447079125908    -0.214474499494
    H            0.639242617587    -0.586606653757     1.288083659902
    C            3.130473585801    -0.860607543485     0.109755322393
    H            1.950907842267     0.195236126408    -1.345299928774
    H            2.146420187459     1.050371569671     0.158067389207
    H            3.004005682411    -1.846085956510    -0.329705049565
    H            4.079376979778    -0.463515176384    -0.237252121948
    H            3.198734426355    -0.986231892402     1.186751923423

  Mulliken Charges: (a.u.)
   Center  Symbol    Alpha    Beta     Spin     Total
       1     H     0.28117  0.28117  0.00000  0.43767
       2     O     4.37175  4.37175  0.00000 -0.74349
       3     C     2.98989  2.98989  0.00000  0.02021
       4     C     3.15985  3.15985  0.00000 -0.31971
       5     H     0.43250  0.43250  0.00000  0.13499
       6     H     0.43294  0.43294  0.00000  0.13413
       7     C     3.15873  3.15873  0.00000 -0.31746
       8     H     0.41313  0.41313  0.00000  0.17373
       9     H     0.41625  0.41625  0.00000  0.16751
      10     C     3.15086  3.15086  0.00000 -0.30171
      11     H     0.42327  0.42327  0.00000  0.15346
      12     H     0.42428  0.42428  0.00000  0.15143
      13     C     3.23950  3.23950  0.00000 -0.47900
      14     H     0.42143  0.42143  0.00000  0.15714
      15     H     0.42179  0.42179  0.00000  0.15642
      16     H     0.42183  0.42183  0.00000  0.15633
      17     H     0.41881  0.41881  0.00000  0.16237
      18     H     0.42201  0.42201  0.00000  0.15598

   Total alpha = 25.00000, Total beta = 25.00000, Total charge =  0.00000
