                              Psi4 1.0.54 Driver

  ==> Input File <==

--------------------------------------------------------------------------
set {
	reference rhf
	basis cc-pvtz
}

set_num_threads( 4 )
memory 2 gb

molecule MOL {
0 1

O	 -2.455584	 0.706786	 -0.883644
C	 -1.922978	 0.063265	 -0.045005
C	 -2.610712	 -0.956163	 0.818847
O	 -0.637375	 0.157174	 0.243149
H	 -2.505863	 -0.680187	 1.860270
H	 -3.653723	 -1.010534	 0.552748
H	 -2.140732	 -1.922099	 0.685970
C	 0.162530	 -1.009518	 0.097799
C	 1.587210	 -0.664190	 0.477086
H	 0.096803	 -1.356267	 -0.924704
H	 -0.233803	 -1.785900	 0.736810
C	 2.256770	 0.342732	 -0.454344
H	 2.154716	 -1.590834	 0.479041
H	 1.598751	 -0.289614	 1.496104
C	 3.698146	 0.643205	 -0.057145
H	 2.235038	 -0.042575	 -1.470299
H	 1.683491	 1.262594	 -0.461300
H	 4.150202	 1.356548	 -0.736242
H	 4.305463	 -0.255904	 -0.069842
H	 3.749130	 1.061068	 0.942759

	symmetry c1
}
set optking {
	frozen_dihedral = ("
		1 2 4 8
	")
}

ee,wfn = optimize('scf', return_wfn=True)
oeprop( wfn, 'DIPOLE', 'QUADRUPOLE', 'MULLIKEN_CHARGES')
f=open( 'psi4out.xyz', 'w' )
f.write( "20  " )
f.write( str(ee) + "\n" )
f.write( MOL.save_string_xyz() )
f.close()
--------------------------------------------------------------------------

    Molecular point group: c1
  Charge       = 0
  Multiplicity = 1
  Basis Set: CC-PVTZ
  Basis Set:
  @DF-RHF Final Energy:  -384.06479229298799
    Total Energy =                       -384.0647922929882725
    Molecular point group: c1
  Basis Set: CC-PVTZ
  Basis Set:
  Basis Set: CC-PVTZ
  Basis Set:
  @DF-RHF Final Energy:  -383.31706624735415
    Total Energy =                       -383.3170662473543757
  Basis Set: CC-PVTZ
  Basis Set:
  Basis Set: CC-PVTZ
  Basis Set:
  @DF-RHF Final Energy:  -383.53389346731217
    Total Energy =                       -383.5338934673122822
  Basis Set: CC-PVTZ
  Basis Set:
  Basis Set: CC-PVTZ
  Basis Set:
  @DF-RHF Final Energy:  -383.72739538620192
    Total Energy =                       -383.7273953862018061
  Basis Set: CC-PVTZ
  Basis Set:
  @DF-RHF Final Energy:  -383.98181513909270
    Total Energy =                       -383.9818151390927596
  @DF-RHF Final Energy:  -384.05837722006169
    Total Energy =                       -384.0583772200618000
  @DF-RHF Final Energy:  -384.06686133094519
    Total Energy =                       -384.0668613309449029
  @DF-RHF Final Energy:  -384.06862881678569
    Total Energy =                       -384.0686288167854627
  @DF-RHF Final Energy:  -384.06899497346149
    Total Energy =                       -384.0689949734618267
  @DF-RHF Final Energy:  -384.06905847022864
    Total Energy =                       -384.0690584702285832
  @DF-RHF Final Energy:  -384.06908866683312
    Total Energy =                       -384.0690886668328403
  @DF-RHF Final Energy:  -384.06910545193836
    Total Energy =                       -384.0691054519388672
  @DF-RHF Final Energy:  -384.06911186869036
    Total Energy =                       -384.0691118686908112
  @DF-RHF Final Energy:  -384.06911662681676
    Total Energy =                       -384.0691166268168217
  @DF-RHF Final Energy:  -384.06911671515070
    Total Energy =                       -384.0691167151504715
  Basis Set: CC-PVTZ
  Basis Set:
  @DF-RHF Final Energy:  -384.06832449629036
    Total Energy =                       -384.0683244962904155
  Basis Set: CC-PVTZ
  Basis Set:
  Basis Set: CC-PVTZ
  Basis Set:
  @DF-RHF Final Energy:  -384.06911588765530
    Total Energy =                       -384.0691158876549025
  Basis Set: CC-PVTZ
  Basis Set:
  Basis Set: CC-PVTZ
  Basis Set:
  @DF-RHF Final Energy:  -384.06911995341864
    Total Energy =                       -384.0691199534188627
  Basis Set: CC-PVTZ
  Basis Set:
  Charge       = 0
  Multiplicity = 1
  Basis Set: CC-PVTZ
  Basis Set:

    Orbital Energies (a.u.)
    -----------------------

    Doubly Occupied:

       1A    -20.579992     2A    -20.540497     3A    -11.369536
       4A    -11.293465     5A    -11.237811     6A    -11.226518
       7A    -11.216138     8A    -11.209709     9A     -1.461689
      10A     -1.369855    11A     -1.085022    12A     -1.020112
      13A     -0.994514    14A     -0.885183    15A     -0.810334
      16A     -0.780624    17A     -0.699081    18A     -0.686634
      19A     -0.656799    20A     -0.636678    21A     -0.615655
      22A     -0.591994    23A     -0.581789    24A     -0.565620
      25A     -0.543304    26A     -0.525937    27A     -0.505855
      28A     -0.484975    29A     -0.479637    30A     -0.473861
      31A     -0.450151    32A     -0.438857

  @DF-RHF Final Energy:  -384.06912020461601

   => Energetics <=

    Nuclear Repulsion Energy =            385.3798329288368336
    One-Electron Energy =               -1286.8622554640571707
    Two-Electron Energy =                 517.4133023306039831
    DFT Exchange-Correlation Energy =       0.0000000000000000
    Empirical Dispersion Energy =           0.0000000000000000
    PCM Polarization Energy =               0.0000000000000000
    EFP Energy =                            0.0000000000000000
    Total Energy =                       -384.0691202046164108
    Molecular point group: c1
  Basis Set: CC-PVTZ
  Basis Set:

  -Total Gradient:
     Atom            X                  Y                   Z
    ------   -----------------  -----------------  -----------------
       1       -0.001296698691    -0.002401528942    -0.001444941284
       2        0.001637702682     0.003433867514     0.000835671383
       3        0.000000311300     0.000094673979     0.000041816316
       4        0.000211393490    -0.001488072441     0.003127615266
       5       -0.000002990783     0.000020907336    -0.000041040992
       6       -0.000001488905    -0.000023449940     0.000006856478
       7       -0.000018837961    -0.000018899729     0.000017952405
       8       -0.000549332899     0.000286084746    -0.002562579472
       9        0.000020360703     0.000055820712    -0.000033001878
      10        0.000034683257     0.000042260718     0.000053623004
      11       -0.000005793580     0.000035347122    -0.000038978510
      12        0.000010259158    -0.000036149219     0.000025340257
      13       -0.000011378658     0.000006935300    -0.000013898056
      14       -0.000026201321    -0.000001700022    -0.000034832459
      15        0.000015429947     0.000011987550     0.000004909137
      16        0.000019677823    -0.000001655379     0.000026620279
      17        0.000006079090    -0.000014423105     0.000019128346
      18       -0.000004915806    -0.000019544395     0.000041747901
      19       -0.000012866103     0.000019684672    -0.000010945014
      20       -0.000025392752    -0.000002146478    -0.000021063108

  **** Optimization is complete! (in 19 steps) ****
    Final optimized geometry and variables:
    Molecular point group: c1

    Geometry (in Angstrom), charge = 0, multiplicity = 1:

    O           -1.882248074182     1.797490105143     0.137414376681
    C           -1.379155627410     1.008686714979     0.850389900879
    C           -1.986105141717     0.558398176599     2.154322763877
    O           -0.186769653347     0.472578513508     0.546611986942
    H           -1.247895810777     0.602809334719     2.944445924389
    H           -2.828235482893     1.188066497578     2.390527408981
    H           -2.325458737338    -0.467369577024     2.073216855965
    C           -0.076508127863    -0.929821063804     0.378828158103
    C            1.276095859107    -1.237178194954    -0.230067803686
    H           -0.873877424871    -1.276692481363    -0.270768822880
    H           -0.174975305076    -1.426461950193     1.337434841046
    C            1.457765633212    -0.694237000219    -1.644379737476
    H            1.395841896137    -2.317382922036    -0.232411907366
    H            2.045331398948    -0.837131801895     0.422923552217
    C            2.832425068525    -1.013291248796    -2.221706121800
    H            0.689442185383    -1.113807439968    -2.288326305219
    H            1.302779673043     0.377300109654    -1.638078351041
    H            2.932614656984    -0.621663936265    -3.226923837840
    H            3.004102157770    -2.083983945627    -2.265393649741
    H            3.620875718762    -0.576994285288    -1.617681479990

  Mulliken Charges: (a.u.)
   Center  Symbol    Alpha    Beta     Spin     Total
       1     O     4.17017  4.17017  0.00000 -0.34034
       2     C     2.81411  2.81411  0.00000  0.37178
       3     C     3.15759  3.15759  0.00000 -0.31519
       4     O     4.15729  4.15729  0.00000 -0.31457
       5     H     0.44183  0.44183  0.00000  0.11634
       6     H     0.43078  0.43078  0.00000  0.13843
       7     H     0.44853  0.44853  0.00000  0.10293
       8     C     2.99487  2.99487  0.00000  0.01027
       9     C     3.08456  3.08456  0.00000 -0.16912
      10     H     0.45699  0.45699  0.00000  0.08602
      11     H     0.45078  0.45078  0.00000  0.09844
      12     C     3.08536  3.08536  0.00000 -0.17073
      13     H     0.45304  0.45304  0.00000  0.09392
      14     H     0.45009  0.45009  0.00000  0.09982
      15     C     3.15082  3.15082  0.00000 -0.30164
      16     H     0.45609  0.45609  0.00000  0.08783
      17     H     0.43943  0.43943  0.00000  0.12114
      18     H     0.44638  0.44638  0.00000  0.10724
      19     H     0.45716  0.45716  0.00000  0.08568
      20     H     0.45412  0.45412  0.00000  0.09176

   Total alpha = 32.00000, Total beta = 32.00000, Total charge =  0.00000

*** Psi4 exiting successfully. Buy a developer a beer!
