  ==> Input File <==

--------------------------------------------------------------------------
set {
	reference rhf
	basis 6-31G*
}

set_num_threads( 4 )
memory 2 gb

molecule MOL {
0 1

H	 -3.420663	 1.227371	 -1.044276
O	 -3.452007	 0.283848	 -0.965577
C	 -3.181085	 -0.079926	 0.364119
C	 -1.765924	 0.277073	 0.805136
H	 -3.327791	 -1.152017	 0.410903
H	 -3.905698	 0.375695	 1.036898
C	 -0.677594	 -0.417312	 -0.014550
H	 -1.637766	 1.358238	 0.744969
H	 -1.659588	 0.017670	 1.857098
C	 0.738335	 -0.034840	 0.421385
H	 -0.814977	 -0.178223	 -1.064632
H	 -0.802730	 -1.495410	 0.071702
C	 1.822265	 -0.738362	 -0.399735
H	 0.853533	 1.043532	 0.342250
H	 0.871597	 -0.279636	 1.474438
C	 1.337381	 -1.959122	 -1.190169
H	 2.635147	 -1.038262	 0.259794
H	 2.248782	 -0.022084	 -1.098911
C	 0.876217	 -3.134151	 -0.325854
H	 2.146788	 -2.296589	 -1.833027
H	 0.528608	 -1.659738	 -1.853840
H	 1.661176	 -3.447336	 0.357443
H	 0.616966	 -3.988623	 -0.943515
H	 0.002082	 -2.884686	 0.266445

	symmetry c1
}
set optking {
	frozen_dihedral = ("
		17 13 10 7
	")
}

ee = optimize('scf')
oeprop('DIPOLE', 'QUADRUPOLE', 'MULLIKEN_CHARGES')
f=open( 'psi4out.xyz', 'w' )
f.write( "24  " )
f.write( str(ee) + "\n" )
f.write( MOL.save_string_xyz() )
f.close()
--------------------------------------------------------------------------

    Molecular point group: c1
  Charge       = 0
  Multiplicity = 1
  Basis Set: 6-31G*
  Basis Set:
  @DF-RHF Final Energy:  -349.22880444850716
    Total Energy =                       -349.2288044485070486
    Molecular point group: c1
  Basis Set: 6-31G*
  Basis Set:
  Basis Set: 6-31G*
  Basis Set:
  @DF-RHF Final Energy:  -349.23666950466549
    Total Energy =                       -349.2366695046656559
  Basis Set: 6-31G*
  Basis Set:
  Basis Set: 6-31G*
  Basis Set:
  @DF-RHF Final Energy:  -349.23817438530176
    Total Energy =                       -349.2381743853015905
  Basis Set: 6-31G*
  Basis Set:
  Basis Set: 6-31G*
  Basis Set:
  @DF-RHF Final Energy:  -349.23839638507911
    Total Energy =                       -349.2383963850790565
  Basis Set: 6-31G*
  Basis Set:
  @DF-RHF Final Energy:  -349.23850864244542
    Total Energy =                       -349.2385086424453675
  Basis Set: 6-31G*
  Basis Set:
  @DF-RHF Final Energy:  -349.23852489965850
    Total Energy =                       -349.2385248996586711
  Basis Set: 6-31G*
  Basis Set:
  Basis Set: 6-31G*
  Basis Set:
  @DF-RHF Final Energy:  -349.23853210449283
    Total Energy =                       -349.2385321044929469
  Basis Set: 6-31G*
  Basis Set:
  Basis Set: 6-31G*
  Basis Set:
  @DF-RHF Final Energy:  -349.23853384994766
    Total Energy =                       -349.2385338499478848
  Basis Set: 6-31G*
  Basis Set:
  Charge       = 0
  Multiplicity = 1
  Basis Set: 6-31G*
  Basis Set:

    Orbital Energies (a.u.)
    -----------------------

    Doubly Occupied:

       1A    -20.553738     2A    -11.267865     3A    -11.217578
       4A    -11.213488     5A    -11.212465     6A    -11.211715
       7A    -11.210961     8A    -11.206273     9A     -1.360328
      10A     -1.086290    11A     -1.045338    12A     -0.982527
      13A     -0.917748    14A     -0.851234    15A     -0.811059
      16A     -0.760494    17A     -0.680198    18A     -0.653298
      19A     -0.619779    20A     -0.618884    21A     -0.609991
      22A     -0.577457    23A     -0.552542    24A     -0.542673
      25A     -0.518326    26A     -0.511403    27A     -0.493509
      28A     -0.480630    29A     -0.468452    30A     -0.458866
      31A     -0.446154    32A     -0.441893    33A     -0.420851

  @DF-RHF Final Energy:  -349.23853387414135

   => Energetics <=

    Nuclear Repulsion Energy =            393.4555468686722861
    One-Electron Energy =               -1253.3801510929856704
    Two-Electron Energy =                 510.6860703501721446
    DFT Exchange-Correlation Energy =       0.0000000000000000
    Empirical Dispersion Energy =           0.0000000000000000
    PCM Polarization Energy =               0.0000000000000000
    EFP Energy =                            0.0000000000000000
    Total Energy =                       -349.2385338741412397
    Molecular point group: c1
  Basis Set: 6-31G*
  Basis Set:

  -Total Gradient:
     Atom            X                  Y                   Z
    ------   -----------------  -----------------  -----------------
       1        0.000000390930    -0.000002100203     0.000002949583
       2        0.000000151634    -0.000006701724    -0.000007293878
       3       -0.000002108311     0.000016256816     0.000000972685
       4        0.000002198873     0.000001177908    -0.000002594678
       5        0.000001750956     0.000001522832    -0.000003164427
       6        0.000000738917    -0.000003098292     0.000005293052
       7       -0.000138786515    -0.004240144190     0.003412739243
       8       -0.000003933030     0.000000802206     0.000001887594
       9        0.000000955684    -0.000001697133     0.000000900236
      10       -0.000498835814     0.004761210621    -0.004810731501
      11        0.000000927724     0.000005037683     0.000000695990
      12       -0.000002778657    -0.000011468837    -0.000002421460
      13        0.003885474815     0.005818649668     0.000645572018
      14       -0.000000304686     0.000002463084    -0.000002175062
      15        0.000010075732     0.000001993090    -0.000001758889
      16        0.000012574638    -0.000009173716     0.000011835268
      17       -0.003257084572    -0.006339818269     0.000748364822
      18        0.000002425708     0.000001856524     0.000003805820
      19       -0.000019498468     0.000017968407     0.000006529138
      20        0.000006571334     0.000001862325     0.000002544739
      21       -0.000008281804    -0.000004357584    -0.000002305940
      22        0.000012091002    -0.000007819931    -0.000011937867
      23       -0.000006059275     0.000001927861    -0.000000763061
      24        0.000001343191    -0.000006349145     0.000001056577

  **** Optimization is complete! (in 9 steps) ****
    Final optimized geometry and variables:
    Molecular point group: c1

    Geometry (in Angstrom), charge = 0, multiplicity = 1:

    H           -2.844404920906     2.121020707282    -0.830556840750
    O           -2.937322159081     1.181392925305    -0.754261153463
    C           -2.665702345175     0.794498200060     0.568783011711
    C           -1.222065974612     1.055552152024     0.984116487182
    H           -2.882114557662    -0.265705394438     0.614640624912
    H           -3.345824895907     1.293575756642     1.256950761806
    C           -0.197608643248     0.295255274413     0.139378071817
    H           -1.024830994198     2.126327377424     0.927232756699
    H           -1.113392083124     0.783201319069     2.032674335439
    C            1.240582692798     0.596541500111     0.574596606224
    H           -0.342034917262     0.557044139550    -0.904143902612
    H           -0.401978840061    -0.767428182894     0.219276651250
    C            2.386302356433    -0.086680422383    -0.219124627157
    H            1.396752706717     1.671867296839     0.546700860203
    H            1.328444668325     0.319408261996     1.623132204340
    C            2.033644429316    -1.346835902637    -1.028514412761
    H            3.152730048685    -0.396333740467     0.486753044185
    H            2.836220075405     0.636976844172    -0.891479437786
    C            1.826688452193    -2.597292076414    -0.170428711724
    H            2.853780449539    -1.541080328452    -1.715566954222
    H            1.160567897731    -1.174283546455    -1.649576110574
    H            2.733113954755    -2.841345648392     0.377080637265
    H            1.573404751613    -3.455075615557    -0.786160333205
    H            1.031863271500    -2.470291207350     0.557120870786

  Mulliken Charges: (a.u.)
   Center  Symbol    Alpha    Beta     Spin     Total
       1     H     0.28336  0.28336  0.00000  0.43328
       2     O     4.36832  4.36832  0.00000 -0.73663
       3     C     2.99606  2.99606  0.00000  0.00789
       4     C     3.16896  3.16896  0.00000 -0.33792
       5     H     0.41645  0.41645  0.00000  0.16711
       6     H     0.42807  0.42807  0.00000  0.14386
       7     C     3.15670  3.15670  0.00000 -0.31340
       8     H     0.42820  0.42820  0.00000  0.14359
       9     H     0.42249  0.42249  0.00000  0.15503
      10     C     3.15562  3.15562  0.00000 -0.31125
      11     H     0.41192  0.41192  0.00000  0.17616
      12     H     0.41995  0.41995  0.00000  0.16010
      13     C     3.15551  3.15551  0.00000 -0.31102
      14     H     0.42193  0.42193  0.00000  0.15615
      15     H     0.42394  0.42394  0.00000  0.15211
      16     C     3.15690  3.15690  0.00000 -0.31380
      17     H     0.42227  0.42227  0.00000  0.15546
      18     H     0.42029  0.42029  0.00000  0.15941
      19     C     3.24059  3.24059  0.00000 -0.48118
      20     H     0.42117  0.42117  0.00000  0.15766
      21     H     0.41795  0.41795  0.00000  0.16410
      22     H     0.42265  0.42265  0.00000  0.15470
      23     H     0.41930  0.41930  0.00000  0.16140
      24     H     0.42140  0.42140  0.00000  0.15720

   Total alpha = 33.00000, Total beta = 33.00000, Total charge = -0.00000
