  ==> Input File <==

--------------------------------------------------------------------------
set {
	reference rhf
	basis cc-pvtz
}

set_num_threads( 4 )
memory 2 gb

molecule MOL {
0 1

H	 0.010068	 -0.302909	 -0.667226
N	 -0.625934	 -0.663929	 -0.000707
C	 -1.978635	 -0.158664	 0.001017
C	 -0.178721	 -1.606620	 0.858312
H	 -2.519057	 -0.493535	 -0.876362
H	 -1.938890	 0.917202	 -0.004137
H	 -2.514266	 -0.485137	 0.884506
C	 1.273091	 -1.989789	 0.673262
O	 -0.866662	 -2.109269	 1.696857
H	 1.912884	 -1.126225	 0.812982
H	 1.529677	 -2.747215	 1.395436
H	 1.439473	 -2.373053	 -0.326760

	symmetry c1
}
set optking {
	frozen_dihedral = ("
		4 2 3 5
	")
}

ee = optimize('scf')
oeprop('DIPOLE', 'QUADRUPOLE', 'MULLIKEN_CHARGES')
f=open( 'psi4out.xyz', 'w' )
f.write( "12  " )
f.write( str(ee) + "\n" )
f.write( MOL.save_string_xyz() )
f.close()
--------------------------------------------------------------------------

    Molecular point group: c1
  Charge       = 0
  Multiplicity = 1
  Basis Set: CC-PVTZ
  Basis Set:
  @DF-RHF Final Energy:  -247.10057147729964
    Total Energy =                       -247.1005714772996384
    Molecular point group: c1
  Basis Set: CC-PVTZ
  Basis Set:
  Basis Set: CC-PVTZ
  Basis Set:
  @DF-RHF Final Energy:  -247.10088977477048
    Total Energy =                       -247.1008897747706214
  Basis Set: CC-PVTZ
  Basis Set:
  Basis Set: CC-PVTZ
  Basis Set:
  @DF-RHF Final Energy:  -247.10058863772781
    Total Energy =                       -247.1005886377278671
  Basis Set: CC-PVTZ
  Basis Set:
  Basis Set: CC-PVTZ
  Basis Set:
  @DF-RHF Final Energy:  -247.10099623067924
    Total Energy =                       -247.1009962306793000
  Basis Set: CC-PVTZ
  Basis Set:
  Basis Set: CC-PVTZ
  Basis Set:
  @DF-RHF Final Energy:  -247.10100176532421
    Total Energy =                       -247.1010017653242130
  Basis Set: CC-PVTZ
  Basis Set:
  Basis Set: CC-PVTZ
  Basis Set:
  @DF-RHF Final Energy:  -247.10100514247790
    Total Energy =                       -247.1010051424780158
  Basis Set: CC-PVTZ
  Basis Set:
  Basis Set: CC-PVTZ
  Basis Set:
  @DF-RHF Final Energy:  -247.10100659425359
    Total Energy =                       -247.1010065942538176
  Basis Set: CC-PVTZ
  Basis Set:
  Charge       = 0
  Multiplicity = 1
  Basis Set: CC-PVTZ
  Basis Set:

    Orbital Energies (a.u.)
    -----------------------

    Doubly Occupied:

       1A    -20.506694     2A    -15.574875     3A    -11.336844
       4A    -11.252470     5A    -11.228076     6A     -1.388520
       7A     -1.231017     8A     -1.016695     9A     -0.932868
      10A     -0.788213    11A     -0.690971    12A     -0.651692
      13A     -0.635372    14A     -0.586770    15A     -0.582981
      16A     -0.555645    17A     -0.545011    18A     -0.511232
      19A     -0.417305    20A     -0.389361

  @DF-RHF Final Energy:  -247.10100683098750

   => Energetics <=

    Nuclear Repulsion Energy =            181.6457481117762427
    One-Electron Energy =                -695.8482842086416440
    Two-Electron Energy =                 267.1015292658777867
    DFT Exchange-Correlation Energy =       0.0000000000000000
    Empirical Dispersion Energy =           0.0000000000000000
    PCM Polarization Energy =               0.0000000000000000
    EFP Energy =                            0.0000000000000000
    Total Energy =                       -247.1010068309876146
    Molecular point group: c1
  Basis Set: CC-PVTZ
  Basis Set:

  -Total Gradient:
     Atom            X                  Y                   Z
    ------   -----------------  -----------------  -----------------
       1        0.000002236948    -0.000009232791    -0.000000519238
       2       -0.000044235684    -0.000073847062    -0.000130634546
       3       -0.000026528612    -0.000088623234     0.000115466543
       4        0.000028349935     0.000064589836     0.000083324187
       5        0.000034610128     0.000099492833    -0.000059539976
       6       -0.000002330414     0.000000579359    -0.000001170033
       7        0.000000558007    -0.000000686730    -0.000000263478
       8       -0.000005305510    -0.000020309708    -0.000018258643
       9        0.000006420132     0.000014194654    -0.000001459211
      10       -0.000004907283     0.000004842561     0.000011738312
      11        0.000000451601     0.000000033391     0.000000491795
      12        0.000010680752     0.000008966889     0.000000824288

  **** Optimization is complete! (in 8 steps) ****
    Final optimized geometry and variables:
    Molecular point group: c1

    Geometry (in Angstrom), charge = 0, multiplicity = 1:

    H            0.492239772437     0.973192439501    -1.324943146872
    N           -0.136750204843     0.638022963834    -0.638467332024
    C           -1.491241110655     1.138279303076    -0.645599442061
    C            0.303806241144    -0.310058973948     0.218331075003
    H           -2.029692531119     0.812638140283    -1.528380412660
    H           -1.495907018026     2.220871779779    -0.616524611548
    H           -1.998093098181     0.762779909614     0.227061619620
    C            1.753447693211    -0.702434018980     0.033714868609
    O           -0.386176066845    -0.802732911965     1.060911781118
    H            2.398146682469     0.159234399541     0.161788375340
    H            2.008176476483    -1.453598129099     0.763159040968
    H            1.914661658614    -1.097795282253    -0.962537885953

  Mulliken Charges: (a.u.)
   Center  Symbol    Alpha    Beta     Spin     Total
       1     H     0.41041  0.41041  0.00000  0.17919
       2     N     3.62172  3.62172  0.00000 -0.24344
       3     C     3.08555  3.08555  0.00000 -0.17110
       4     C     2.83663  2.83663  0.00000  0.32674
       5     H     0.45625  0.45625  0.00000  0.08750
       6     H     0.45526  0.45526  0.00000  0.08948
       7     H     0.43146  0.43146  0.00000  0.13709
       8     C     3.15356  3.15356  0.00000 -0.30712
       9     O     4.21552  4.21552  0.00000 -0.43104
      10     H     0.44978  0.44978  0.00000  0.10044
      11     H     0.43354  0.43354  0.00000  0.13293
      12     H     0.45033  0.45033  0.00000  0.09935

   Total alpha = 20.00000, Total beta = 20.00000, Total charge =  0.00000
