  ==> Input File <==

--------------------------------------------------------------------------
set {
	reference rhf
	basis 6-31G*
}

set_num_threads( 4 )
memory 2 gb

molecule MOL {
0 1

H	 1.243278	 0.065872	 -0.950973
C	 0.850167	 0.441173	 0.000644
C	 -0.623425	 0.760064	 0.000248
O	 1.570924	 0.567463	 0.936756
C	 -1.518387	 -0.473136	 -0.000101
H	 -0.818289	 1.390622	 -0.866171
H	 -0.818694	 1.390413	 0.866696
H	 -1.333417	 -1.085530	 -0.874338
H	 -2.563510	 -0.183466	 -0.000351
H	 -1.333864	 -1.085676	 0.874123

	symmetry c1
}
set optking {
	frozen_dihedral = ("
		4 2 3 6
	")
}

ee = optimize('scf')
oeprop('DIPOLE', 'QUADRUPOLE', 'MULLIKEN_CHARGES')
f=open( 'psi4out.xyz', 'w' )
f.write( "10  " )
f.write( str(ee) + "\n" )
f.write( MOL.save_string_xyz() )
f.close()
--------------------------------------------------------------------------

    Molecular point group: c1
  Charge       = 0
  Multiplicity = 1
  Basis Set: 6-31G*
  Basis Set:
  @DF-RHF Final Energy:  -191.94920435243364
    Total Energy =                       -191.9492043524337248
    Molecular point group: c1
  Basis Set: 6-31G*
  Basis Set:
  Basis Set: 6-31G*
  Basis Set:
  @DF-RHF Final Energy:  -191.94985395660973
    Total Energy =                       -191.9498539566097008
  Basis Set: 6-31G*
  Basis Set:
  Basis Set: 6-31G*
  Basis Set:
  @DF-RHF Final Energy:  -191.94752245956641
    Total Energy =                       -191.9475224595664713
  Basis Set: 6-31G*
  Basis Set:
  Basis Set: 6-31G*
  Basis Set:
  @DF-RHF Final Energy:  -191.95000163125161
    Total Energy =                       -191.9500016312516095
  Basis Set: 6-31G*
  Basis Set:
  Basis Set: 6-31G*
  Basis Set:
  @DF-RHF Final Energy:  -191.95002337103841
    Total Energy =                       -191.9500233710384123
  Basis Set: 6-31G*
  Basis Set:
  Charge       = 0
  Multiplicity = 1
  Basis Set: 6-31G*
  Basis Set:

    Orbital Energies (a.u.)
    -----------------------

    Doubly Occupied:

       1A    -20.564027     2A    -11.327802     3A    -11.238897
       4A    -11.234353     5A     -1.403848     6A     -1.066492
       7A     -0.904339     8A     -0.792431     9A     -0.677166
      10A     -0.640309    11A     -0.610625    12A     -0.570915
      13A     -0.542968    14A     -0.512985    15A     -0.496392
      16A     -0.412379

  @DF-RHF Final Energy:  -191.95002366255301

   => Energetics <=

    Nuclear Repulsion Energy =            117.5983655446697611
    One-Electron Energy =                -493.1049220830510649
    Two-Electron Energy =                 183.5565328758282817
    DFT Exchange-Correlation Energy =       0.0000000000000000
    Empirical Dispersion Energy =           0.0000000000000000
    PCM Polarization Energy =               0.0000000000000000
    EFP Energy =                            0.0000000000000000
    Total Energy =                       -191.9500236625530079
    Molecular point group: c1
  Basis Set: 6-31G*
  Basis Set:

  -Total Gradient:
     Atom            X                  Y                   Z
    ------   -----------------  -----------------  -----------------
       1        0.000011227806    -0.000000377785     0.000015256481
       2        0.000216650101     0.000909145212    -0.000523083356
       3        0.000097019750     0.000439240500     0.000625835477
       4       -0.000178548760    -0.000725522547     0.000276320493
       5        0.000020600375     0.000010662090    -0.000016285753
       6       -0.000164767192    -0.000630080655    -0.000389112419
       7        0.000006572122     0.000002401745     0.000002930717
       8       -0.000001519677    -0.000008345102     0.000000323754
       9        0.000007011529     0.000007507161     0.000000937807
      10       -0.000014246059    -0.000004630619     0.000006876798

  **** Optimization is complete! (in 6 steps) ****
    Final optimized geometry and variables:
    Molecular point group: c1

    Geometry (in Angstrom), charge = 0, multiplicity = 1:

    H            1.125089548088    -0.337109130605    -1.174257741180
    C            0.766118507979     0.110487867963    -0.239761000161
    C           -0.696997082514     0.471093644595    -0.220556644042
    O            1.507282881868     0.253731308256     0.677871508535
    C           -1.569124038192    -0.791681628407    -0.244924167639
    H           -0.915888223355     1.074233170163    -1.098689716015
    H           -0.893571556248     1.062573506524     0.664993184810
    H           -1.361363788678    -1.399885999986    -1.120270119116
    H           -2.619501797315    -0.525493299797    -0.269316470988
    H           -1.396163191137    -1.399592150764     0.636421536994

  Mulliken Charges: (a.u.)
   Center  Symbol    Alpha    Beta     Spin     Total
       1     H     0.43177  0.43177  0.00000  0.13646
       2     C     2.83305  2.83305  0.00000  0.33390
       3     C     3.20445  3.20445  0.00000 -0.40891
       4     O     4.23548  4.23548  0.00000 -0.47095
       5     C     3.25147  3.25147  0.00000 -0.50295
       6     H     0.41136  0.41136  0.00000  0.17728
       7     H     0.39869  0.39869  0.00000  0.20263
       8     H     0.41636  0.41636  0.00000  0.16729
       9     H     0.40902  0.40902  0.00000  0.18195
      10     H     0.40835  0.40835  0.00000  0.18330

   Total alpha = 16.00000, Total beta = 16.00000, Total charge = -0.00000
