  ==> Input File <==

--------------------------------------------------------------------------
set {
	reference rhf
	basis 6-31G*
}

set_num_threads( 1 )
memory 2 gb

molecule MOL {
0 1

O	 -2.414308	 0.581423	 -0.995219
C	 -1.921153	 0.064240	 -0.045697
C	 -2.663070	 -0.762529	 0.969370
O	 -0.632575	 0.154573	 0.251549
H	 -2.556382	 -0.318102	 1.952248
H	 -3.707085	 -0.817020	 0.699371
H	 -2.237812	 -1.758584	 1.011629
C	 0.160891	 -1.019931	 0.106212
C	 1.589627	 -0.672828	 0.480843
H	 0.089836	 -1.367806	 -0.916050
H	 -0.238459	 -1.792301	 0.749618
C	 2.246377	 0.346236	 -0.452210
H	 2.163194	 -1.597435	 0.473358
H	 1.604769	 -0.303424	 1.502885
C	 3.691736	 0.652107	 -0.061850
H	 2.219579	 -0.032311	 -1.472055
H	 1.666466	 1.263317	 -0.447249
H	 4.134505	 1.377213	 -0.737283
H	 4.305508	 -0.243868	 -0.089969
H	 3.748266	 1.059562	 0.943567

	symmetry c1
}
set optking {
	frozen_dihedral = ("
		16 12 9 8,
		2 4 8 10,
		12 9 8 10
	")
}

ee = energy('scf')
oeprop('DIPOLE', 'QUADRUPOLE', 'MULLIKEN_CHARGES')
f=open( 'psi4out.xyz', 'w' )
f.write( "20  " )
f.write( str(ee) + "\n" )
f.write( MOL.save_string_xyz() )
f.close()
--------------------------------------------------------------------------

    Molecular point group: c1

    Geometry (in Angstrom), charge = 0, multiplicity = 1:

       Center              X                  Y                   Z               Mass
    ------------   -----------------  -----------------  -----------------  -----------------
           O         -2.412569843672     0.663316295339    -1.027642719263    15.994914619560
           C         -1.919414843672     0.146133295339    -0.078120719263    12.000000000000
           C         -2.661331843672    -0.680635704661     0.936946280737    12.000000000000
           O         -0.630836843672     0.236466295339     0.219125280737    15.994914619560
           H         -2.554643843672    -0.236208704661     1.919824280737     1.007825032070
           H         -3.705346843672    -0.735126704661     0.666947280737     1.007825032070
           H         -2.236073843672    -1.676690704661     0.979205280737     1.007825032070
           C          0.162629156328    -0.938037704661     0.073788280737    12.000000000000
           C          1.591365156328    -0.590934704661     0.448419280737    12.000000000000
           H          0.091574156328    -1.285912704661    -0.948473719263     1.007825032070
           H         -0.236720843672    -1.710407704661     0.717194280737     1.007825032070
           C          2.248115156328     0.428129295339    -0.484633719263    12.000000000000
           H          2.164932156328    -1.515541704661     0.440934280737     1.007825032070
           H          1.606507156328    -0.221530704661     1.470461280737     1.007825032070
           C          3.693474156328     0.734000295339    -0.094273719263    12.000000000000
           H          2.221317156328     0.049582295339    -1.504478719263     1.007825032070
           H          1.668204156328     1.345210295339    -0.479672719263     1.007825032070
           H          4.136243156328     1.459106295339    -0.769706719263     1.007825032070
           H          4.307246156328    -0.161974704661    -0.122392719263     1.007825032070
           H          3.750004156328     1.141455295339     0.911143280737     1.007825032070

  Charge       = 0
  Multiplicity = 1
  Basis Set: 6-31G*
  Basis Set:

    Orbital Energies (a.u.)
    -----------------------

    Doubly Occupied:

       1A    -20.587736     2A    -20.552957     3A    -11.375803
       4A    -11.298365     5A    -11.234711     6A    -11.231395
       7A    -11.220252     8A    -11.213354     9A     -1.462905
      10A     -1.367942    11A     -1.087008    12A     -1.020231
      13A     -0.995167    14A     -0.887945    15A     -0.812067
      16A     -0.781858    17A     -0.696232    18A     -0.687684
      19A     -0.654141    20A     -0.639021    21A     -0.616222
      22A     -0.589349    23A     -0.578851    24A     -0.567458
      25A     -0.544841    26A     -0.529297    27A     -0.496058
      28A     -0.487451    29A     -0.478041    30A     -0.474003
      31A     -0.452396    32A     -0.435845

  @DF-RHF Final Energy:  -383.92267555906216

   => Energetics <=

    Nuclear Repulsion Energy =            385.5709811653085239
    One-Electron Energy =               -1286.8740047770463661
    Two-Electron Energy =                 517.3803480526750036
    DFT Exchange-Correlation Energy =       0.0000000000000000
    Empirical Dispersion Energy =           0.0000000000000000
    PCM Polarization Energy =               0.0000000000000000
    EFP Energy =                            0.0000000000000000
    Total Energy =                       -383.9226755590628954

  Mulliken Charges: (a.u.)
   Center  Symbol    Alpha    Beta     Spin     Total
       1     O     4.25517  4.25517  0.00000 -0.51033
       2     C     2.62597  2.62597  0.00000  0.74805
       3     C     3.29403  3.29403  0.00000 -0.58805
       4     O     4.30882  4.30882  0.00000 -0.61764
       5     H     0.39881  0.39881  0.00000  0.20238
       6     H     0.39650  0.39650  0.00000  0.20700
       7     H     0.40712  0.40712  0.00000  0.18576
       8     C     3.00656  3.00656  0.00000 -0.01311
       9     C     3.16186  3.16186  0.00000 -0.32373
      10     H     0.41221  0.41221  0.00000  0.17557
      11     H     0.41914  0.41914  0.00000  0.16171
      12     C     3.15550  3.15550  0.00000 -0.31100
      13     H     0.41917  0.41917  0.00000  0.16166
      14     H     0.41235  0.41235  0.00000  0.17531
      15     C     3.24116  3.24116  0.00000 -0.48232
      16     H     0.42200  0.42200  0.00000  0.15599
      17     H     0.40432  0.40432  0.00000  0.19135
      18     H     0.41594  0.41594  0.00000  0.16812
      19     H     0.42286  0.42286  0.00000  0.15429
      20     H     0.42051  0.42051  0.00000  0.15897

   Total alpha = 32.00000, Total beta = 32.00000, Total charge =  0.00000
