  ==> Input File <==

--------------------------------------------------------------------------
set {
	reference rhf
	basis 6-31G*
}

set_num_threads( 4 )
memory 2 gb

molecule MOL {
0 1

H	 -4.353310	 -1.397810	 -0.511888
C	 -3.501215	 -0.993411	 -0.000952
C	 -2.290297	 -1.280227	 -0.419778
H	 -3.666001	 -0.357869	 0.848661
O	 -1.180634	 -0.819263	 0.215062
H	 -2.104025	 -1.908712	 -1.272716
C	 0.051604	 -1.018856	 -0.387932
C	 1.043764	 0.054862	 -0.001873
H	 -0.017620	 -1.041351	 -1.469781
H	 0.437898	 -1.966374	 -0.042284
F	 2.212596	 -0.199467	 -0.571921
F	 0.652529	 1.252447	 -0.405055
F	 1.230877	 0.110694	 1.300533

	symmetry c1
}
set optking {
	frozen_dihedral = ("
		3 5 7 9
	")
}

ee = optimize('scf')
oeprop('DIPOLE', 'QUADRUPOLE', 'MULLIKEN_CHARGES')
f=open( 'psi4out.xyz', 'w' )
f.write( "13  " )
f.write( str(ee) + "\n" )
f.write( MOL.save_string_xyz() )
f.close()
--------------------------------------------------------------------------

    Molecular point group: c1
  Charge       = 0
  Multiplicity = 1
  Basis Set: 6-31G*
  Basis Set:
  @DF-RHF Final Energy:  -527.53286649330175
    Total Energy =                       -527.5328664933022083
    Molecular point group: c1
  Basis Set: 6-31G*
  Basis Set:
  Basis Set: 6-31G*
  Basis Set:
  @DF-RHF Final Energy:  -527.53381699449642
    Total Energy =                       -527.5338169944966467
  Basis Set: 6-31G*
  Basis Set:
  Basis Set: 6-31G*
  Basis Set:
  @DF-RHF Final Energy:  -527.53407769049522
    Total Energy =                       -527.5340776904955646
  Basis Set: 6-31G*
  Basis Set:
  Basis Set: 6-31G*
  Basis Set:
  @DF-RHF Final Energy:  -527.53413258243336
    Total Energy =                       -527.5341325824333580
  Basis Set: 6-31G*
  Basis Set:
  @DF-RHF Final Energy:  -527.53435994515507
    Total Energy =                       -527.5343599451548471
  @DF-RHF Final Energy:  -527.53440496593271
    Total Energy =                       -527.5344049659324810
  Basis Set: 6-31G*
  Basis Set:
  @DF-RHF Final Energy:  -527.53456808066107
    Total Energy =                       -527.5345680806608470
  Basis Set: 6-31G*
  Basis Set:
  Basis Set: 6-31G*
  Basis Set:
  @DF-RHF Final Energy:  -527.53458143533226
    Total Energy =                       -527.5345814353318019
  Basis Set: 6-31G*
  Basis Set:
  Basis Set: 6-31G*
  Basis Set:
  @DF-RHF Final Energy:  -527.53458785900284
    Total Energy =                       -527.5345878590031816
  Basis Set: 6-31G*
  Basis Set:
  Charge       = 0
  Multiplicity = 1
  Basis Set: 6-31G*
  Basis Set:

    Orbital Energies (a.u.)
    -----------------------

    Doubly Occupied:

       1A    -26.342144     2A    -26.338651     3A    -26.338161
       4A    -20.606932     5A    -11.502692     6A    -11.318096
       7A    -11.301940     8A    -11.220820     9A     -1.739186
      10A     -1.636945    11A     -1.635369    12A     -1.438231
      13A     -1.087077    14A     -1.015617    15A     -0.922584
      16A     -0.837009    17A     -0.828967    18A     -0.806778
      19A     -0.798108    20A     -0.724080    21A     -0.711145
      22A     -0.698286    23A     -0.677528    24A     -0.656251
      25A     -0.652005    26A     -0.639796    27A     -0.632531
      28A     -0.588495    29A     -0.561646    30A     -0.527512
      31A     -0.505052    32A     -0.357486

  @DF-RHF Final Energy:  -527.53458818983643

   => Energetics <=

    Nuclear Repulsion Energy =            407.1698502822063119
    One-Electron Energy =               -1538.1146423097638944
    Two-Electron Energy =                 603.4102038377208146
    DFT Exchange-Correlation Energy =       0.0000000000000000
    Empirical Dispersion Energy =           0.0000000000000000
    PCM Polarization Energy =               0.0000000000000000
    EFP Energy =                            0.0000000000000000
    Total Energy =                       -527.5345881898366542
    Molecular point group: c1
  Basis Set: 6-31G*
  Basis Set:

  -Total Gradient:
     Atom            X                  Y                   Z
    ------   -----------------  -----------------  -----------------
       1        0.000005415264     0.000012050329    -0.000003917921
       2        0.000020280191    -0.000000596574     0.000012500983
       3        0.000061925208     0.000450668236    -0.000406189566
       4       -0.000010294120     0.000002967284     0.000002981945
       5       -0.000126730407    -0.000886577189     0.000638849760
       6       -0.000001370870     0.000009106686     0.000000907349
       7        0.000292844151     0.001109136360    -0.000410571139
       8       -0.000056032985     0.000014483464    -0.000019126461
       9       -0.000202941201    -0.000707255005     0.000141981604
      10        0.000001119187     0.000008182058     0.000009512904
      11       -0.000012648117    -0.000007304033     0.000011544907
      12        0.000012293913    -0.000010632294     0.000013901579
      13        0.000016139811     0.000005770677     0.000007624060

  **** Optimization is complete! (in 10 steps) ****
    Final optimized geometry and variables:
    Molecular point group: c1

    Geometry (in Angstrom), charge = 0, multiplicity = 1:

    H           -4.283488678371    -1.175139607950    -0.435834277925
    C           -3.425946655905    -0.868378222105     0.131296565277
    C           -2.253596446175    -0.771616353682    -0.452548047889
    H           -3.556672197900    -0.627976204161     1.169654369878
    O           -1.152750024860    -0.325298720745     0.202359222631
    H           -2.100990484034    -1.006416886710    -1.492692278270
    C            0.083273954848    -0.777300618843    -0.239880409176
    C            1.103455198349     0.303797730892     0.016958583869
    H            0.084012698856    -0.990613171745    -1.302683383258
    H            0.389080805769    -1.669039713663     0.294762920729
    F            2.296573044825    -0.121062749167    -0.375064694724
    F            0.828503453940     1.406156262405    -0.652658567586
    F            1.185498993206     0.613859600899     1.294797237145

  Mulliken Charges: (a.u.)
   Center  Symbol    Alpha    Beta     Spin     Total
       1     H     0.40684  0.40684  0.00000  0.18633
       2     C     3.23165  3.23165  0.00000 -0.46331
       3     C     2.89936  2.89936  0.00000  0.20128
       4     H     0.40054  0.40054  0.00000  0.19891
       5     O     4.30415  4.30415  0.00000 -0.60830
       6     H     0.40821  0.40821  0.00000  0.18359
       7     C     3.04962  3.04962  0.00000 -0.09924
       8     C     2.45214  2.45214  0.00000  1.09571
       9     H     0.40775  0.40775  0.00000  0.18449
      10     H     0.40191  0.40191  0.00000  0.19619
      11     F     4.68480  4.68480  0.00000 -0.36961
      12     F     4.67714  4.67714  0.00000 -0.35429
      13     F     4.67588  4.67588  0.00000 -0.35176

   Total alpha = 32.00000, Total beta = 32.00000, Total charge = -0.00000
