  ==> Input File <==

--------------------------------------------------------------------------
set {
	reference rhf
	basis cc-pvtz
}

set_num_threads( 4 )
memory 2 gb

molecule MOL {
0 1

H	 2.342730	 0.877684	 -1.045694
C	 2.360424	 0.000000	 -0.411793
C	 1.173749	 0.000000	 0.526870
H	 3.286567	 0.000000	 0.151574
H	 2.342730	 -0.877684	 -1.045694
O	 -0.000000	 0.000000	 -0.223739
H	 1.203779	 0.876757	 1.172538
H	 1.203779	 -0.876757	 1.172538
C	 -1.173749	 0.000000	 0.526870
C	 -1.192586	 -1.225252	 1.414388
H	 -2.039452	 -0.000000	 -0.134228
H	 -1.230070	 0.904340	 1.131426
H	 -1.151698	 -2.127271	 0.816757
H	 -2.098848	 -1.246110	 2.008844
H	 -0.341460	 -1.221975	 2.083750

	symmetry c1
}
set optking {
	frozen_dihedral = ("
		11 9 6 3
	")
}

ee = optimize('scf')
oeprop('DIPOLE', 'QUADRUPOLE', 'MULLIKEN_CHARGES')
f=open( 'psi4out.xyz', 'w' )
f.write( "15  " )
f.write( str(ee) + "\n" )
f.write( MOL.save_string_xyz() )
f.close()
--------------------------------------------------------------------------

    Molecular point group: c1
  Charge       = 0
  Multiplicity = 1
  Basis Set: CC-PVTZ
  Basis Set:
  @DF-RHF Final Energy:  -232.22423323712977
    Total Energy =                       -232.2242332371296243
    Molecular point group: c1
  Basis Set: CC-PVTZ
  Basis Set:
  Basis Set: CC-PVTZ
  Basis Set:
  @DF-RHF Final Energy:  -232.22575941362095
    Total Energy =                       -232.2257594136209491
  Basis Set: CC-PVTZ
  Basis Set:
  Basis Set: CC-PVTZ
  Basis Set:
  @DF-RHF Final Energy:  -232.22937479673945
    Total Energy =                       -232.2293747967397621
  Basis Set: CC-PVTZ
  Basis Set:
  Basis Set: CC-PVTZ
  Basis Set:
  @DF-RHF Final Energy:  -232.22999303741122
    Total Energy =                       -232.2299930374110204
  Basis Set: CC-PVTZ
  Basis Set:
  Basis Set: CC-PVTZ
  Basis Set:
  @DF-RHF Final Energy:  -232.23004562884734
    Total Energy =                       -232.2300456288473356
  Basis Set: CC-PVTZ
  Basis Set:
  Charge       = 0
  Multiplicity = 1
  Basis Set: CC-PVTZ
  Basis Set:

    Orbital Energies (a.u.)
    -----------------------

    Doubly Occupied:

       1A    -20.543732     2A    -11.266537     3A    -11.265257
       4A    -11.210728     5A    -11.206334     6A     -1.377796
       7A     -1.041042     8A     -0.988698     9A     -0.867699
      10A     -0.806170    11A     -0.676100    12A     -0.656200
      13A     -0.634902    14A     -0.585947    15A     -0.547409
      16A     -0.541317    17A     -0.524849    18A     -0.503960
      19A     -0.489344    20A     -0.455316    21A     -0.410981

  @DF-RHF Final Energy:  -232.23005041898821

   => Energetics <=

    Nuclear Repulsion Energy =            193.2592678681129144
    One-Electron Energy =                -697.7779960580426177
    Two-Electron Energy =                 272.2886777709416037
    DFT Exchange-Correlation Energy =       0.0000000000000000
    Empirical Dispersion Energy =           0.0000000000000000
    PCM Polarization Energy =               0.0000000000000000
    EFP Energy =                            0.0000000000000000
    Total Energy =                       -232.2300504189880712
    Molecular point group: c1
  Basis Set: CC-PVTZ
  Basis Set:

  -Total Gradient:
     Atom            X                  Y                   Z
    ------   -----------------  -----------------  -----------------
       1       -0.000003831624     0.000001788251     0.000000780508
       2        0.000050550638    -0.000006546236     0.000009567535
       3       -0.000016964301    -0.001959514596     0.000004299123
       4       -0.000000909217     0.000001446174    -0.000008341957
       5        0.000005456890    -0.000000697776    -0.000004391943
       6        0.000124749788     0.002345047076     0.000051538156
       7        0.000002465513     0.000006354891     0.000005463510
       8        0.000011422907     0.000000725141     0.000002817072
       9        0.000033713331     0.001950424704    -0.000237023081
      10        0.000000301833     0.000007238976    -0.000018475017
      11       -0.000163927834    -0.002344115062     0.000192337199
      12       -0.000040969251    -0.000002323239     0.000013307776
      13       -0.000002692318    -0.000012287372    -0.000000033655
      14        0.000011076705     0.000022615246    -0.000022241856
      15       -0.000010443060    -0.000010156179     0.000010396629

  **** Optimization is complete! (in 6 steps) ****
    Final optimized geometry and variables:
    Molecular point group: c1

    Geometry (in Angstrom), charge = 0, multiplicity = 1:

    H            2.035081095192     1.306499289893    -1.382195788801
    C            2.141987871011     0.371519324305    -0.846626406481
    C            1.000020283369     0.183057507207     0.128978775315
    H            3.090149133107     0.379878594659    -0.320739217130
    H            2.157265864764    -0.434262056666    -1.570033749637
    O           -0.197221892032     0.161875221312    -0.586047262973
    H            0.988551777903     0.996062799072     0.854786390597
    H            1.136097943407    -0.742468445709     0.681094124441
    C           -1.378445163778     0.222678888021     0.155384201312
    C           -1.574567615596    -0.927613495493     1.132757701947
    H           -2.177618389560     0.194358088617    -0.573014262753
    H           -1.437243877847     1.173158993740     0.683852212330
    H           -1.476101437336    -1.879897285472     0.624507597587
    H           -2.570149692530    -0.870755060352     1.558606033016
    H           -0.866313422359    -0.901367870333     1.951354444917

  Mulliken Charges: (a.u.)
   Center  Symbol    Alpha    Beta     Spin     Total
       1     H     0.45162  0.45162  0.00000  0.09675
       2     C     3.13539  3.13539  0.00000 -0.27078
       3     C     2.96714  2.96714  0.00000  0.06573
       4     H     0.45950  0.45950  0.00000  0.08099
       5     H     0.45119  0.45119  0.00000  0.09762
       6     O     4.18043  4.18043  0.00000 -0.36087
       7     H     0.47434  0.47434  0.00000  0.05131
       8     H     0.47026  0.47026  0.00000  0.05948
       9     C     2.98248  2.98248  0.00000  0.03504
      10     C     3.15393  3.15393  0.00000 -0.30786
      11     H     0.45136  0.45136  0.00000  0.09727
      12     H     0.46904  0.46904  0.00000  0.06192
      13     H     0.44961  0.44961  0.00000  0.10078
      14     H     0.44926  0.44926  0.00000  0.10149
      15     H     0.45444  0.45444  0.00000  0.09113

   Total alpha = 21.00000, Total beta = 21.00000, Total charge = -0.00000
