  ==> Input File <==

--------------------------------------------------------------------------
set {
	reference rhf
	basis cc-pvtz
}

set_num_threads( 4 )
memory 2 gb

molecule MOL {
0 1

H	 -2.816458	 -0.841657	 -0.064679
N	 -1.878861	 -0.711874	 0.250184
C	 -1.341419	 0.551458	 -0.220231
H	 -1.333674	 -1.468530	 -0.105118
C	 0.082190	 0.731516	 0.254705
H	 -1.357065	 0.652078	 -1.304747
H	 -1.939897	 1.357530	 0.189797
O	 0.410654	 -0.326282	 1.103753
H	 0.757405	 0.748890	 -0.599669
H	 0.174657	 1.678479	 0.781620
C	 1.677992	 -0.241697	 1.665821
H	 1.820813	 -1.107895	 2.295653
H	 2.452300	 -0.234283	 0.901566
H	 1.785149	 0.654402	 2.272522

	symmetry c1
}
set optking {
	frozen_dihedral = ("
		8 5 3 6
	")
}

ee = optimize('scf')
oeprop('DIPOLE', 'QUADRUPOLE', 'MULLIKEN_CHARGES')
f=open( 'psi4out.xyz', 'w' )
f.write( "14  " )
f.write( str(ee) + "\n" )
f.write( MOL.save_string_xyz() )
f.close()
--------------------------------------------------------------------------

    Molecular point group: c1
  Charge       = 0
  Multiplicity = 1
  Basis Set: CC-PVTZ
  Basis Set:
  @DF-RHF Final Energy:  -248.20958129807065
    Total Energy =                       -248.2095812980705887
    Molecular point group: c1
  Basis Set: CC-PVTZ
  Basis Set:
  Basis Set: CC-PVTZ
  Basis Set:
  @DF-RHF Final Energy:  -248.21053181797248
    Total Energy =                       -248.2105318179724236
  Basis Set: CC-PVTZ
  Basis Set:
  Basis Set: CC-PVTZ
  Basis Set:
  @DF-RHF Final Energy:  -248.21242750899887
    Total Energy =                       -248.2124275089990419
  Basis Set: CC-PVTZ
  Basis Set:
  Basis Set: CC-PVTZ
  Basis Set:
  @DF-RHF Final Energy:  -248.21263799927027
    Total Energy =                       -248.2126379992699867
  Basis Set: CC-PVTZ
  Basis Set:
  @DF-RHF Final Energy:  -248.21272543238649
    Total Energy =                       -248.2127254323863212
  Basis Set: CC-PVTZ
  Basis Set:
  @DF-RHF Final Energy:  -248.21278084524630
    Total Energy =                       -248.2127808452463569
  Basis Set: CC-PVTZ
  Basis Set:
  Basis Set: CC-PVTZ
  Basis Set:
  @DF-RHF Final Energy:  -248.21280971605677
    Total Energy =                       -248.2128097160567677
  Basis Set: CC-PVTZ
  Basis Set:
  Basis Set: CC-PVTZ
  Basis Set:
  @DF-RHF Final Energy:  -248.21281592642862
    Total Energy =                       -248.2128159264283909
  Basis Set: CC-PVTZ
  Basis Set:
  Charge       = 0
  Multiplicity = 1
  Basis Set: CC-PVTZ
  Basis Set:

    Orbital Energies (a.u.)
    -----------------------

    Doubly Occupied:

       1A    -20.550786     2A    -15.518220     3A    -11.269198
       4A    -11.264216     5A    -11.241488     6A     -1.386303
       7A     -1.169809     8A     -0.995799     9A     -0.910528
      10A     -0.815641    11A     -0.684174    12A     -0.676430
      13A     -0.650204    14A     -0.605114    15A     -0.599106
      16A     -0.564251    17A     -0.518958    18A     -0.496337
      19A     -0.472409    20A     -0.422566    21A     -0.370594

  @DF-RHF Final Energy:  -248.21281621568525

   => Energetics <=

    Nuclear Repulsion Energy =            194.8109614682271342
    One-Electron Energy =                -723.6832981684641481
    Two-Electron Energy =                 280.6595204845518197
    DFT Exchange-Correlation Energy =       0.0000000000000000
    Empirical Dispersion Energy =           0.0000000000000000
    PCM Polarization Energy =               0.0000000000000000
    EFP Energy =                            0.0000000000000000
    Total Energy =                       -248.2128162156852227
    Molecular point group: c1
  Basis Set: CC-PVTZ
  Basis Set:

  -Total Gradient:
     Atom            X                  Y                   Z
    ------   -----------------  -----------------  -----------------
       1       -0.000002420693     0.000000866651     0.000005963962
       2        0.000012771967     0.000006593529    -0.000011033849
       3       -0.000045183807     0.000459941288    -0.000024007918
       4       -0.000003150612     0.000004350390    -0.000000220416
       5       -0.000145540314     0.000176419508     0.000362299492
       6        0.000067818833    -0.000448152934    -0.000050777260
       7       -0.000000898851     0.000005575414    -0.000002636087
       8        0.000120691496    -0.000204019812    -0.000279166896
       9       -0.000000536303    -0.000001334390     0.000000992160
      10       -0.000001724997    -0.000004077809     0.000001955198
      11        0.000003486209     0.000005372104    -0.000002011284
      12       -0.000002486324    -0.000000738593    -0.000000659970
      13       -0.000001431090    -0.000000516261    -0.000000483281
      14       -0.000001395510    -0.000000279085    -0.000000213850

  **** Optimization is complete! (in 9 steps) ****
    Final optimized geometry and variables:
    Molecular point group: c1

    Geometry (in Angstrom), charge = 0, multiplicity = 1:

    H           -2.565187489694    -0.879119922877    -0.989196060676
    N           -1.776560819056    -0.673048089718    -0.415424451076
    C           -1.157721963340     0.574452833924    -0.827686435841
    H           -1.136593098151    -1.434087332025    -0.471237313745
    C            0.290517782519     0.728314665109    -0.315931600810
    H           -1.136454458791     0.690104593918    -1.909850133188
    H           -1.757809574491     1.389543072621    -0.441542830987
    O            0.646332397132    -0.316021148377     0.532164487066
    H            0.975806585553     0.750242546495    -1.161548552948
    H            0.396957022639     1.677868943463     0.203350543154
    C            1.940631921028    -0.226870220847     1.025891210095
    H            2.110833146947    -1.082210181136     1.663370556716
    H            2.675943356730    -0.234964002867     0.223612993764
    H            2.081778420917     0.679148571406     1.611010194475

  Mulliken Charges: (a.u.)
   Center  Symbol    Alpha    Beta     Spin     Total
       1     H     0.43187  0.43187  0.00000  0.13626
       2     N     3.68295  3.68295  0.00000 -0.36590
       3     C     3.03225  3.03225  0.00000 -0.06451
       4     H     0.42451  0.42451  0.00000  0.15098
       5     C     2.96205  2.96205  0.00000  0.07589
       6     H     0.46871  0.46871  0.00000  0.06258
       7     H     0.46062  0.46062  0.00000  0.07876
       8     O     4.17043  4.17043  0.00000 -0.34086
       9     H     0.47532  0.47532  0.00000  0.04936
      10     H     0.47055  0.47055  0.00000  0.05890
      11     C     3.03146  3.03146  0.00000 -0.06292
      12     H     0.44623  0.44623  0.00000  0.10754
      13     H     0.47271  0.47271  0.00000  0.05458
      14     H     0.47033  0.47033  0.00000  0.05934

   Total alpha = 21.00000, Total beta = 21.00000, Total charge = -0.00000
