  ==> Input File <==

--------------------------------------------------------------------------
set {
	reference rhf
	basis 6-31G*
}

set_num_threads( 4 )
memory 2 gb

molecule MOL {
0 1

H	 -2.172150	 0.880146	 0.502514
C	 -2.018062	 -0.000025	 -0.114509
O	 -0.774054	 0.001095	 -0.743181
H	 -2.760490	 0.003458	 -0.901350
H	 -2.173624	 -0.884374	 0.496163
C	 -0.703038	 0.039389	 -2.157402
C	 0.796922	 0.033100	 -2.443918
C	 -1.358491	 -1.198871	 -2.777307
C	 -1.334838	 1.321815	 -2.708154
H	 1.251862	 -0.860656	 -2.032018
H	 1.268563	 0.893725	 -1.983208
H	 0.991190	 0.060976	 -3.511225
H	 -0.955364	 -2.101008	 -2.329350
H	 -1.165227	 -1.232049	 -3.844617
H	 -2.434807	 -1.202783	 -2.642835
H	 -0.914857	 2.190425	 -2.211983
H	 -1.140660	 1.409568	 -3.772169
H	 -2.410961	 1.338640	 -2.572854

	symmetry c1
}
set optking {
	frozen_dihedral = ("
		6 3 2 5
	")
}

ee = optimize('scf')
oeprop('DIPOLE', 'QUADRUPOLE', 'MULLIKEN_CHARGES')
f=open( 'psi4out.xyz', 'w' )
f.write( "18  " )
f.write( str(ee) + "\n" )
f.write( MOL.save_string_xyz() )
f.close()
--------------------------------------------------------------------------

    Molecular point group: c1
  Charge       = 0
  Multiplicity = 1
  Basis Set: 6-31G*
  Basis Set:
  @DF-RHF Final Energy:  -271.17060922470171
    Total Energy =                       -271.1706092247018773
    Molecular point group: c1
  Basis Set: 6-31G*
  Basis Set:
  Basis Set: 6-31G*
  Basis Set:
  @DF-RHF Final Energy:  -271.17244238403453
    Total Energy =                       -271.1724423840346390
  Basis Set: 6-31G*
  Basis Set:
  Basis Set: 6-31G*
  Basis Set:
  @DF-RHF Final Energy:  -271.17305054557238
    Total Energy =                       -271.1730505455723801
  Basis Set: 6-31G*
  Basis Set:
  Basis Set: 6-31G*
  Basis Set:
  @DF-RHF Final Energy:  -271.17264702781114
    Total Energy =                       -271.1726470278113084
  Basis Set: 6-31G*
  Basis Set:
  Basis Set: 6-31G*
  Basis Set:
  @DF-RHF Final Energy:  -271.17313332162291
    Total Energy =                       -271.1731333216229700
  Basis Set: 6-31G*
  Basis Set:
  Basis Set: 6-31G*
  Basis Set:
  @DF-RHF Final Energy:  -271.17311207548028
    Total Energy =                       -271.1731120754802191
  Basis Set: 6-31G*
  Basis Set:
  Basis Set: 6-31G*
  Basis Set:
  @DF-RHF Final Energy:  -271.17314177560746
    Total Energy =                       -271.1731417756075189
  Basis Set: 6-31G*
  Basis Set:
  Charge       = 0
  Multiplicity = 1
  Basis Set: 6-31G*
  Basis Set:

    Orbital Energies (a.u.)
    -----------------------

    Doubly Occupied:

       1A    -20.544193     2A    -11.282031     3A    -11.260947
       4A    -11.208646     5A    -11.208602     6A    -11.203200
       7A     -1.367529     8A     -1.072524     9A     -0.945547
      10A     -0.939958    11A     -0.912872    12A     -0.752647
      13A     -0.654954    14A     -0.643098    15A     -0.638573
      16A     -0.589998    17A     -0.570862    18A     -0.551727
      19A     -0.539006    20A     -0.523685    21A     -0.514926
      22A     -0.490108    23A     -0.487177    24A     -0.437546
      25A     -0.400795

  @DF-RHF Final Energy:  -271.17314185489545

   => Energetics <=

    Nuclear Repulsion Energy =            272.1074033605052591
    One-Electron Energy =                -907.0787939502607742
    Two-Electron Energy =                 363.7982487348600671
    DFT Exchange-Correlation Energy =       0.0000000000000000
    Empirical Dispersion Energy =           0.0000000000000000
    PCM Polarization Energy =               0.0000000000000000
    EFP Energy =                            0.0000000000000000
    Total Energy =                       -271.1731418548954480
    Molecular point group: c1
  Basis Set: 6-31G*
  Basis Set:

  -Total Gradient:
     Atom            X                  Y                   Z
    ------   -----------------  -----------------  -----------------
       1       -0.000012475740    -0.000005620702     0.000003313969
       2       -0.000035120888    -0.000017190880    -0.000067631960
       3       -0.000019655177    -0.000088782822    -0.000006917564
       4       -0.000002550629    -0.000001979085     0.000004437339
       5        0.000025582097     0.000050005804     0.000063502867
       6        0.000051956076     0.000049306363     0.000002330670
       7        0.000017142279     0.000020817343    -0.000017652025
       8       -0.000018602548     0.000004189680     0.000016933145
       9       -0.000007371884    -0.000013172625     0.000001285170
      10       -0.000029014258    -0.000002256897    -0.000011001259
      11        0.000028775895    -0.000009191881     0.000008310927
      12        0.000009938666     0.000021821144    -0.000004701121
      13        0.000007281744    -0.000001554643    -0.000000698939
      14       -0.000004606619     0.000008016655     0.000013306695
      15       -0.000008778452    -0.000006732124     0.000003659285
      16        0.000000304371    -0.000008004723     0.000001124664
      17        0.000003592494    -0.000001091592    -0.000000410962
      18       -0.000006397426     0.000001420986    -0.000009190900

  **** Optimization is complete! (in 8 steps) ****
    Final optimized geometry and variables:
    Molecular point group: c1

    Geometry (in Angstrom), charge = 0, multiplicity = 1:

    H           -1.205675912396     0.826759879037     2.343766930335
    C           -1.127727131801    -0.033182828567     1.687094241639
    O            0.122159070986    -0.025163916892     1.061088743090
    H           -1.955734123625    -0.000276107258     0.990363719114
    H           -1.225709784080    -0.932876173541     2.285368563600
    C            0.214744951912     0.007066957045    -0.351338355586
    C            1.718045136951     0.000452306979    -0.618857610349
    C           -0.429696823795    -1.237314162184    -0.970291105880
    C           -0.407807382942     1.290042620026    -0.911104841823
    H            2.167936567365    -0.892748628282    -0.200565731875
    H            2.184189282624     0.861714888742    -0.153935911149
    H            1.924826279138     0.026874273892    -1.683969596724
    H           -0.000351793298    -2.134058423001    -0.536464351806
    H           -0.259668772973    -1.260774843147    -2.041924376334
    H           -1.502394538453    -1.264172726500    -0.810765548418
    H            0.035944208369     2.157771076246    -0.434885791026
    H           -0.235688399045     1.361345444621    -1.980300699097
    H           -1.480153716660     1.327553913412    -0.751461289529

  Mulliken Charges: (a.u.)
   Center  Symbol    Alpha    Beta     Spin     Total
       1     H     0.42063  0.42063  0.00000  0.15874
       2     C     3.07637  3.07637  0.00000 -0.15274
       3     O     4.32229  4.32229  0.00000 -0.64459
       4     H     0.42968  0.42968  0.00000  0.14065
       5     H     0.42091  0.42091  0.00000  0.15817
       6     C     2.84402  2.84402  0.00000  0.31197
       7     C     3.23301  3.23301  0.00000 -0.46601
       8     C     3.24506  3.24506  0.00000 -0.49013
       9     C     3.24498  3.24498  0.00000 -0.48995
      10     H     0.41414  0.41414  0.00000  0.17172
      11     H     0.41404  0.41404  0.00000  0.17193
      12     H     0.42509  0.42509  0.00000  0.14983
      13     H     0.41357  0.41357  0.00000  0.17285
      14     H     0.42028  0.42028  0.00000  0.15943
      15     H     0.42102  0.42102  0.00000  0.15796
      16     H     0.41355  0.41355  0.00000  0.17289
      17     H     0.42033  0.42033  0.00000  0.15934
      18     H     0.42103  0.42103  0.00000  0.15794

   Total alpha = 25.00000, Total beta = 25.00000, Total charge = -0.00000
