                              Psi4 1.0.54 Driver

  ==> Input File <==

--------------------------------------------------------------------------
set {
	reference rhf
	basis cc-pvtz
}

set_num_threads( 4 )
memory 2 gb

molecule MOL {
0 1

O	 -1.780742	 -2.026189	 1.060340
C	 -0.788535	 -1.615302	 0.561795
C	 0.517672	 -2.364308	 0.480107
O	 -0.695554	 -0.422406	 0.000602
C	 0.463108	 -3.745658	 1.112457
H	 1.273037	 -1.744337	 0.950224
H	 0.790572	 -2.420243	 -0.567907
H	 0.206757	 -3.683897	 2.161594
H	 1.426120	 -4.233578	 1.023638
H	 -0.280104	 -4.365966	 0.629672
C	 -1.852370	 0.402254	 0.000718
C	 -3.063338	 -0.501097	 -0.000437
H	 -1.831732	 1.039442	 -0.872158
H	 -1.832493	 1.038301	 0.874430
H	 -3.071944	 -1.133732	 -0.879113
H	 -3.966302	 0.097976	 -0.000483
H	 -3.072764	 -1.134834	 0.877435

	symmetry c1
}
set optking {
	frozen_dihedral = ("
		2 4 11 13
	")
}

ee,wfn = optimize('scf', return_wfn=True)
oeprop( wfn, 'DIPOLE', 'QUADRUPOLE', 'MULLIKEN_CHARGES')
f=open( 'psi4out.xyz', 'w' )
f.write( "17  " )
f.write( str(ee) + "\n" )
f.write( MOL.save_string_xyz() )
f.close()
--------------------------------------------------------------------------

    Molecular point group: c1
  Charge       = 0
  Multiplicity = 1
  Basis Set: CC-PVTZ
  Basis Set:
  @DF-RHF Final Energy:  -344.98545649093376
    Total Energy =                       -344.9854564909335295
    Molecular point group: c1
  Basis Set: CC-PVTZ
  Basis Set:
  Basis Set: CC-PVTZ
  Basis Set:
  @DF-RHF Final Energy:  -344.71820851122163
    Total Energy =                       -344.7182085112218601
  Basis Set: CC-PVTZ
  Basis Set:
  Basis Set: CC-PVTZ
  Basis Set:
  @DF-RHF Final Energy:  -344.88556316433159
    Total Energy =                       -344.8855631643314723
  Basis Set: CC-PVTZ
  Basis Set:
  Basis Set: CC-PVTZ
  Basis Set:
  @DF-RHF Final Energy:  -344.97839119102662
    Total Energy =                       -344.9783911910267307
  Basis Set: CC-PVTZ
  Basis Set:
  @DF-RHF Final Energy:  -345.01311029178396
    Total Energy =                       -345.0131102917841872
  @DF-RHF Final Energy:  -345.02980772519624
    Total Energy =                       -345.0298077251966333
  @DF-RHF Final Energy:  -345.01373588192274
    Total Energy =                       -345.0137358819231963
  @DF-RHF Final Energy:  -345.03068407593412
    Total Energy =                       -345.0306840759341185
  @DF-RHF Final Energy:  -345.00606519259645
    Total Energy =                       -345.0060651925964521
  @DF-RHF Final Energy:  -345.01648895223104
    Total Energy =                       -345.0164889522309863
  @DF-RHF Final Energy:  -345.03016339948999
    Total Energy =                       -345.0301633994894246
  @DF-RHF Final Energy:  -345.01589797409486
    Total Energy =                       -345.0158979740949121
  @DF-RHF Final Energy:  -345.03069313417382
    Total Energy =                       -345.0306931341734753
  @DF-RHF Final Energy:  -345.03109314139738
    Total Energy =                       -345.0310931413973208
  Basis Set: CC-PVTZ
  Basis Set:
  @DF-RHF Final Energy:  -345.03110265770408
    Total Energy =                       -345.0311026577040820
  Basis Set: CC-PVTZ
  Basis Set:
  Basis Set: CC-PVTZ
  Basis Set:
  @DF-RHF Final Energy:  -345.03110612152210
    Total Energy =                       -345.0311061215218160
  Basis Set: CC-PVTZ
  Basis Set:
  Basis Set: CC-PVTZ
  Basis Set:
  @DF-RHF Final Energy:  -345.03110798489223
    Total Energy =                       -345.0311079848922873
  Basis Set: CC-PVTZ
  Basis Set:
  Charge       = 0
  Multiplicity = 1
  Basis Set: CC-PVTZ
  Basis Set:

    Orbital Energies (a.u.)
    -----------------------

    Doubly Occupied:

       1A    -20.590315     2A    -20.530215     3A    -11.364372
       4A    -11.288265     5A    -11.233838     6A    -11.213805
       7A    -11.212378     8A     -1.464540     9A     -1.364436
      10A     -1.068451    11A     -1.028603    12A     -0.919588
      13A     -0.858219    14A     -0.745399    15A     -0.698844
      16A     -0.682643    17A     -0.669524    18A     -0.630299
      19A     -0.606573    20A     -0.567866    21A     -0.545503
      22A     -0.529036    23A     -0.522539    24A     -0.517769
      25A     -0.494451    26A     -0.491939    27A     -0.450808
      28A     -0.431590

  @DF-RHF Final Energy:  -345.03110810936539

   => Energetics <=

    Nuclear Repulsion Energy =            319.5700058525557097
    One-Electron Energy =               -1103.7586108957650595
    Two-Electron Energy =                 439.1574969338438450
    DFT Exchange-Correlation Energy =       0.0000000000000000
    Empirical Dispersion Energy =           0.0000000000000000
    PCM Polarization Energy =               0.0000000000000000
    EFP Energy =                            0.0000000000000000
    Total Energy =                       -345.0311081093655048
    Molecular point group: c1
  Basis Set: CC-PVTZ
  Basis Set:

  -Total Gradient:
     Atom            X                  Y                   Z
    ------   -----------------  -----------------  -----------------
       1        0.000004495584    -0.000030143062     0.000006950246
       2        0.004872222499     0.002804362970    -0.000174810585
       3        0.000012931975    -0.000023290749    -0.000003919365
       4       -0.006495051482    -0.004152718640    -0.000001705629
       5        0.000001125367     0.000007324946     0.000011645575
       6       -0.000002801188     0.000000449948     0.000004471956
       7       -0.000004117775    -0.000006249326     0.000007337667
       8        0.000002538488     0.000008900779    -0.000002581724
       9        0.000001536313    -0.000001832126     0.000000055916
      10       -0.000001529750    -0.000001594413    -0.000000456847
      11       -0.004045840794     0.001339094480     0.001439870649
      12        0.000001103133    -0.000009333156    -0.000011690429
      13        0.005652596753     0.000062907663    -0.001302657744
      14       -0.000007205100    -0.000004469335     0.000016231122
      15        0.000008352473     0.000000233508    -0.000000530349
      16       -0.000001565540    -0.000003968344     0.000008233366
      17        0.000001209043     0.000010324851     0.000003556175

  **** Optimization is complete! (in 18 steps) ****
    Final optimized geometry and variables:
    Molecular point group: c1

    Geometry (in Angstrom), charge = 0, multiplicity = 1:

    O            0.188593020441    -1.085124553517    -0.514149484908
    C           -0.015190671251    -0.246954101442     0.295972290535
    C            0.386331430209    -0.343931734335     1.748400327297
    O           -0.645859752229     0.889687987451     0.065142428892
    C            1.028494816750    -1.672932984072     2.111765650756
    H           -0.500983088342    -0.157181534394     2.342317084907
    H            1.056894051557     0.484642314036     1.949663585251
    H            0.351878929981    -2.496410877217     1.925635244787
    H            1.296631353117    -1.681719083049     3.161328493298
    H            1.922961358350    -1.846054511824     1.528756217784
    C           -0.961635225466     1.389643208664    -1.233325080473
    C            0.007368296939     1.062572554173    -2.357607668078
    H           -0.944370704789     2.460256946044    -1.094475344290
    H           -1.965719979480     1.073268948454    -1.480494100302
    H            1.026370630002     1.294463268057    -2.071615113897
    H           -0.252965911482     1.694932894053    -3.199938751611
    H           -0.036469958222     0.032311639412    -2.664914798716

  Mulliken Charges: (a.u.)
   Center  Symbol    Alpha    Beta     Spin     Total
       1     O     4.19856  4.19856  0.00000 -0.39712
       2     C     2.80270  2.80270  0.00000  0.39459
       3     C     3.09367  3.09367  0.00000 -0.18734
       4     O     4.15545  4.15545  0.00000 -0.31091
       5     C     3.13989  3.13989  0.00000 -0.27978
       6     H     0.44032  0.44032  0.00000  0.11936
       7     H     0.44382  0.44382  0.00000  0.11237
       8     H     0.44907  0.44907  0.00000  0.10186
       9     H     0.45085  0.45085  0.00000  0.09830
      10     H     0.44848  0.44848  0.00000  0.10304
      11     C     2.98144  2.98144  0.00000  0.03713
      12     C     3.15529  3.15529  0.00000 -0.31058
      13     H     0.44952  0.44952  0.00000  0.10096
      14     H     0.45440  0.45440  0.00000  0.09120
      15     H     0.45213  0.45213  0.00000  0.09575
      16     H     0.45121  0.45121  0.00000  0.09758
      17     H     0.43320  0.43320  0.00000  0.13359

   Total alpha = 28.00000, Total beta = 28.00000, Total charge = -0.00000

*** Psi4 exiting successfully. Buy a developer a beer!
