  ==> Input File <==

--------------------------------------------------------------------------
set {
	reference rhf
	basis 6-31G*
}

set_num_threads( 4 )
memory 2 gb

molecule MOL {
0 1

H	 -1.836216	 1.387520	 -0.000064
C	 -1.301823	 0.443321	 -0.000031
O	 -0.003969	 0.658512	 0.000451
O	 -1.829879	 -0.616434	 -0.000857
C	 0.438934	 1.997219	 0.221555
C	 1.951647	 1.988035	 0.177569
H	 0.066844	 2.333747	 1.179478
H	 0.018363	 2.634916	 -0.543793
H	 2.355044	 1.338107	 0.945617
H	 2.330700	 2.991224	 0.342382
H	 2.306493	 1.640748	 -0.785947

	symmetry c1
}
set optking {
	frozen_dihedral = ("
		5 3 2 4
	")
}

ee = optimize('scf')
oeprop('DIPOLE', 'QUADRUPOLE', 'MULLIKEN_CHARGES')
f=open( 'psi4out.xyz', 'w' )
f.write( "11  " )
f.write( str(ee) + "\n" )
f.write( MOL.save_string_xyz() )
f.close()
--------------------------------------------------------------------------

    Molecular point group: c1
  Charge       = 0
  Multiplicity = 1
  Basis Set: 6-31G*
  Basis Set:
  @DF-RHF Final Energy:  -266.81810038215292
    Total Energy =                       -266.8181003821529202
    Molecular point group: c1
  Basis Set: 6-31G*
  Basis Set:
  Basis Set: 6-31G*
  Basis Set:
  @DF-RHF Final Energy:  -266.81911170705575
    Total Energy =                       -266.8191117070555265
  Basis Set: 6-31G*
  Basis Set:
  Basis Set: 6-31G*
  Basis Set:
  @DF-RHF Final Energy:  -266.81910253347360
    Total Energy =                       -266.8191025334735968
  Basis Set: 6-31G*
  Basis Set:
  Basis Set: 6-31G*
  Basis Set:
  @DF-RHF Final Energy:  -266.81928324217711
    Total Energy =                       -266.8192832421772209
  Basis Set: 6-31G*
  Basis Set:
  Basis Set: 6-31G*
  Basis Set:
  @DF-RHF Final Energy:  -266.81929375367827
    Total Energy =                       -266.8192937536782665
  Basis Set: 6-31G*
  Basis Set:
  Charge       = 0
  Multiplicity = 1
  Basis Set: 6-31G*
  Basis Set:

    Orbital Energies (a.u.)
    -----------------------

    Doubly Occupied:

       1A    -20.612008     2A    -20.555231     3A    -11.379568
       4A    -11.307028     5A    -11.233886     6A     -1.473491
       7A     -1.379793     8A     -1.055952     9A     -0.888863
      10A     -0.848062    11A     -0.738167    12A     -0.696331
      13A     -0.666428    14A     -0.600600    15A     -0.575745
      16A     -0.564635    17A     -0.531327    18A     -0.521836
      19A     -0.456167    20A     -0.449768

  @DF-RHF Final Energy:  -266.81929427674038

   => Energetics <=

    Nuclear Repulsion Energy =            176.2720887908229770
    One-Electron Energy =                -713.1129965045176959
    Two-Electron Energy =                 270.0216134369546239
    DFT Exchange-Correlation Energy =       0.0000000000000000
    Empirical Dispersion Energy =           0.0000000000000000
    PCM Polarization Energy =               0.0000000000000000
    EFP Energy =                            0.0000000000000000
    Total Energy =                       -266.8192942767400950
    Molecular point group: c1
  Basis Set: 6-31G*
  Basis Set:

  -Total Gradient:
     Atom            X                  Y                   Z
    ------   -----------------  -----------------  -----------------
       1        0.000004543193    -0.000000303817    -0.000000036090
       2        0.000178551786    -0.000177035748    -0.001660305205
       3        0.000044590458     0.000194372456    -0.001099460709
       4       -0.000123767955     0.000093383157     0.001522126629
       5       -0.000092268646    -0.000093863308     0.001262356688
       6       -0.000011178974    -0.000015827614    -0.000011444779
       7        0.000013782446     0.000029373566    -0.000007606926
       8        0.000005372472    -0.000025692392    -0.000000141384
       9       -0.000007240910    -0.000000896345     0.000002132029
      10       -0.000015032642    -0.000002503683    -0.000002524409
      11        0.000002648776    -0.000001006271    -0.000005095844

  **** Optimization is complete! (in 6 steps) ****
    Final optimized geometry and variables:
    Molecular point group: c1

    Geometry (in Angstrom), charge = 0, multiplicity = 1:

    H           -1.751541981548     0.472104257718    -0.232822052278
    C           -1.167778845195    -0.441979735108    -0.121470777438
    O            0.133800161935    -0.234147585622    -0.011885221382
    O           -1.655496528369    -1.514332979134    -0.101417424124
    C            0.587277511992     1.098768279467     0.167414246701
    C            2.097668080423     1.090966560431     0.068015467092
    H            0.264666889360     1.458728386028     1.138006867120
    H            0.153246924958     1.737322639801    -0.595044532820
    H            2.523647000525     0.446966226276     0.827769462066
    H            2.484151487916     2.095059861193     0.207213962743
    H            2.411610738183     0.729253418947    -0.903818033103

  Mulliken Charges: (a.u.)
   Center  Symbol    Alpha    Beta     Spin     Total
       1     H     0.43240  0.43240  0.00000  0.13520
       2     C     2.71846  2.71846  0.00000  0.56308
       3     O     4.28366  4.28366  0.00000 -0.56733
       4     O     4.24949  4.24949  0.00000 -0.49897
       5     C     3.01068  3.01068  0.00000 -0.02135
       6     C     3.24691  3.24691  0.00000 -0.49381
       7     H     0.41382  0.41382  0.00000  0.17237
       8     H     0.41708  0.41708  0.00000  0.16584
       9     H     0.40508  0.40508  0.00000  0.18984
      10     H     0.41555  0.41555  0.00000  0.16890
      11     H     0.40688  0.40688  0.00000  0.18624

   Total alpha = 20.00000, Total beta = 20.00000, Total charge =  0.00000
