  ==> Input File <==

--------------------------------------------------------------------------
set {
	reference rhf
	basis 6-31G*
}

set_num_threads( 4 )
memory 2 gb

molecule MOL {
0 1

O	 2.443183	 2.006685	 0.333475
C	 1.513673	 2.224863	 1.048435
C	 0.253301	 1.378983	 1.018641
C	 1.532672	 3.370125	 2.039984
C	 0.291004	 0.242674	 0.000989
H	 0.088636	 0.990982	 2.022996
H	 -0.588610	 2.042148	 0.824219
C	 -0.994322	 -0.586602	 0.000262
H	 1.142537	 -0.396264	 0.212600
H	 0.464294	 0.656034	 -0.987572
C	 -2.259874	 0.272531	 0.000494
H	 -1.004862	 -1.240012	 -0.870939
H	 -1.005220	 -1.241071	 0.870675
C	 -3.549786	 -0.549746	 -0.000374
H	 -2.250389	 0.926680	 -0.869574
H	 -2.250838	 0.925513	 0.871430
C	 -4.809590	 0.315458	 -0.000369
H	 -3.560515	 -1.202009	 -0.871156
H	 -3.561123	 -1.202955	 0.869711
H	 -4.844746	 0.956611	 -0.876632
H	 -5.706986	 -0.295590	 -0.001609
H	 -4.845960	 0.954827	 0.877144
H	 1.397427	 2.998078	 3.051374
H	 2.474766	 3.896096	 1.971820
H	 0.717542	 4.059025	 1.838456

	symmetry c1
}
set optking {
	frozen_dihedral = ("
		9 5 8 12
	")
}

ee = optimize('scf')
oeprop('DIPOLE', 'QUADRUPOLE', 'MULLIKEN_CHARGES')
f=open( 'psi4out.xyz', 'w' )
f.write( "25  " )
f.write( str(ee) + "\n" )
f.write( MOL.save_string_xyz() )
f.close()
--------------------------------------------------------------------------

    Molecular point group: c1
  Charge       = 0
  Multiplicity = 1
  Basis Set: 6-31G*
  Basis Set:
  @DF-RHF Final Energy:  -387.13140769627182
    Total Energy =                       -387.1314076962713671
    Molecular point group: c1
  Basis Set: 6-31G*
  Basis Set:
  Basis Set: 6-31G*
  Basis Set:
  @DF-RHF Final Energy:  -387.13215555358357
    Total Energy =                       -387.1321555535838570
  Basis Set: 6-31G*
  Basis Set:
  Basis Set: 6-31G*
  Basis Set:
  @DF-RHF Final Energy:  -387.13349878189433
    Total Energy =                       -387.1334987818945592
  Basis Set: 6-31G*
  Basis Set:
  Basis Set: 6-31G*
  Basis Set:
  @DF-RHF Final Energy:  -387.13359103725162
    Total Energy =                       -387.1335910372516764
  Basis Set: 6-31G*
  Basis Set:
  Basis Set: 6-31G*
  Basis Set:
  @DF-RHF Final Energy:  -387.13245315243239
    Total Energy =                       -387.1324531524321628
  Basis Set: 6-31G*
  Basis Set:
  Basis Set: 6-31G*
  Basis Set:
  @DF-RHF Final Energy:  -387.13362347394565
    Total Energy =                       -387.1336234739454767
  Basis Set: 6-31G*
  Basis Set:
  Charge       = 0
  Multiplicity = 1
  Basis Set: 6-31G*
  Basis Set:

    Orbital Energies (a.u.)
    -----------------------

    Doubly Occupied:

       1A    -20.550253     2A    -11.326062     3A    -11.231046
       4A    -11.228154     5A    -11.217600     6A    -11.217464
       7A    -11.216968     8A    -11.216446     9A    -11.210844
      10A     -1.395588    11A     -1.094663    12A     -1.055459
      13A     -1.014326    14A     -0.967638    15A     -0.898789
      16A     -0.816573    17A     -0.786701    18A     -0.729320
      19A     -0.658810    20A     -0.653566    21A     -0.635176
      22A     -0.620990    23A     -0.597131    24A     -0.582186
      25A     -0.567248    26A     -0.564703    27A     -0.543102
      28A     -0.528294    29A     -0.517918    30A     -0.493480
      31A     -0.488324    32A     -0.477282    33A     -0.461781
      34A     -0.458744    35A     -0.446229    36A     -0.400732

  @DF-RHF Final Energy:  -387.13362344126074

   => Energetics <=

    Nuclear Repulsion Energy =            445.5425849374855716
    One-Electron Energy =               -1407.6132365283961008
    Two-Electron Energy =                 574.9370281496485404
    DFT Exchange-Correlation Energy =       0.0000000000000000
    Empirical Dispersion Energy =           0.0000000000000000
    PCM Polarization Energy =               0.0000000000000000
    EFP Energy =                            0.0000000000000000
    Total Energy =                       -387.1336234412619888
    Molecular point group: c1
  Basis Set: 6-31G*
  Basis Set:

  -Total Gradient:
     Atom            X                  Y                   Z
    ------   -----------------  -----------------  -----------------
       1        0.000026108406    -0.000087935680     0.000095089414
       2       -0.000124140248     0.000287699678    -0.000246057157
       3        0.000041082696    -0.000118611092     0.000123058883
       4        0.000030165257    -0.000051219862     0.000071059151
       5        0.000062562707    -0.000502001309    -0.005285399560
       6       -0.000014149331     0.000019061835     0.000015790014
       7       -0.000010708042     0.000010558268    -0.000003697221
       8        0.002276228381    -0.003196094868     0.003192346034
       9       -0.000335363022     0.000833377704     0.003915006340
      10       -0.000010547674     0.000015413059    -0.000034084238
      11        0.000024608926     0.000012691728     0.000160617575
      12       -0.001999456881     0.002686977373    -0.002103802458
      13       -0.000024875724     0.000090975913     0.000023269251
      14       -0.000021408007     0.000002097953     0.000041523816
      15       -0.000042357444     0.000041413464     0.000070254727
      16        0.000074128629    -0.000011439187     0.000061588700
      17        0.000013693073    -0.000009812154    -0.000128651021
      18        0.000054717431    -0.000062974655     0.000033923826
      19       -0.000034634771     0.000052711047     0.000039876660
      20       -0.000022207438     0.000038345166    -0.000011151970
      21        0.000004859927     0.000001342357    -0.000035413787
      22        0.000027794351    -0.000035499379    -0.000005107225
      23        0.000000343898     0.000003890353     0.000018251857
      24       -0.000000044190    -0.000005162464    -0.000003971319
      25        0.000003599079    -0.000015805249    -0.000004320291

  **** Optimization is complete! (in 7 steps) ****
    Final optimized geometry and variables:
    Molecular point group: c1

    Geometry (in Angstrom), charge = 0, multiplicity = 1:

    O            3.141935548214     0.945967746307    -0.160760822071
    C            2.234420316479     1.245009487490     0.553239903419
    C            0.905544644465     0.510038712934     0.530117687242
    C            2.351794721039     2.389438096741     1.539287831397
    C            0.855622881264    -0.633807168132    -0.483212319723
    H            0.712734597051     0.141232893358     1.537268720387
    H            0.129893665392     1.247562827691     0.338558644779
    C           -0.423716368951    -1.479571647654    -0.415475711918
    H            1.708873257538    -1.273627913339    -0.287522145364
    H            0.985385982955    -0.230302401022    -1.481882898141
    C           -1.734943169455    -0.685925945383    -0.436834208382
    H           -0.430955315080    -2.140159059904    -1.279426749025
    H           -0.401316137415    -2.111512495348     0.469865806418
    C           -2.968722347690    -1.583434001164    -0.554147743647
    H           -1.720972901661     0.012640653869    -1.272829719954
    H           -1.825417322938    -0.083129380295     0.463823641488
    C           -4.278883244588    -0.797615814406    -0.591715205895
    H           -2.887183188669    -2.191300057056    -1.452494540289
    H           -2.988571111481    -2.278385712164     0.282853118282
    H           -4.302473280913    -0.114672831468    -1.436324432503
    H           -5.133453828951    -1.461293366193    -0.679765340844
    H           -4.409602391008    -0.208868041244     0.311997181735
    H            2.184366356878     2.035586554632     2.552399571993
    H            3.335903263484     2.831538815536     1.469309713041
    H            1.599581852220     3.145401050906     1.333598947403

  Mulliken Charges: (a.u.)
   Center  Symbol    Alpha    Beta     Spin     Total
       1     O     4.26114  4.26114  0.00000 -0.52228
       2     C     2.73568  2.73568  0.00000  0.52865
       3     C     3.21387  3.21387  0.00000 -0.42773
       4     C     3.28643  3.28643  0.00000 -0.57286
       5     C     3.14874  3.14874  0.00000 -0.29748
       6     H     0.41077  0.41077  0.00000  0.17845
       7     H     0.40760  0.40760  0.00000  0.18481
       8     C     3.15523  3.15523  0.00000 -0.31046
       9     H     0.40904  0.40904  0.00000  0.18193
      10     H     0.41318  0.41318  0.00000  0.17363
      11     C     3.15532  3.15532  0.00000 -0.31063
      12     H     0.41902  0.41902  0.00000  0.16196
      13     H     0.42312  0.42312  0.00000  0.15376
      14     C     3.15091  3.15091  0.00000 -0.30183
      15     H     0.42404  0.42404  0.00000  0.15192
      16     H     0.42456  0.42456  0.00000  0.15089
      17     C     3.23921  3.23921  0.00000 -0.47843
      18     H     0.42214  0.42214  0.00000  0.15573
      19     H     0.42292  0.42292  0.00000  0.15416
      20     H     0.42160  0.42160  0.00000  0.15679
      21     H     0.41875  0.41875  0.00000  0.16250
      22     H     0.42256  0.42256  0.00000  0.15488
      23     H     0.40891  0.40891  0.00000  0.18218
      24     H     0.39654  0.39654  0.00000  0.20692
      25     H     0.40872  0.40872  0.00000  0.18255

   Total alpha = 36.00000, Total beta = 36.00000, Total charge =  0.00000
