  ==> Input File <==

--------------------------------------------------------------------------
set {
	reference rhf
	basis cc-pvtz
}

set_num_threads( 4 )
memory 2 gb

molecule MOL {
0 1

H	 -2.466737	 1.483232	 2.066900
C	 -2.059152	 0.476258	 2.119451
O	 -0.784026	 0.414855	 1.573718
H	 -1.989318	 0.183273	 3.156837
H	 -2.744851	 -0.199157	 1.611006
C	 -0.718530	 0.758693	 0.228682
C	 0.718529	 0.758687	 -0.228709
H	 -1.279932	 0.042803	 -0.371568
H	 -1.146757	 1.744754	 0.062141
O	 1.401606	 -0.295166	 0.366636
H	 0.748705	 0.673477	 -1.312803
H	 1.176496	 1.708671	 0.046552
C	 2.714315	 -0.441627	 -0.061017
H	 2.765292	 -0.641548	 -1.128869
H	 3.305661	 0.447341	 0.150952
H	 3.143725	 -1.278506	 0.470147

	symmetry c1
}
set optking {
	frozen_dihedral = ("
		3 6 7 11
	")
}

ee = optimize('scf')
oeprop('DIPOLE', 'QUADRUPOLE', 'MULLIKEN_CHARGES')
f=open( 'psi4out.xyz', 'w' )
f.write( "16  " )
f.write( str(ee) + "\n" )
f.write( MOL.save_string_xyz() )
f.close()
--------------------------------------------------------------------------

    Molecular point group: c1
  Charge       = 0
  Multiplicity = 1
  Basis Set: CC-PVTZ
  Basis Set:
  @DF-RHF Final Energy:  -307.09183780494487
    Total Energy =                       -307.0918378049450439
    Molecular point group: c1
  Basis Set: CC-PVTZ
  Basis Set:
  Basis Set: CC-PVTZ
  Basis Set:
  @DF-RHF Final Energy:  -307.09253747799306
    Total Energy =                       -307.0925374779931190
  Basis Set: CC-PVTZ
  Basis Set:
  Basis Set: CC-PVTZ
  Basis Set:
  @DF-RHF Final Energy:  -307.09278323539718
    Total Energy =                       -307.0927832353974054
  Basis Set: CC-PVTZ
  Basis Set:
  Basis Set: CC-PVTZ
  Basis Set:
  @DF-RHF Final Energy:  -307.09278827740735
    Total Energy =                       -307.0927882774073510
  Basis Set: CC-PVTZ
  Basis Set:
  Charge       = 0
  Multiplicity = 1
  Basis Set: CC-PVTZ
  Basis Set:

    Orbital Energies (a.u.)
    -----------------------

    Doubly Occupied:

       1A    -20.546349     2A    -20.545192     3A    -11.269129
       4A    -11.268470     5A    -11.260890     6A    -11.260433
       7A     -1.392394     8A     -1.372008     9A     -1.029526
      10A     -0.934932    11A     -0.895531    12A     -0.820234
      13A     -0.690177    14A     -0.677883    15A     -0.659959
      16A     -0.643834    17A     -0.622297    18A     -0.594741
      19A     -0.567228    20A     -0.524682    21A     -0.508534
      22A     -0.474251    23A     -0.467912    24A     -0.419522
      25A     -0.411693

  @DF-RHF Final Energy:  -307.09278863429950

   => Energetics <=

    Nuclear Repulsion Energy =            260.1434096690145452
    One-Electron Energy =                -934.7567981616448378
    Two-Electron Energy =                 367.5205998583310247
    DFT Exchange-Correlation Energy =       0.0000000000000000
    Empirical Dispersion Energy =           0.0000000000000000
    PCM Polarization Energy =               0.0000000000000000
    EFP Energy =                            0.0000000000000000
    Total Energy =                       -307.0927886342992679
    Molecular point group: c1
  Basis Set: CC-PVTZ
  Basis Set:

  -Total Gradient:
     Atom            X                  Y                   Z
    ------   -----------------  -----------------  -----------------
       1        0.000005378264     0.000000820172    -0.000000088777
       2        0.000005527208    -0.000002872870    -0.000018585413
       3       -0.000576428612    -0.006490891255    -0.001415213852
       4        0.000004774524    -0.000000949948     0.000000135422
       5       -0.000005359427    -0.000002882621     0.000000762563
       6        0.000793002263     0.006789668658     0.002063052975
       7       -0.000369878878     0.007970012716    -0.001570859941
       8        0.000002319707    -0.000003312462     0.000007077662
       9        0.000011019179    -0.000002695199     0.000018338440
      10       -0.000043255664     0.000026063484    -0.000024895304
      11        0.000179695812    -0.008289330389     0.000955990319
      12       -0.000013424589     0.000004588412    -0.000015507021
      13        0.000023506603    -0.000004562536    -0.000008816765
      14       -0.000003930370     0.000000256760     0.000005202261
      15       -0.000003599963     0.000003293166     0.000001896847
      16       -0.000009346052     0.000002793913     0.000001510589

  **** Optimization is complete! (in 5 steps) ****
    Final optimized geometry and variables:
    Molecular point group: c1

    Geometry (in Angstrom), charge = 0, multiplicity = 1:

    H           -2.771882477922     1.162008881570     1.342887442775
    C           -2.288036721822     0.192303216558     1.444524343122
    O           -0.996606772764     0.207736351892     0.936454792817
    H           -2.226542713799    -0.056905782755     2.493720734231
    H           -2.903591423672    -0.552204180453     0.943694532657
    C           -0.924104145593     0.499512255008    -0.416437701871
    C            0.516188596171     0.476993970908    -0.896799939063
    H           -1.496044068499    -0.239399467001    -0.976521255363
    H           -1.352114604233     1.477588093176    -0.634861919287
    O            1.181148018438    -0.612242118974    -0.345424468331
    H            0.503994628180     0.351904789879    -1.979179893610
    H            1.026631922374     1.402898767757    -0.642412996098
    C            2.502820341514    -0.732213488126    -0.750161676476
    H            2.582764819953    -0.862947446488    -1.828104356689
    H            3.088113957277     0.140310024434    -0.467000632746
    H            2.919455273864    -1.601926846346    -0.263463510127

  Mulliken Charges: (a.u.)
   Center  Symbol    Alpha    Beta     Spin     Total
       1     H     0.47341  0.47341  0.00000  0.05319
       2     C     3.03103  3.03103  0.00000 -0.06206
       3     O     4.16212  4.16212  0.00000 -0.32423
       4     H     0.44573  0.44573  0.00000  0.10855
       5     H     0.47221  0.47221  0.00000  0.05559
       6     C     2.96332  2.96332  0.00000  0.07336
       7     C     2.96485  2.96485  0.00000  0.07029
       8     H     0.47535  0.47535  0.00000  0.04931
       9     H     0.47642  0.47642  0.00000  0.04716
      10     O     4.16325  4.16325  0.00000 -0.32650
      11     H     0.47662  0.47662  0.00000  0.04677
      12     H     0.47226  0.47226  0.00000  0.05548
      13     C     3.03089  3.03089  0.00000 -0.06179
      14     H     0.47439  0.47439  0.00000  0.05123
      15     H     0.47225  0.47225  0.00000  0.05550
      16     H     0.44592  0.44592  0.00000  0.10817

   Total alpha = 25.00000, Total beta = 25.00000, Total charge = -0.00000
