  ==> Input File <==

--------------------------------------------------------------------------
set {
	reference rhf
	basis 6-31G*
}

set_num_threads( 1 )
memory 2 gb

molecule MOL {
0 1

H	 3.236351	 0.153467	 -0.378582
N	 2.434251	 -0.367735	 -0.081097
C	 1.267428	 0.496480	 0.024474
H	 2.660654	 -0.762675	 0.812031
C	 -0.016086	 -0.325158	 -0.029487
H	 1.288818	 1.183521	 -0.816092
H	 1.267576	 1.109062	 0.929528
C	 -1.282277	 0.529072	 0.046735
H	 -0.012495	 -0.908639	 -0.945788
H	 -0.015903	 -1.041248	 0.791956
C	 -2.563920	 -0.301775	 -0.006060
H	 -1.284084	 1.244622	 -0.773004
H	 -1.271387	 1.115393	 0.963286
H	 -2.621848	 -0.873522	 -0.927727
H	 -3.445135	 0.329952	 0.047812
H	 -2.609542	 -1.004582	 0.821105

	symmetry c1
}
set optking {
	frozen_dihedral = ("
		6 3 5 9,
		12 8 5 9
	")
}

ee = energy('scf')
oeprop('DIPOLE', 'QUADRUPOLE', 'MULLIKEN_CHARGES')
f=open( 'psi4out.xyz', 'w' )
f.write( "16  " )
f.write( str(ee) + "\n" )
f.write( MOL.save_string_xyz() )
f.close()
--------------------------------------------------------------------------

    Molecular point group: c1

    Geometry (in Angstrom), charge = 0, multiplicity = 1:

       Center              X                  Y                   Z               Mass
    ------------   -----------------  -----------------  -----------------  -----------------
           H          3.234712219492     0.150954643904    -0.376132472687     1.007825032070
           N          2.432612219492    -0.370247356096    -0.078647472687    14.003074004780
           C          1.265789219492     0.493967643904     0.026923527313    12.000000000000
           H          2.659015219492    -0.765187356096     0.814480527313     1.007825032070
           C         -0.017724780508    -0.327670356096    -0.027037472687    12.000000000000
           H          1.287179219492     1.181008643904    -0.813642472687     1.007825032070
           H          1.265937219492     1.106549643904     0.931977527313     1.007825032070
           C         -1.283915780508     0.526559643904     0.049184527313    12.000000000000
           H         -0.014133780508    -0.911151356096    -0.943338472687     1.007825032070
           H         -0.017541780508    -1.043760356096     0.794405527313     1.007825032070
           C         -2.565558780508    -0.304287356096    -0.003610472687    12.000000000000
           H         -1.285722780508     1.242109643904    -0.770554472687     1.007825032070
           H         -1.273025780508     1.112880643904     0.965735527313     1.007825032070
           H         -2.623486780508    -0.876034356096    -0.925277472687     1.007825032070
           H         -3.446773780508     0.327439643904     0.050261527313     1.007825032070
           H         -2.611180780508    -1.007094356096     0.823554527313     1.007825032070

  Charge       = 0
  Multiplicity = 1
  Basis Set: 6-31G*
  Basis Set:

    Orbital Energies (a.u.)
    -----------------------

    Doubly Occupied:

       1A    -15.532867     2A    -11.240137     3A    -11.213271
       4A    -11.206684     5A    -11.206306     6A     -1.176670
       7A     -1.058054     8A     -0.957769     9A     -0.842654
      10A     -0.789123    11A     -0.670097    12A     -0.630588
      13A     -0.607643    14A     -0.575507    15A     -0.558549
      16A     -0.527801    17A     -0.494917    18A     -0.470184
      19A     -0.464597    20A     -0.460627    21A     -0.380754

  @DF-RHF Final Energy:  -212.31630408962471

   => Energetics <=

    Nuclear Repulsion Energy =            186.1633010393743177
    One-Electron Energy =                -654.8296665266846048
    Two-Electron Energy =                 256.3500613976859199
    DFT Exchange-Correlation Energy =       0.0000000000000000
    Empirical Dispersion Energy =           0.0000000000000000
    PCM Polarization Energy =               0.0000000000000000
    EFP Energy =                            0.0000000000000000
    Total Energy =                       -212.3163040896243388

  Mulliken Charges: (a.u.)
   Center  Symbol    Alpha    Beta     Spin     Total
       1     H     0.33195  0.33195  0.00000  0.33610
       2     N     3.92178  3.92178  0.00000 -0.84356
       3     C     3.06500  3.06500  0.00000 -0.13000
       4     H     0.33437  0.33437  0.00000  0.33125
       5     C     3.14425  3.14425  0.00000 -0.28851
       6     H     0.42216  0.42216  0.00000  0.15568
       7     H     0.43301  0.43301  0.00000  0.13399
       8     C     3.15642  3.15642  0.00000 -0.31284
       9     H     0.41479  0.41479  0.00000  0.17042
      10     H     0.42706  0.42706  0.00000  0.14588
      11     C     3.23836  3.23836  0.00000 -0.47672
      12     H     0.42358  0.42358  0.00000  0.15283
      13     H     0.42448  0.42448  0.00000  0.15104
      14     H     0.42075  0.42075  0.00000  0.15849
      15     H     0.42010  0.42010  0.00000  0.15981
      16     H     0.42193  0.42193  0.00000  0.15614

   Total alpha = 21.00000, Total beta = 21.00000, Total charge =  0.00000
