  ==> Input File <==

--------------------------------------------------------------------------
set {
	reference rhf
	basis cc-pvtz
}

set_num_threads( 4 )
memory 2 gb

molecule MOL {
0 1

H	 -1.526586	 -0.271439	 -1.029504
N	 -1.173824	 -0.310545	 -0.096857
C	 -0.022588	 0.563366	 0.065815
H	 -1.917235	 -0.036940	 0.511494
C	 1.270420	 -0.230572	 -0.014245
H	 -0.045354	 1.293678	 -0.735129
H	 -0.043155	 1.123061	 1.001180
H	 1.336273	 -0.754933	 -0.959364
H	 2.130728	 0.422015	 0.082222
H	 1.323344	 -0.967006	 0.781773

	symmetry c1
}
set optking {
	frozen_dihedral = ("
		1 2 3 6
	")
}

ee = optimize('scf')
oeprop('DIPOLE', 'QUADRUPOLE', 'MULLIKEN_CHARGES')
f=open( 'psi4out.xyz', 'w' )
f.write( "10  " )
f.write( str(ee) + "\n" )
f.write( MOL.save_string_xyz() )
f.close()
--------------------------------------------------------------------------

    Molecular point group: c1
  Charge       = 0
  Multiplicity = 1
  Basis Set: CC-PVTZ
  Basis Set:
  @DF-RHF Final Energy:  -134.30113500926723
    Total Energy =                       -134.3011350092671137
    Molecular point group: c1
  Basis Set: CC-PVTZ
  Basis Set:
  Basis Set: CC-PVTZ
  Basis Set:
  @DF-RHF Final Energy:  -134.30215138657115
    Total Energy =                       -134.3021513865710688
  Basis Set: CC-PVTZ
  Basis Set:
  Basis Set: CC-PVTZ
  Basis Set:
  @DF-RHF Final Energy:  -134.30235088725664
    Total Energy =                       -134.3023508872566367
  Basis Set: CC-PVTZ
  Basis Set:
  Basis Set: CC-PVTZ
  Basis Set:
  @DF-RHF Final Energy:  -134.30235318491663
    Total Energy =                       -134.3023531849165693
  Basis Set: CC-PVTZ
  Basis Set:
  Charge       = 0
  Multiplicity = 1
  Basis Set: CC-PVTZ
  Basis Set:

    Orbital Energies (a.u.)
    -----------------------

    Doubly Occupied:

       1A    -15.526654     2A    -11.241735     3A    -11.199521
       4A     -1.175826     5A     -0.987337     6A     -0.820879
       7A     -0.671981     8A     -0.625467     9A     -0.571545
      10A     -0.523455    11A     -0.511106    12A     -0.479162
      13A     -0.384805

  @DF-RHF Final Energy:  -134.30235341283526

   => Energetics <=

    Nuclear Repulsion Energy =             83.1730293702531185
    One-Electron Energy =                -345.5118226276248379
    Two-Electron Energy =                 128.0364398445364031
    DFT Exchange-Correlation Energy =       0.0000000000000000
    Empirical Dispersion Energy =           0.0000000000000000
    PCM Polarization Energy =               0.0000000000000000
    EFP Energy =                            0.0000000000000000
    Total Energy =                       -134.3023534128353162
    Molecular point group: c1
  Basis Set: CC-PVTZ
  Basis Set:

  -Total Gradient:
     Atom            X                  Y                   Z
    ------   -----------------  -----------------  -----------------
       1       -0.001436249122     0.001818836038     0.000672699299
       2        0.002119017445    -0.002603379792    -0.001200223438
       3       -0.001863381813     0.002129132674     0.001824167252
       4       -0.000006742359    -0.000017255932     0.000003769717
       5       -0.000000418082     0.000030347249     0.000003644297
       6        0.001181122587    -0.001375950863    -0.001303418989
       7        0.000011491206     0.000012257040     0.000006584605
       8       -0.000002493015     0.000001644895    -0.000000896830
       9        0.000005610483    -0.000001997510    -0.000001974362
      10       -0.000007957329     0.000006366200    -0.000004351550

  **** Optimization is complete! (in 5 steps) ****
    Final optimized geometry and variables:
    Molecular point group: c1

    Geometry (in Angstrom), charge = 0, multiplicity = 1:

    H           -1.555847025030    -0.289733397097    -0.983680751393
    N           -1.177825662809    -0.322961437841    -0.061612704865
    C           -0.016023872217     0.553513517543     0.070279871800
    H           -1.910284167143    -0.043646976477     0.553978318071
    C            1.282421896871    -0.238174832539     0.012879965952
    H            0.004287041141     1.311263750206    -0.709281069613
    H           -0.074378233617     1.077496855913     1.017057648537
    H            1.365527852657    -0.768019699827    -0.929704729371
    H            2.142324158367     0.417288708105     0.108768819123
    H            1.314708362797    -0.971993599984     0.808760325535

  Mulliken Charges: (a.u.)
   Center  Symbol    Alpha    Beta     Spin     Total
       1     H     0.42939  0.42939  0.00000  0.14122
       2     N     3.69229  3.69229  0.00000 -0.38458
       3     C     3.03319  3.03319  0.00000 -0.06638
       4     H     0.42680  0.42680  0.00000  0.14640
       5     C     3.12366  3.12366  0.00000 -0.24732
       6     H     0.46278  0.46278  0.00000  0.07445
       7     H     0.45743  0.45743  0.00000  0.08515
       8     H     0.45885  0.45885  0.00000  0.08229
       9     H     0.46101  0.46101  0.00000  0.07799
      10     H     0.45460  0.45460  0.00000  0.09079

   Total alpha = 13.00000, Total beta = 13.00000, Total charge = -0.00000
