                              Psi4 1.0.54 Driver

  ==> Input File <==

--------------------------------------------------------------------------
set {
	reference rhf
	basis cc-pvtz
}

set_num_threads( 4 )
memory 2 gb

molecule MOL {
0 1

H	 -3.080887	 0.436041	 -1.082304
O	 -2.280477	 -0.064572	 -1.131785
C	 -1.605397	 0.107680	 0.001145
C	 -0.310616	 -0.658853	 0.000791
O	 -2.009409	 0.792586	 0.876159
C	 0.926581	 0.227233	 0.000178
H	 -0.327628	 -1.313681	 -0.864448
H	 -0.327041	 -1.313334	 0.866298
C	 2.220156	 -0.582071	 -0.000088
H	 0.899945	 0.878221	 -0.866390
H	 0.900542	 0.878581	 0.866486
C	 3.466689	 0.296012	 -0.000457
H	 2.239073	 -1.234095	 -0.869382
H	 2.239505	 -1.233985	 0.869270
H	 3.493549	 0.935857	 -0.875887
H	 4.368821	 -0.304526	 -0.001199
H	 3.494559	 0.935166	 0.875458

	symmetry c1
}
set optking {
	frozen_dihedral = ("
		2 3 4 7
	")
}

ee,wfn = optimize('scf', return_wfn=True)
oeprop( wfn, 'DIPOLE', 'QUADRUPOLE', 'MULLIKEN_CHARGES')
f=open( 'psi4out.xyz', 'w' )
f.write( "17  " )
f.write( str(ee) + "\n" )
f.write( MOL.save_string_xyz() )
f.close()
--------------------------------------------------------------------------

    Molecular point group: c1
  Charge       = 0
  Multiplicity = 1
  Basis Set: CC-PVTZ
  Basis Set:
  @DF-RHF Final Energy:  -345.04652837067562
    Total Energy =                       -345.0465283706753326
    Molecular point group: c1
  Basis Set: CC-PVTZ
  Basis Set:
  Basis Set: CC-PVTZ
  Basis Set:
  @DF-RHF Final Energy:  -345.04718096200128
    Total Energy =                       -345.0471809620013914
  Basis Set: CC-PVTZ
  Basis Set:
  Basis Set: CC-PVTZ
  Basis Set:
  @DF-RHF Final Energy:  -345.04719250976171
    Total Energy =                       -345.0471925097619987
  Basis Set: CC-PVTZ
  Basis Set:
  Basis Set: CC-PVTZ
  Basis Set:
  @DF-RHF Final Energy:  -345.04726957929205
    Total Energy =                       -345.0472695792922764
  Basis Set: CC-PVTZ
  Basis Set:
  Basis Set: CC-PVTZ
  Basis Set:
  @DF-RHF Final Energy:  -345.04729483708121
    Total Energy =                       -345.0472948370807558
  Basis Set: CC-PVTZ
  Basis Set:
  Charge       = 0
  Multiplicity = 1
  Basis Set: CC-PVTZ
  Basis Set:

    Orbital Energies (a.u.)
    -----------------------

    Doubly Occupied:

       1A    -20.606140     2A    -20.537581     3A    -11.372981
       4A    -11.237671     5A    -11.229005     6A    -11.223593
       7A    -11.213127     8A     -1.477842     9A     -1.367882
      10A     -1.095133    11A     -1.020212    12A     -0.913143
      13A     -0.825986    14A     -0.801530    15A     -0.705922
      16A     -0.686647    17A     -0.656847    18A     -0.639826
      19A     -0.592121    20A     -0.584820    21A     -0.581961
      22A     -0.539043    23A     -0.515868    24A     -0.492633
      25A     -0.483661    26A     -0.478887    27A     -0.471304
      28A     -0.441024

  @DF-RHF Final Energy:  -345.04729527558464

   => Energetics <=

    Nuclear Repulsion Energy =            305.0502386680441873
    One-Electron Energy =               -1074.6102867322174461
    Two-Electron Energy =                 424.5127527885888412
    DFT Exchange-Correlation Energy =       0.0000000000000000
    Empirical Dispersion Energy =           0.0000000000000000
    PCM Polarization Energy =               0.0000000000000000
    EFP Energy =                            0.0000000000000000
    Total Energy =                       -345.0472952755844744
    Molecular point group: c1
  Basis Set: CC-PVTZ
  Basis Set:

  -Total Gradient:
     Atom            X                  Y                   Z
    ------   -----------------  -----------------  -----------------
       1       -0.000041899239     0.000017413501    -0.000031108603
       2       -0.000026254201    -0.000028594303     0.000130541476
       3        0.000135390193     0.000022935330    -0.000053652224
       4       -0.000034652787    -0.000031820241     0.000085776926
       5       -0.000115373627     0.000061608517    -0.000002215814
       6       -0.000013942236    -0.000057247715    -0.000027353285
       7        0.000084467077     0.000029131865    -0.000091723219
       8       -0.000005149907     0.000001132228    -0.000008642558
       9        0.000011454478     0.000002805733    -0.000029921108
      10       -0.000007215825    -0.000019933688     0.000011558480
      11       -0.000010953978    -0.000001899030    -0.000008996863
      12        0.000015632543    -0.000003828056     0.000025983895
      13       -0.000007977821    -0.000002372922    -0.000005062178
      14       -0.000002123675    -0.000000320704    -0.000003226639
      15       -0.000004136746    -0.000006988335     0.000000172379
      16        0.000014410715     0.000005165388     0.000004122637
      17        0.000008325033     0.000012812433     0.000003746703

  **** Optimization is complete! (in 6 steps) ****
    Final optimized geometry and variables:
    Molecular point group: c1

    Geometry (in Angstrom), charge = 0, multiplicity = 1:

    H           -3.107022000034     0.462036325981    -0.961880400184
    O           -2.328104986318    -0.067124774325    -1.050965161177
    C           -1.612992746551     0.050431059924     0.062209722414
    C           -0.330386868879    -0.738102724670     0.029067623819
    O           -1.966553070827     0.723980527268     0.968694325703
    C            0.889991179440     0.187279078160     0.016804854089
    H           -0.325858654185    -1.389440251118    -0.833507422586
    H           -0.314445817388    -1.351003717577     0.922144815589
    C            2.205252621686    -0.585175600523     0.036298754761
    H            0.853966555363     0.816979226522    -0.867769433724
    H            0.837117029381     0.848270016092     0.873870560657
    C            3.426741432247     0.327433958741     0.024388865140
    H            2.244912849263    -1.252954698703    -0.819716966179
    H            2.235370218419    -1.217255338184     0.919347700233
    H            3.442667481195     0.948285033698    -0.864998807363
    H            4.344641846972    -0.248281172461     0.042209387448
    H            3.431317711405     0.985561484495     0.886485091177

  Mulliken Charges: (a.u.)
   Center  Symbol    Alpha    Beta     Spin     Total
       1     H     0.38040  0.38040  0.00000  0.23919
       2     O     4.15962  4.15962  0.00000 -0.31924
       3     C     2.80729  2.80729  0.00000  0.38542
       4     C     3.08859  3.08859  0.00000 -0.17717
       5     O     4.19980  4.19980  0.00000 -0.39961
       6     C     3.09647  3.09647  0.00000 -0.19293
       7     H     0.43943  0.43943  0.00000  0.12113
       8     H     0.44126  0.44126  0.00000  0.11749
       9     C     3.08738  3.08738  0.00000 -0.17476
      10     H     0.44993  0.44993  0.00000  0.10014
      11     H     0.43982  0.43982  0.00000  0.12036
      12     C     3.14924  3.14924  0.00000 -0.29849
      13     H     0.45348  0.45348  0.00000  0.09304
      14     H     0.45264  0.45264  0.00000  0.09472
      15     H     0.45426  0.45426  0.00000  0.09148
      16     H     0.44743  0.44743  0.00000  0.10514
      17     H     0.45295  0.45295  0.00000  0.09409

   Total alpha = 28.00000, Total beta = 28.00000, Total charge =  0.00000

*** Psi4 exiting successfully. Buy a developer a beer!
