                              Psi4 1.0.54 Driver

  ==> Input File <==

--------------------------------------------------------------------------
set {
	reference rhf
	basis cc-pvtz
}

set_num_threads( 4 )
memory 2 gb

molecule MOL {
0 1

H	 2.828711	 -0.346904	 0.001083
C	 1.876752	 0.015931	 -0.363450
C	 0.776285	 -0.474665	 0.563092
H	 1.728113	 -0.357244	 -1.367440
H	 1.906171	 1.096574	 -0.386153
N	 -0.540022	 0.017605	 0.071630
H	 0.707111	 -1.548969	 0.573035
H	 0.886169	 -0.084184	 1.560432
O	 -0.629231	 1.173252	 -0.174779
O	 -1.417417	 -0.774527	 -0.012629

	symmetry c1
}
set optking {
	frozen_dihedral = ("
		9 6 3 2
	")
}

ee,wfn = optimize('scf', return_wfn=True)
oeprop( wfn, 'DIPOLE', 'QUADRUPOLE', 'MULLIKEN_CHARGES')
f=open( 'psi4out.xyz', 'w' )
f.write( "10  " )
f.write( str(ee) + "\n" )
f.write( MOL.save_string_xyz() )
f.close()
--------------------------------------------------------------------------

    Molecular point group: c1
  Charge       = 0
  Multiplicity = 1
  Basis Set: CC-PVTZ
  Basis Set:
  @DF-RHF Final Energy:  -282.81272804988407
    Total Energy =                       -282.8127280498841856
    Molecular point group: c1
  Basis Set: CC-PVTZ
  Basis Set:
  Basis Set: CC-PVTZ
  Basis Set:
  @DF-RHF Final Energy:  -282.80967253465246
    Total Energy =                       -282.8096725346525773
  Basis Set: CC-PVTZ
  Basis Set:
  Basis Set: CC-PVTZ
  Basis Set:
  @DF-RHF Final Energy:  -282.81141870828810
    Total Energy =                       -282.8114187082881017
  Basis Set: CC-PVTZ
  Basis Set:
  Basis Set: CC-PVTZ
  Basis Set:
  @DF-RHF Final Energy:  -282.81311582985518
    Total Energy =                       -282.8131158298552350
  Basis Set: CC-PVTZ
  Basis Set:
  Basis Set: CC-PVTZ
  Basis Set:
  @DF-RHF Final Energy:  -282.81313058677244
    Total Energy =                       -282.8131305867725018
  Basis Set: CC-PVTZ
  Basis Set:
  Charge       = 0
  Multiplicity = 1
  Basis Set: CC-PVTZ
  Basis Set:

    Orbital Energies (a.u.)
    -----------------------

    Doubly Occupied:

       1A    -20.593648     2A    -20.590815     3A    -15.838992
       4A    -11.302471     5A    -11.247116     6A     -1.638284
       7A     -1.422496     8A     -1.125063     9A     -0.966956
      10A     -0.837613    11A     -0.764718    12A     -0.743939
      13A     -0.731259    14A     -0.652159    15A     -0.591336
      16A     -0.563070    17A     -0.542259    18A     -0.489584
      19A     -0.479443    20A     -0.455772

  @DF-RHF Final Energy:  -282.81313225122256

   => Energetics <=

    Nuclear Repulsion Energy =            186.6193706376056696
    One-Electron Energy =                -755.7110183164522823
    Two-Electron Energy =                 286.2785154276241428
    DFT Exchange-Correlation Energy =       0.0000000000000000
    Empirical Dispersion Energy =           0.0000000000000000
    PCM Polarization Energy =               0.0000000000000000
    EFP Energy =                            0.0000000000000000
    Total Energy =                       -282.8131322512224415
    Molecular point group: c1
  Basis Set: CC-PVTZ
  Basis Set:

  -Total Gradient:
     Atom            X                  Y                   Z
    ------   -----------------  -----------------  -----------------
       1       -0.000015260294    -0.000004187220     0.000008736881
       2        0.000013932999     0.000154252722     0.000089729652
       3        0.000001217155    -0.000249062482    -0.000182355126
       4        0.000001969328    -0.000002114889    -0.000010650803
       5       -0.000024079673    -0.000015321573     0.000017491997
       6       -0.000010785637     0.000270259013     0.000320161692
       7        0.000043286645     0.000019083357    -0.000022222219
       8        0.000036135468     0.000000400171     0.000026870711
       9        0.000014042098    -0.000266510997    -0.000228005627
      10       -0.000060458091     0.000093201898    -0.000019757157

  **** Optimization is complete! (in 6 steps) ****
    Final optimized geometry and variables:
    Molecular point group: c1

    Geometry (in Angstrom), charge = 0, multiplicity = 1:

    H            2.857248372296    -0.233119928919     0.086137308919
    C            1.912256435602     0.102491274192    -0.321543471185
    C            0.794771882486    -0.418146549430     0.560360159823
    H            1.821989577053    -0.281452956839    -1.329571583463
    H            1.909736600892     1.180821024112    -0.356339548543
    N           -0.544984212773    -0.005541534002     0.048887662324
    H            0.766477550640    -1.491901748328     0.614251920901
    H            0.849268184239    -0.003799142230     1.556714065539
    O           -0.698655768068     1.141149758749    -0.208133745165
    O           -1.372115400546    -0.847218520477    -0.049825717300

  Mulliken Charges: (a.u.)
   Center  Symbol    Alpha    Beta     Spin     Total
       1     H     0.44891  0.44891  0.00000  0.10217
       2     C     3.14122  3.14122  0.00000 -0.28245
       3     C     3.03914  3.03914  0.00000 -0.07828
       4     H     0.44528  0.44528  0.00000  0.10944
       5     H     0.43637  0.43637  0.00000  0.12725
       6     N     3.27798  3.27798  0.00000  0.44404
       7     H     0.43167  0.43167  0.00000  0.13666
       8     H     0.43747  0.43747  0.00000  0.12506
       9     O     4.17342  4.17342  0.00000 -0.34684
      10     O     4.16853  4.16853  0.00000 -0.33706

   Total alpha = 20.00000, Total beta = 20.00000, Total charge = -0.00000

*** Psi4 exiting successfully. Buy a developer a beer!
