  ==> Input File <==

--------------------------------------------------------------------------
set {
	reference rhf
	basis 6-31G*
}

set_num_threads( 4 )
memory 2 gb

molecule MOL {
0 1

H	 2.652209	 0.763231	 0.000000
O	 2.263154	 -0.100023	 0.000000
C	 0.912879	 -0.015685	 0.000000
C	 0.350257	 1.235801	 -0.214057
C	 0.099325	 -1.118410	 0.203005
H	 0.998912	 2.077784	 -0.369363
C	 -1.024245	 1.372454	 -0.222997
H	 0.536513	 -2.088893	 0.368988
C	 -1.279578	 -0.966719	 0.191466
H	 -1.455091	 2.343760	 -0.389196
C	 -1.850444	 0.274553	 -0.020703
H	 -1.904057	 -1.827893	 0.349883
H	 -2.918938	 0.388637	 -0.029035

	symmetry c1
}
set optking {
	frozen_dihedral = ("
		4 3 2 1
	")
}

ee = optimize('scf')
oeprop('DIPOLE', 'QUADRUPOLE', 'MULLIKEN_CHARGES')
f=open( 'psi4out.xyz', 'w' )
f.write( "13  " )
f.write( str(ee) + "\n" )
f.write( MOL.save_string_xyz() )
f.close()
--------------------------------------------------------------------------

    Molecular point group: c1
  Charge       = 0
  Multiplicity = 1
  Basis Set: 6-31G*
  Basis Set:
  @DF-RHF Final Energy:  -305.55535559337619
    Total Energy =                       -305.5553555933765892
    Molecular point group: c1
  Basis Set: 6-31G*
  Basis Set:
  Basis Set: 6-31G*
  Basis Set:
  @DF-RHF Final Energy:  -305.55728745915980
    Total Energy =                       -305.5572874591597383
  Basis Set: 6-31G*
  Basis Set:
  Basis Set: 6-31G*
  Basis Set:
  @DF-RHF Final Energy:  -305.55746302895244
    Total Energy =                       -305.5574630289524976
  Basis Set: 6-31G*
  Basis Set:
  Basis Set: 6-31G*
  Basis Set:
  @DF-RHF Final Energy:  -305.55748644999312
    Total Energy =                       -305.5574864499930641
  Basis Set: 6-31G*
  Basis Set:
  Basis Set: 6-31G*
  Basis Set:
  @DF-RHF Final Energy:  -305.55749013504919
    Total Energy =                       -305.5574901350489654
  Basis Set: 6-31G*
  Basis Set:
  Charge       = 0
  Multiplicity = 1
  Basis Set: 6-31G*
  Basis Set:

    Orbital Energies (a.u.)
    -----------------------

    Doubly Occupied:

       1A    -20.590402     2A    -11.297986     3A    -11.236857
       4A    -11.234775     5A    -11.228051     6A    -11.221907
       7A    -11.221745     8A     -1.408883     9A     -1.147266
      10A     -1.018634    11A     -1.004011    12A     -0.846428
      13A     -0.822069    14A     -0.735868    15A     -0.683775
      16A     -0.649902    17A     -0.609066    18A     -0.589783
      19A     -0.588178    20A     -0.560819    21A     -0.514017
      22A     -0.489645    23A     -0.478912    24A     -0.338125
      25A     -0.309524

  @DF-RHF Final Energy:  -305.55749029529062

   => Energetics <=

    Nuclear Repulsion Energy =            273.1411531231144068
    One-Electron Energy =                -955.7440340219174004
    Two-Electron Energy =                 377.0453906035124305
    DFT Exchange-Correlation Energy =       0.0000000000000000
    Empirical Dispersion Energy =           0.0000000000000000
    PCM Polarization Energy =               0.0000000000000000
    EFP Energy =                            0.0000000000000000
    Total Energy =                       -305.5574902952906200
    Molecular point group: c1
  Basis Set: 6-31G*
  Basis Set:

  -Total Gradient:
     Atom            X                  Y                   Z
    ------   -----------------  -----------------  -----------------
       1       -0.000002745256    -0.000000910183     0.000912326467
       2        0.000037302803    -0.000066935688    -0.001561910944
       3        0.000013672257     0.000203449817     0.001409386414
       4       -0.000001049502    -0.000106744715    -0.000716761608
       5       -0.000060711823    -0.000004641408    -0.000018049069
       6        0.000001470189    -0.000002260406    -0.000004096798
       7        0.000001670685     0.000008011475    -0.000010857915
       8        0.000003776711     0.000003879777     0.000001196466
       9        0.000008223727    -0.000014261188    -0.000048960267
      10       -0.000005925974    -0.000004799140    -0.000000937918
      11        0.000006398952    -0.000016829817     0.000030497465
      12       -0.000001339528    -0.000000712064     0.000008692778
      13       -0.000000743243     0.000002753540    -0.000000525070

  **** Optimization is complete! (in 6 steps) ****
    Final optimized geometry and variables:
    Molecular point group: c1

    Geometry (in Angstrom), charge = 0, multiplicity = 1:

    H            2.701856426706     0.562715985870     0.012615566490
    O            2.249629133732    -0.269130085872     0.018714770231
    C            0.908973432280    -0.083539011300     0.010726629095
    C            0.332755196800     1.157454279590    -0.207290883641
    C            0.106947567170    -1.199009337672     0.210985799272
    H            0.955942518198     2.020782697760    -0.370707175605
    C           -1.048719802415     1.281714905345    -0.215763485108
    H            0.573743679877    -2.152296458785     0.375540755507
    C           -1.267757511246    -1.061875582083     0.195467341596
    H           -1.488268770955     2.248903922596    -0.383259097798
    C           -1.857036563850     0.177613162407    -0.015828576910
    H           -1.884619009915    -1.928947680177     0.351854083382
    H           -2.927043381850     0.277206295108    -0.024645121601

  Mulliken Charges: (a.u.)
   Center  Symbol    Alpha    Beta     Spin     Total
       1     H     0.27189  0.27189  0.00000  0.45622
       2     O     4.37862  4.37862  0.00000 -0.75724
       3     C     2.79466  2.79466  0.00000  0.41068
       4     C     3.14380  3.14380  0.00000 -0.28761
       5     C     3.12337  3.12337  0.00000 -0.24674
       6     H     0.40447  0.40447  0.00000  0.19107
       7     C     3.09040  3.09040  0.00000 -0.18080
       8     H     0.39170  0.39170  0.00000  0.21660
       9     C     3.09106  3.09106  0.00000 -0.18213
      10     H     0.39837  0.39837  0.00000  0.20325
      11     C     3.11308  3.11308  0.00000 -0.22616
      12     H     0.39802  0.39802  0.00000  0.20395
      13     H     0.40056  0.40056  0.00000  0.19888

   Total alpha = 25.00000, Total beta = 25.00000, Total charge =  0.00000
