                              Psi4 1.0.54 Driver

  ==> Input File <==

--------------------------------------------------------------------------
set {
	reference rhf
	basis cc-pvtz
}

set_num_threads( 4 )
memory 2 gb

molecule MOL {
0 1

H	 -1.831514	 -1.621998	 -0.018397
C	 -1.471162	 -1.186190	 -0.944605
O	 -0.775228	 0.000056	 -0.739966
H	 -2.327710	 -0.943083	 -1.557285
H	 -0.880357	 -1.929449	 -1.470102
C	 0.406133	 -0.000384	 0.036994
C	 1.526415	 -0.003194	 -0.997339
C	 0.498772	 1.259027	 0.900673
C	 0.495883	 -1.257378	 0.904465
H	 1.452279	 0.872071	 -1.630204
H	 1.451276	 -0.881020	 -1.626529
H	 2.497919	 -0.002741	 -0.517601
H	 0.368981	 2.144239	 0.289753
H	 1.470064	 1.313479	 1.377660
H	 -0.248448	 1.271586	 1.684297
H	 0.363971	 -2.144195	 0.296316
H	 1.467114	 -1.312636	 1.381470
H	 -0.251246	 -1.265768	 1.688235

	symmetry c1
}
set optking {
	frozen_dihedral = ("
		2 3 6 7
	")
}

ee,wfn = optimize('scf', return_wfn=True)
oeprop( wfn, 'DIPOLE', 'QUADRUPOLE', 'MULLIKEN_CHARGES')
f=open( 'psi4out.xyz', 'w' )
f.write( "18  " )
f.write( str(ee) + "\n" )
f.write( MOL.save_string_xyz() )
f.close()
--------------------------------------------------------------------------

    Molecular point group: c1
  Charge       = 0
  Multiplicity = 1
  Basis Set: CC-PVTZ
  Basis Set:
  @DF-RHF Final Energy:  -271.26928402067847
    Total Energy =                       -271.2692840206785263
    Molecular point group: c1
  Basis Set: CC-PVTZ
  Basis Set:
  Basis Set: CC-PVTZ
  Basis Set:
  @DF-RHF Final Energy:  -271.25241203912583
    Total Energy =                       -271.2524120391258862
  Basis Set: CC-PVTZ
  Basis Set:
  Basis Set: CC-PVTZ
  Basis Set:
  @DF-RHF Final Energy:  -271.27300676649082
    Total Energy =                       -271.2730067664909370
  Basis Set: CC-PVTZ
  Basis Set:
  Basis Set: CC-PVTZ
  Basis Set:
  @DF-RHF Final Energy:  -271.27375789724942
    Total Energy =                       -271.2737578972493111
  Basis Set: CC-PVTZ
  Basis Set:
  @DF-RHF Final Energy:  -271.27381461451927
    Total Energy =                       -271.2738146145193241
  Basis Set: CC-PVTZ
  Basis Set:
  @DF-RHF Final Energy:  -271.27394880897970
    Total Energy =                       -271.2739488089794690
  Basis Set: CC-PVTZ
  Basis Set:
  Basis Set: CC-PVTZ
  Basis Set:
  @DF-RHF Final Energy:  -271.27395253366933
    Total Energy =                       -271.2739525336691599
  Basis Set: CC-PVTZ
  Basis Set:
  Basis Set: CC-PVTZ
  Basis Set:
  @DF-RHF Final Energy:  -271.27396088031389
    Total Energy =                       -271.2739608803138935
  Basis Set: CC-PVTZ
  Basis Set:
  Charge       = 0
  Multiplicity = 1
  Basis Set: CC-PVTZ
  Basis Set:

    Orbital Energies (a.u.)
    -----------------------

    Doubly Occupied:

       1A    -20.538451     2A    -11.280425     3A    -11.259290
       4A    -11.211425     5A    -11.203263     6A    -11.201574
       7A     -1.370996     8A     -1.075268     9A     -0.951291
      10A     -0.936004    11A     -0.912431    12A     -0.752634
      13A     -0.657573    14A     -0.647902    15A     -0.639163
      16A     -0.586104    17A     -0.576208    18A     -0.550935
      19A     -0.539285    20A     -0.526858    21A     -0.515306
      22A     -0.491049    23A     -0.485138    24A     -0.443608
      25A     -0.400840

  @DF-RHF Final Energy:  -271.27396046100563

   => Energetics <=

    Nuclear Repulsion Energy =            272.2886043528796449
    One-Electron Energy =                -907.6190919163752824
    Two-Electron Energy =                 364.0565271024898948
    DFT Exchange-Correlation Energy =       0.0000000000000000
    Empirical Dispersion Energy =           0.0000000000000000
    PCM Polarization Energy =               0.0000000000000000
    EFP Energy =                            0.0000000000000000
    Total Energy =                       -271.2739604610056858
    Molecular point group: c1
  Basis Set: CC-PVTZ
  Basis Set:

  -Total Gradient:
     Atom            X                  Y                   Z
    ------   -----------------  -----------------  -----------------
       1        0.000002997089    -0.000012098623     0.000021377232
       2       -0.001473776650    -0.000184235528     0.002996565627
       3        0.002408845514     0.001157643351    -0.004234759706
       4       -0.000011421342     0.000005530351    -0.000006558195
       5        0.000001242678    -0.000011863884    -0.000008981525
       6       -0.001236512760    -0.003542019716     0.000389169320
       7        0.000323605671     0.002584219857     0.000869223266
       8        0.000017768988     0.000002429493    -0.000012037992
       9       -0.000005358173     0.000000250398    -0.000016106651
      10       -0.000002787938    -0.000001553542    -0.000019293327
      11        0.000000218205    -0.000017868425     0.000001483229
      12       -0.000000462241     0.000012268048     0.000011189467
      13       -0.000022927476     0.000041900066     0.000016893231
      14        0.000042867777     0.000019056937    -0.000008934423
      15       -0.000004199635    -0.000039482050    -0.000002578814
      16        0.000004198926    -0.000007125983    -0.000017887062
      17        0.000009416501     0.000005961259     0.000004879265
      18       -0.000053715134    -0.000013012014     0.000016357059

  **** Optimization is complete! (in 9 steps) ****
    Final optimized geometry and variables:
    Molecular point group: c1

    Geometry (in Angstrom), charge = 0, multiplicity = 1:

    H           -2.136527817158    -1.167361123435    -0.128975510609
    C           -1.747323868688    -0.519157386689    -0.906492097571
    O           -0.880300826020     0.447395491212    -0.411380619904
    H           -2.577560109388     0.009442422686    -1.353346067678
    H           -1.289550508619    -1.137013744562    -1.674919174894
    C            0.356959836194     0.088188901553     0.182900768230
    C            1.452931978167     0.297297313489    -0.861903788604
    C            0.542755846214     1.075906029334     1.332060283451
    C            0.387586059803    -1.340342676681     0.724458636627
    H            1.425584318059     1.316517204881    -1.224916551812
    H            1.311055328676    -0.365305347998    -1.708713508648
    H            2.435134087295     0.103969478350    -0.445466351120
    H            0.466656630074     2.090839146469     0.963476438755
    H            1.511742443981     0.951055153141     1.801927062728
    H           -0.225825162345     0.931985266838     2.081650306127
    H            0.284227851661    -2.079703598036    -0.059423951641
    H            1.338295500852    -1.512681454325     1.213297280834
    H           -0.394627138010    -1.502032918047     1.455919279441

  Mulliken Charges: (a.u.)
   Center  Symbol    Alpha    Beta     Spin     Total
       1     H     0.46757  0.46757  0.00000  0.06485
       2     C     3.04225  3.04225  0.00000 -0.08450
       3     O     4.19685  4.19685  0.00000 -0.39370
       4     H     0.44268  0.44268  0.00000  0.11465
       5     H     0.47024  0.47024  0.00000  0.05952
       6     C     2.87204  2.87204  0.00000  0.25593
       7     C     3.14627  3.14627  0.00000 -0.29254
       8     C     3.14068  3.14068  0.00000 -0.28136
       9     C     3.17548  3.17548  0.00000 -0.35097
      10     H     0.44804  0.44804  0.00000  0.10392
      11     H     0.45114  0.45114  0.00000  0.09773
      12     H     0.45525  0.45525  0.00000  0.08951
      13     H     0.44755  0.44755  0.00000  0.10490
      14     H     0.45928  0.45928  0.00000  0.08143
      15     H     0.45211  0.45211  0.00000  0.09578
      16     H     0.44435  0.44435  0.00000  0.11129
      17     H     0.44312  0.44312  0.00000  0.11376
      18     H     0.44509  0.44509  0.00000  0.10981

   Total alpha = 25.00000, Total beta = 25.00000, Total charge = -0.00000

*** Psi4 exiting successfully. Buy a developer a beer!
