  ==> Input File <==

--------------------------------------------------------------------------
set {
	reference rhf
	basis cc-pvtz
}

set_num_threads( 4 )
memory 2 gb

molecule MOL {
0 1

H	 2.777407	 0.801444	 -0.176687
N	 2.326826	 -0.066186	 0.000000
C	 0.934676	 -0.005420	 0.000000
H	 2.707895	 -0.791060	 -0.562464
C	 0.226436	 -0.001077	 -1.195129
C	 0.226436	 -0.001077	 1.195129
H	 0.759091	 -0.011439	 -2.128123
C	 -1.153391	 0.009141	 -1.189028
H	 0.759091	 -0.011439	 2.128123
C	 -1.153391	 0.009141	 1.189028
H	 -1.680905	 0.012964	 -2.124348
C	 -1.857876	 0.014675	 0.000000
H	 -1.680905	 0.012964	 2.124348
H	 -2.930222	 0.022904	 0.000000

	symmetry c1
}
set optking {
	frozen_dihedral = ("
		1 2 3 5
	")
}

ee = optimize('scf')
oeprop('DIPOLE', 'QUADRUPOLE', 'MULLIKEN_CHARGES')
f=open( 'psi4out.xyz', 'w' )
f.write( "14  " )
f.write( str(ee) + "\n" )
f.write( MOL.save_string_xyz() )
f.close()
--------------------------------------------------------------------------

    Molecular point group: c1
  Charge       = 0
  Multiplicity = 1
  Basis Set: CC-PVTZ
  Basis Set:
  @DF-RHF Final Energy:  -285.82555686377759
    Total Energy =                       -285.8255568637774786
    Molecular point group: c1
  Basis Set: CC-PVTZ
  Basis Set:
  Basis Set: CC-PVTZ
  Basis Set:
  @DF-RHF Final Energy:  -285.82741485411339
    Total Energy =                       -285.8274148541133286
  Basis Set: CC-PVTZ
  Basis Set:
  Basis Set: CC-PVTZ
  Basis Set:
  @DF-RHF Final Energy:  -285.82779003710283
    Total Energy =                       -285.8277900371028295
  Basis Set: CC-PVTZ
  Basis Set:
  Basis Set: CC-PVTZ
  Basis Set:
  @DF-RHF Final Energy:  -285.82781252774623
    Total Energy =                       -285.8278125277461186
  Basis Set: CC-PVTZ
  Basis Set:
  Charge       = 0
  Multiplicity = 1
  Basis Set: CC-PVTZ
  Basis Set:

    Orbital Energies (a.u.)
    -----------------------

    Doubly Occupied:

       1A    -15.544299     2A    -11.260765     3A    -11.228727
       4A    -11.227195     5A    -11.223775     6A    -11.223085
       7A    -11.219325     8A     -1.211666     9A     -1.132105
      10A     -1.016041    11A     -0.990380    12A     -0.831214
      13A     -0.811062    14A     -0.706100    15A     -0.666200
      16A     -0.648796    17A     -0.627828    18A     -0.594114
      19A     -0.585817    20A     -0.510058    21A     -0.502038
      22A     -0.495345    23A     -0.419173    24A     -0.336621
      25A     -0.324837

  @DF-RHF Final Energy:  -285.82781466009465

   => Energetics <=

    Nuclear Repulsion Energy =            273.0193176154398316
    One-Electron Energy =                -927.0211324857664295
    Two-Electron Energy =                 368.1740002102317817
    DFT Exchange-Correlation Energy =       0.0000000000000000
    Empirical Dispersion Energy =           0.0000000000000000
    PCM Polarization Energy =               0.0000000000000000
    EFP Energy =                            0.0000000000000000
    Total Energy =                       -285.8278146600948162
    Molecular point group: c1
  Basis Set: CC-PVTZ
  Basis Set:

  -Total Gradient:
     Atom            X                  Y                   Z
    ------   -----------------  -----------------  -----------------
       1        0.000049622929    -0.000348604816    -0.002153019908
       2        0.000023459376     0.001297697296     0.002731871868
       3       -0.000176257633    -0.002622204243    -0.000399012101
       4       -0.000000509119     0.000007965349    -0.000029052617
       5       -0.000013322701     0.001709780000    -0.000082898843
       6        0.000156192546    -0.000036352005    -0.000028225414
       7       -0.000002878449     0.000002988729     0.000015505493
       8        0.000064460853    -0.000062015665    -0.000033054893
       9        0.000013981608     0.000003659956     0.000000252116
      10       -0.000091485955    -0.000027620455    -0.000079474031
      11       -0.000023854216     0.000009909914     0.000010607038
      12        0.000002631723     0.000068034241     0.000081771037
      13        0.000008341496     0.000002761006    -0.000013924756
      14       -0.000010382458    -0.000005999307    -0.000021344993

  **** Optimization is complete! (in 5 steps) ****
    Final optimized geometry and variables:
    Molecular point group: c1

    Geometry (in Angstrom), charge = 0, multiplicity = 1:

    H            2.738635032805     0.839104232977    -0.100616295619
    N            2.352733597115    -0.069952507024     0.049708788711
    C            0.925548418401    -0.035930151309     0.002035434760
    H            2.720360557989    -0.663829744678    -0.662960325346
    C            0.221267779912    -0.019792688730    -1.192130785122
    C            0.223835514303    -0.003018375897     1.194244697964
    H            0.757207084649    -0.036924156142    -2.123225070130
    C           -1.160022253710     0.015037038217    -1.192505437107
    H            0.771799691829    -0.023939513105     2.115924880055
    C           -1.157710998572     0.047461227661     1.193672909645
    H           -1.691608000291     0.020444980632    -2.125176177023
    C           -1.855486832592     0.053229251825     0.001206045946
    H           -1.688320382230     0.073556812571     2.126483285440
    H           -2.928077188313     0.085005890032     0.001231731856

  Mulliken Charges: (a.u.)
   Center  Symbol    Alpha    Beta     Spin     Total
       1     H     0.42319  0.42319  0.00000  0.15361
       2     N     3.69790  3.69790  0.00000 -0.39579
       3     C     2.90259  2.90259  0.00000  0.19482
       4     H     0.42315  0.42315  0.00000  0.15369
       5     C     3.11388  3.11388  0.00000 -0.22777
       6     C     3.09971  3.09971  0.00000 -0.19942
       7     H     0.42739  0.42739  0.00000  0.14522
       8     C     3.07222  3.07222  0.00000 -0.14445
       9     H     0.41799  0.41799  0.00000  0.16402
      10     C     3.06526  3.06526  0.00000 -0.13053
      11     H     0.42359  0.42359  0.00000  0.15282
      12     C     3.08621  3.08621  0.00000 -0.17243
      13     H     0.42314  0.42314  0.00000  0.15372
      14     H     0.42376  0.42376  0.00000  0.15248

   Total alpha = 25.00000, Total beta = 25.00000, Total charge = -0.00000
