  ==> Input File <==

--------------------------------------------------------------------------
set {
	reference rhf
	basis 6-31G*
}

set_num_threads( 4 )
memory 2 gb

molecule MOL {
0 1

O	 3.225979	 0.970355	 -0.599647
C	 2.701189	 0.057885	 -0.047330
C	 1.245376	 -0.013843	 0.345420
O	 3.347903	 -1.046386	 0.304773
C	 0.455112	 1.231400	 -0.050772
H	 0.838542	 -0.913825	 -0.103701
H	 1.208210	 -0.175333	 1.419774
C	 -0.998893	 1.219485	 0.433193
H	 0.482531	 1.345121	 -1.130325
H	 0.957290	 2.103070	 0.354729
C	 -1.883438	 0.145884	 -0.207175
H	 -1.431207	 2.195402	 0.224832
H	 -1.019646	 1.105716	 1.516076
C	 -2.438547	 -0.852516	 0.810691
H	 -2.710702	 0.627130	 -0.726652
H	 -1.323196	 -0.398910	 -0.963680
C	 -3.319720	 -1.933069	 0.181350
H	 -3.012306	 -0.316197	 1.564613
H	 -1.612016	 -1.326294	 1.338025
C	 -3.873150	 -2.923774	 1.205030
H	 -4.145605	 -1.461323	 -0.346865
H	 -2.746638	 -2.473119	 -0.569453
H	 -4.493252	 -3.676935	 0.728764
H	 -4.480553	 -2.418648	 1.950755
H	 -3.070740	 -3.437728	 1.726818
C	 4.728119	 -1.109107	 -0.004993
H	 4.882018	 -1.033965	 -1.071845
H	 5.068212	 -2.067527	 0.355250
H	 5.265056	 -0.311663	 0.488280

	symmetry c1
}
set optking {
	frozen_dihedral = ("
		15 11 8 5
	")
}

ee = optimize('scf')
oeprop('DIPOLE', 'QUADRUPOLE', 'MULLIKEN_CHARGES')
f=open( 'psi4out.xyz', 'w' )
f.write( "29  " )
f.write( str(ee) + "\n" )
f.write( MOL.save_string_xyz() )
f.close()
--------------------------------------------------------------------------

    Molecular point group: c1
  Charge       = 0
  Multiplicity = 1
  Basis Set: 6-31G*
  Basis Set:
  @DF-RHF Final Energy:  -501.03863122405778
    Total Energy =                       -501.0386312240572124
    Molecular point group: c1
  Basis Set: 6-31G*
  Basis Set:
  Basis Set: 6-31G*
  Basis Set:
  @DF-RHF Final Energy:  -501.03892681263017
    Total Energy =                       -501.0389268126298248
  Basis Set: 6-31G*
  Basis Set:
  Basis Set: 6-31G*
  Basis Set:
  @DF-RHF Final Energy:  -501.03884543720676
    Total Energy =                       -501.0388454372068736
  Basis Set: 6-31G*
  Basis Set:
  Basis Set: 6-31G*
  Basis Set:
  @DF-RHF Final Energy:  -501.03901416100189
    Total Energy =                       -501.0390141610014325
  Basis Set: 6-31G*
  Basis Set:
  Basis Set: 6-31G*
  Basis Set:
  @DF-RHF Final Energy:  -501.03864320138848
    Total Energy =                       -501.0386432013890499
  Basis Set: 6-31G*
  Basis Set:
  Basis Set: 6-31G*
  Basis Set:
  @DF-RHF Final Energy:  -501.03902478814871
    Total Energy =                       -501.0390247881484811
  Basis Set: 6-31G*
  Basis Set:
  Basis Set: 6-31G*
  Basis Set:
  @DF-RHF Final Energy:  -501.03902663333065
    Total Energy =                       -501.0390266333309910
  Basis Set: 6-31G*
  Basis Set:
  Charge       = 0
  Multiplicity = 1
  Basis Set: 6-31G*
  Basis Set:

    Orbital Energies (a.u.)
    -----------------------

    Doubly Occupied:

       1A    -20.603538     2A    -20.545342     3A    -11.372160
       4A    -11.280789     5A    -11.234981     6A    -11.219252
       7A    -11.217301     8A    -11.216380     9A    -11.215974
      10A    -11.215412    11A    -11.209665    12A     -1.469217
      13A     -1.362668    14A     -1.097384    15A     -1.066519
      16A     -1.018295    17A     -0.976823    18A     -0.929869
      19A     -0.861389    20A     -0.801558    21A     -0.789505
      22A     -0.764445    23A     -0.701589    24A     -0.682613
      25A     -0.671858    26A     -0.647588    27A     -0.628908
      28A     -0.605613    29A     -0.595946    30A     -0.575650
      31A     -0.564699    32A     -0.560102    33A     -0.535093
      34A     -0.526877    35A     -0.512815    36A     -0.507220
      37A     -0.502244    38A     -0.476204    39A     -0.473522
      40A     -0.462772    41A     -0.457463    42A     -0.455054
      43A     -0.438046    44A     -0.436165

  @DF-RHF Final Energy:  -501.03902666964939

   => Energetics <=

    Nuclear Repulsion Energy =            620.7645920390529000
    One-Electron Energy =               -1912.6342330952686552
    Two-Electron Energy =                 790.8306143865659124
    DFT Exchange-Correlation Energy =       0.0000000000000000
    Empirical Dispersion Energy =           0.0000000000000000
    PCM Polarization Energy =               0.0000000000000000
    EFP Energy =                            0.0000000000000000
    Total Energy =                       -501.0390266696497292
    Molecular point group: c1
  Basis Set: 6-31G*
  Basis Set:

  -Total Gradient:
     Atom            X                  Y                   Z
    ------   -----------------  -----------------  -----------------
       1        0.000003584703    -0.000002056535     0.000010394545
       2       -0.000007589931    -0.000000121456    -0.000013618264
       3       -0.000003574547    -0.000007839241    -0.000011725587
       4        0.000002193261    -0.000001052093    -0.000004363616
       5       -0.000052126206     0.000152434934    -0.000148350869
       6       -0.000000811628     0.000004542442     0.000009782374
       7        0.000006703347     0.000007193479     0.000006622701
       8        0.000131062041    -0.000236130048     0.000161092691
       9        0.000000314214     0.000007122838    -0.000010348978
      10       -0.000003703123    -0.000012646837     0.000002128394
      11       -0.000235248303     0.000051413242     0.000254075501
      12       -0.000017066500    -0.000006773309    -0.000011195213
      13        0.000002093411    -0.000005776801    -0.000001380119
      14       -0.000006185232     0.000019666028     0.000013432455
      15        0.000173557530     0.000031919296    -0.000256882092
      16       -0.000001205104     0.000002986990    -0.000001213756
      17        0.000013591346    -0.000006287046    -0.000005428891
      18       -0.000013652837    -0.000001894239    -0.000006677184
      19       -0.000004245610     0.000002496133     0.000010906784
      20        0.000009144727    -0.000003120175     0.000001504082
      21        0.000000666951     0.000002865623     0.000007235065
      22       -0.000001210986     0.000000391795    -0.000005506688
      23        0.000002324761     0.000001463811    -0.000001782141
      24        0.000000112834     0.000001697460    -0.000001332996
      25       -0.000000065802    -0.000001776293     0.000001674832
      26       -0.000001389893    -0.000000973670     0.000001043876
      27        0.000000456957    -0.000000028364     0.000000171534
      28        0.000001803399     0.000000008158    -0.000000289466
      29        0.000000466216     0.000000273876     0.000000031026

  **** Optimization is complete! (in 8 steps) ****
    Final optimized geometry and variables:
    Molecular point group: c1

    Geometry (in Angstrom), charge = 0, multiplicity = 1:

    O            2.862869209024     1.318433555489    -0.915459579465
    C            2.354828228244     0.459490727308    -0.269605711139
    C            0.919428252896     0.442601599048     0.197050720275
    O            3.004403287822    -0.624633171565     0.135693851311
    C            0.126955820803     1.669920546979    -0.246468856652
    H            0.475437625336    -0.479367237628    -0.165664153472
    H            0.932618582427     0.358083969050     1.280502331807
    C           -1.328669383411     1.654942553666     0.233818087859
    H            0.156285364109     1.746286548802    -1.328877508860
    H            0.621913113158     2.558383096999     0.131385077964
    C           -2.210489421940     0.556394554002    -0.404991484785
    H           -1.758383665938     2.629695102104     0.024124445122
    H           -1.343318610393     1.554155020288     1.317233801125
    C           -2.770203959960    -0.454175941979     0.599629620806
    H           -3.039692754721     1.018404287914    -0.934045721890
    H           -1.644304863341     0.022273830748    -1.165042171849
    C           -3.633729054344    -1.537552416774    -0.047848599125
    H           -3.358210248454     0.074520841281     1.348046313181
    H           -1.948476669728    -0.923935198069     1.138446583228
    C           -4.192860739291    -2.539512491763     0.961781811253
    H           -4.456110009878    -1.068828889535    -0.584196671964
    H           -3.046545529808    -2.067912687148    -0.794779909405
    H           -4.800413547033    -3.294307944010     0.472189340678
    H           -4.814301042165    -2.044224965268     1.702524681626
    H           -3.393539848767    -3.050731356155     1.490965611754
    C            4.366979008633    -0.733022490329    -0.233942444413
    H            4.469419789639    -0.742640213165    -1.309549015950
    H            4.712549459509    -1.666176909217     0.182937162411
    H            4.937042839367     0.091360118950     0.169721636862

  Mulliken Charges: (a.u.)
   Center  Symbol    Alpha    Beta     Spin     Total
       1     O     4.28583  4.28583  0.00000 -0.57166
       2     C     2.60514  2.60514  0.00000  0.78971
       3     C     3.20893  3.20893  0.00000 -0.41785
       4     O     4.30741  4.30741  0.00000 -0.61483
       5     C     3.15451  3.15451  0.00000 -0.30902
       6     H     0.39941  0.39941  0.00000  0.20118
       7     H     0.40103  0.40103  0.00000  0.19793
       8     C     3.16047  3.16047  0.00000 -0.32094
       9     H     0.41172  0.41172  0.00000  0.17655
      10     H     0.41098  0.41098  0.00000  0.17803
      11     C     3.15797  3.15797  0.00000 -0.31593
      12     H     0.41551  0.41551  0.00000  0.16899
      13     H     0.42108  0.42108  0.00000  0.15784
      14     C     3.15294  3.15294  0.00000 -0.30588
      15     H     0.41864  0.41864  0.00000  0.16273
      16     H     0.42217  0.42217  0.00000  0.15566
      17     C     3.15207  3.15207  0.00000 -0.30414
      18     H     0.42267  0.42267  0.00000  0.15466
      19     H     0.42470  0.42470  0.00000  0.15060
      20     C     3.23928  3.23928  0.00000 -0.47857
      21     H     0.42252  0.42252  0.00000  0.15497
      22     H     0.42340  0.42340  0.00000  0.15320
      23     H     0.41906  0.41906  0.00000  0.16188
      24     H     0.42160  0.42160  0.00000  0.15679
      25     H     0.42187  0.42187  0.00000  0.15625
      26     C     3.09241  3.09241  0.00000 -0.18482
      27     H     0.40909  0.40909  0.00000  0.18182
      28     H     0.40850  0.40850  0.00000  0.18300
      29     H     0.40907  0.40907  0.00000  0.18185

   Total alpha = 44.00000, Total beta = 44.00000, Total charge = -0.00000
