  ==> Input File <==

--------------------------------------------------------------------------
set {
	reference rhf
	basis 6-31G*
}

set_num_threads( 4 )
memory 2 gb

molecule MOL {
0 1

H	 2.556920	 1.993440	 1.972176
O	 1.619488	 1.902900	 2.070313
C	 1.088455	 1.214815	 1.036420
C	 1.862573	 0.726324	 -0.008291
C	 -0.279132	 1.002444	 1.042231
H	 2.926693	 0.892694	 -0.010889
C	 1.269254	 0.026465	 -1.045518
H	 -0.878231	 1.379225	 1.848576
C	 -0.865228	 0.300799	 0.000000
H	 1.878633	 -0.346724	 -1.848491
C	 -0.096794	 -0.190421	 -1.047847
C	 -2.333960	 0.069074	 0.000000
H	 -0.559737	 -0.733771	 -1.852496
O	 -2.847347	 -1.003763	 0.000000
H	 -2.943845	 0.977528	 0.000000

	symmetry c1
}
set optking {
	frozen_dihedral = ("
		11 9 12 14
	")
}

ee = optimize('scf')
oeprop('DIPOLE', 'QUADRUPOLE', 'MULLIKEN_CHARGES')
f=open( 'psi4out.xyz', 'w' )
f.write( "15  " )
f.write( str(ee) + "\n" )
f.write( MOL.save_string_xyz() )
f.close()
--------------------------------------------------------------------------

    Molecular point group: c1
  Charge       = 0
  Multiplicity = 1
  Basis Set: 6-31G*
  Basis Set:
  @DF-RHF Final Energy:  -418.27674824906615
    Total Energy =                       -418.2767482490660313
    Molecular point group: c1
  Basis Set: 6-31G*
  Basis Set:
  Basis Set: 6-31G*
  Basis Set:
  @DF-RHF Final Energy:  -418.27601161133157
    Total Energy =                       -418.2760116113313416
  Basis Set: 6-31G*
  Basis Set:
  Basis Set: 6-31G*
  Basis Set:
  @DF-RHF Final Energy:  -418.27699448917798
    Total Energy =                       -418.2769944891778096
  Basis Set: 6-31G*
  Basis Set:
  Basis Set: 6-31G*
  Basis Set:
  @DF-RHF Final Energy:  -418.27741825201514
    Total Energy =                       -418.2774182520147406
  Basis Set: 6-31G*
  Basis Set:
  Basis Set: 6-31G*
  Basis Set:
  @DF-RHF Final Energy:  -418.27742076823392
    Total Energy =                       -418.2774207682336964
  Basis Set: 6-31G*
  Basis Set:
  Charge       = 0
  Multiplicity = 1
  Basis Set: 6-31G*
  Basis Set:

    Orbital Energies (a.u.)
    -----------------------

    Doubly Occupied:

       1A    -20.603870     2A    -20.570791     3A    -11.335474
       4A    -11.314419     5A    -11.256076     6A    -11.251561
       7A    -11.244398     8A    -11.242288     9A    -11.239564
      10A     -1.423516    11A     -1.410120    12A     -1.168454
      13A     -1.049366    14A     -1.023762    15A     -0.899977
      16A     -0.843310    17A     -0.815981    18A     -0.738482
      19A     -0.700056    20A     -0.670756    21A     -0.668631
      22A     -0.633984    23A     -0.613417    24A     -0.601962
      25A     -0.582041    26A     -0.541703    27A     -0.533898
      28A     -0.513639    29A     -0.490054    30A     -0.423490
      31A     -0.354041    32A     -0.324200

  @DF-RHF Final Energy:  -418.27742116777677

   => Energetics <=

    Nuclear Repulsion Energy =            401.7902834507922307
    One-Electron Energy =               -1365.9688524989724101
    Two-Electron Energy =                 545.9011478804034141
    DFT Exchange-Correlation Energy =       0.0000000000000000
    Empirical Dispersion Energy =           0.0000000000000000
    PCM Polarization Energy =               0.0000000000000000
    EFP Energy =                            0.0000000000000000
    Total Energy =                       -418.2774211677767653
    Molecular point group: c1
  Basis Set: 6-31G*
  Basis Set:

  -Total Gradient:
     Atom            X                  Y                   Z
    ------   -----------------  -----------------  -----------------
       1        0.000000491497     0.000003789362     0.000000414535
       2        0.000010059422    -0.000000686470    -0.000012640479
       3       -0.000092821997    -0.000003500069     0.000053244048
       4        0.000009455479    -0.000032703808    -0.000097783336
       5        0.000045577119     0.000012782491     0.000019176005
       6       -0.000001983803     0.000007828384     0.000002141004
       7        0.000095801876     0.000010682624     0.000079787533
       8        0.000006342754     0.000002670268     0.000004451231
       9        0.000830888834    -0.007169790763     0.006654296612
      10       -0.000005615687     0.000003519990    -0.000009077572
      11       -0.000668740674     0.004825537241    -0.002545775200
      12       -0.000253102511     0.002562303459    -0.010810711961
      13        0.000000319859     0.000000049547     0.000003737924
      14       -0.000007890357    -0.000221852560     0.006668231125
      15        0.000031218193    -0.000000629696    -0.000009491478

  **** Optimization is complete! (in 6 steps) ****
    Final optimized geometry and variables:
    Molecular point group: c1

    Geometry (in Angstrom), charge = 0, multiplicity = 1:

    H            2.621453591081     1.535328745647     1.717990432465
    O            1.682645805305     1.446421463919     1.805273818358
    C            1.166179176674     0.750665391914     0.769618206637
    C            1.945067834988     0.270739278033    -0.271589589451
    C           -0.204237732783     0.536357086181     0.766601660313
    H            3.007070661425     0.449128813281    -0.277033438083
    C            1.351246899846    -0.431757139737    -1.308430245146
    H           -0.792995624080     0.937023418869     1.572210700891
    C           -0.781141842316    -0.198008615311    -0.255155005806
    H            1.960591326594    -0.791466232874    -2.117748100075
    C           -0.010222704335    -0.671237363727    -1.310168338314
    C           -2.266025127019    -0.383097481788    -0.268566369451
    H           -0.470213859467    -1.226328638035    -2.106326143501
    O           -2.802347455858    -1.442319057704    -0.308431735265
    H           -2.853940101481     0.535500706226    -0.187734186509

  Mulliken Charges: (a.u.)
   Center  Symbol    Alpha    Beta     Spin     Total
       1     H     0.27003  0.27003  0.00000  0.45995
       2     O     4.37682  4.37682  0.00000 -0.75364
       3     C     2.79181  2.79181  0.00000  0.41638
       4     C     3.14003  3.14003  0.00000 -0.28005
       5     C     3.13060  3.13060  0.00000 -0.26121
       6     H     0.40011  0.40011  0.00000  0.19978
       7     C     3.09051  3.09051  0.00000 -0.18103
       8     H     0.38570  0.38570  0.00000  0.22860
       9     C     3.02531  3.02531  0.00000 -0.05061
      10     H     0.39310  0.39310  0.00000  0.21379
      11     C     3.11166  3.11166  0.00000 -0.22332
      12     C     2.84770  2.84770  0.00000  0.30461
      13     H     0.38733  0.38733  0.00000  0.22534
      14     O     4.22795  4.22795  0.00000 -0.45590
      15     H     0.42134  0.42134  0.00000  0.15731

   Total alpha = 32.00000, Total beta = 32.00000, Total charge =  0.00000
