  ==> Input File <==

--------------------------------------------------------------------------
set {
	reference rhf
	basis cc-pvtz
}

set_num_threads( 4 )
memory 2 gb

molecule MOL {
0 1

H	 1.651193	 -1.101532	 -0.843661
O	 1.583947	 -0.677544	 -0.001533
C	 0.489979	 0.078084	 0.002623
C	 -0.763662	 -0.754014	 0.000816
O	 0.539051	 1.259395	 -0.000088
C	 -2.038001	 0.074705	 -0.000833
H	 -0.712945	 -1.405886	 -0.864342
H	 -0.715137	 -1.405770	 0.866182
H	 -2.087267	 0.710831	 -0.874232
H	 -2.903419	 -0.576199	 -0.001922
H	 -2.089467	 0.710909	 0.872389

	symmetry c1
}
set optking {
	frozen_dihedral = ("
		1 2 3 5
	")
}

ee = optimize('scf')
oeprop('DIPOLE', 'QUADRUPOLE', 'MULLIKEN_CHARGES')
f=open( 'psi4out.xyz', 'w' )
f.write( "11  " )
f.write( str(ee) + "\n" )
f.write( MOL.save_string_xyz() )
f.close()
--------------------------------------------------------------------------

    Molecular point group: c1
  Charge       = 0
  Multiplicity = 1
  Basis Set: CC-PVTZ
  Basis Set:
  @DF-RHF Final Energy:  -266.93242136481354
    Total Energy =                       -266.9324213648135355
    Molecular point group: c1
  Basis Set: CC-PVTZ
  Basis Set:
  Basis Set: CC-PVTZ
  Basis Set:
  @DF-RHF Final Energy:  -266.93367818828852
    Total Energy =                       -266.9336781882884111
  Basis Set: CC-PVTZ
  Basis Set:
  Basis Set: CC-PVTZ
  Basis Set:
  @DF-RHF Final Energy:  -266.93255021287018
    Total Energy =                       -266.9325502128700691
  Basis Set: CC-PVTZ
  Basis Set:
  Basis Set: CC-PVTZ
  Basis Set:
  @DF-RHF Final Energy:  -266.93403970534223
    Total Energy =                       -266.9340397053424567
  Basis Set: CC-PVTZ
  Basis Set:
  Basis Set: CC-PVTZ
  Basis Set:
  @DF-RHF Final Energy:  -266.93405433102635
    Total Energy =                       -266.9340543310262888
  Basis Set: CC-PVTZ
  Basis Set:
  Basis Set: CC-PVTZ
  Basis Set:
  @DF-RHF Final Energy:  -266.93405565369903
    Total Energy =                       -266.9340556536991471
  Basis Set: CC-PVTZ
  Basis Set:
  Charge       = 0
  Multiplicity = 1
  Basis Set: CC-PVTZ
  Basis Set:

    Orbital Energies (a.u.)
    -----------------------

    Doubly Occupied:

       1A    -20.589079     2A    -20.550235     3A    -11.374861
       4A    -11.247632     5A    -11.221717     6A     -1.464929
       7A     -1.372754     8A     -1.066673     9A     -0.910297
      10A     -0.815212    11A     -0.716709    12A     -0.674585
      13A     -0.662637    14A     -0.617208    15A     -0.573956
      16A     -0.532293    17A     -0.522550    18A     -0.505066
      19A     -0.495239    20A     -0.449136

  @DF-RHF Final Energy:  -266.93405574832832

   => Energetics <=

    Nuclear Repulsion Energy =            179.4537394730942879
    One-Electron Energy =                -720.0500512690188089
    Two-Electron Energy =                 273.6622560475959176
    DFT Exchange-Correlation Energy =       0.0000000000000000
    Empirical Dispersion Energy =           0.0000000000000000
    PCM Polarization Energy =               0.0000000000000000
    EFP Energy =                            0.0000000000000000
    Total Energy =                       -266.9340557483286034
    Molecular point group: c1
  Basis Set: CC-PVTZ
  Basis Set:

  -Total Gradient:
     Atom            X                  Y                   Z
    ------   -----------------  -----------------  -----------------
       1        0.001871351171     0.002865395773    -0.001144982472
       2       -0.002324190989    -0.003607023881     0.000030268259
       3        0.000418709357     0.000677275489     0.004276112757
       4        0.000007379869    -0.000001497190     0.000001834447
       5        0.000014426490     0.000060567454    -0.003154566219
       6        0.000001770163    -0.000000585400    -0.000002205094
       7        0.000003963041     0.000000798384    -0.000006131140
       8        0.000001872761     0.000000349218    -0.000003663993
       9        0.000000732641     0.000000564360    -0.000002787629
      10        0.000006749228     0.000000548673     0.000000866081
      11       -0.000002763732     0.000003607118     0.000005255005

  **** Optimization is complete! (in 7 steps) ****
    Final optimized geometry and variables:
    Molecular point group: c1

    Geometry (in Angstrom), charge = 0, multiplicity = 1:

    H            1.767138659814    -1.079984830413    -0.837861693678
    O            1.629459978876    -0.658472015162    -0.006152267396
    C            0.494182931204     0.085140068901     0.003654055652
    C           -0.771335102818    -0.734734437250     0.011447568919
    O            0.538278249003     1.257187547485     0.034633681620
    C           -2.042693984639     0.098257279768     0.011500125429
    H           -0.738698348962    -1.398818557824    -0.848160588934
    H           -0.719557560853    -1.381016376217     0.881137836476
    H           -2.095485940854     0.728779846968    -0.866117607520
    H           -2.912098667752    -0.547452139847     0.022032956891
    H           -2.082866151673     0.741118342922     0.880205904643

  Mulliken Charges: (a.u.)
   Center  Symbol    Alpha    Beta     Spin     Total
       1     H     0.38928  0.38928  0.00000  0.22143
       2     O     4.16880  4.16880  0.00000 -0.33761
       3     C     2.80399  2.80399  0.00000  0.39202
       4     C     3.10605  3.10605  0.00000 -0.21210
       5     O     4.16028  4.16028  0.00000 -0.32055
       6     C     3.13916  3.13916  0.00000 -0.27832
       7     H     0.45132  0.45132  0.00000  0.09736
       8     H     0.43723  0.43723  0.00000  0.12553
       9     H     0.44858  0.44858  0.00000  0.10284
      10     H     0.45013  0.45013  0.00000  0.09974
      11     H     0.44517  0.44517  0.00000  0.10967

   Total alpha = 20.00000, Total beta = 20.00000, Total charge = -0.00000
