  ==> Input File <==

--------------------------------------------------------------------------
set {
	reference rhf
	basis 6-31G*
}

set_num_threads( 4 )
memory 2 gb

molecule MOL {
0 1

H	 1.718327	 -0.076096	 -1.228526
O	 1.654024	 -0.625927	 -0.460906
C	 1.135793	 0.118896	 0.612333
C	 0.031547	 1.023609	 0.088541
H	 1.915668	 0.729681	 1.063582
H	 0.754543	 -0.542641	 1.387006
C	 -1.134819	 0.293262	 -0.585751
H	 0.474374	 1.714721	 -0.623187
H	 -0.338529	 1.620940	 0.920081
C	 -1.917817	 -0.639439	 0.339494
H	 -0.758119	 -0.268455	 -1.433105
H	 -1.813832	 1.041889	 -0.986690
H	 -2.777680	 -1.057197	 -0.174994
H	 -1.310268	 -1.471279	 0.680599
H	 -2.283753	 -0.111424	 1.216626

	symmetry c1
}
set optking {
	frozen_dihedral = ("
		1 2 3 4
	")
}

ee = optimize('scf')
oeprop('DIPOLE', 'QUADRUPOLE', 'MULLIKEN_CHARGES')
f=open( 'psi4out.xyz', 'w' )
f.write( "15  " )
f.write( str(ee) + "\n" )
f.write( MOL.save_string_xyz() )
f.close()
--------------------------------------------------------------------------

    Molecular point group: c1
  Charge       = 0
  Multiplicity = 1
  Basis Set: 6-31G*
  Basis Set:
  @DF-RHF Final Energy:  -232.14109748494863
    Total Energy =                       -232.1410974849486593
    Molecular point group: c1
  Basis Set: 6-31G*
  Basis Set:
  Basis Set: 6-31G*
  Basis Set:
  @DF-RHF Final Energy:  -232.14262059567164
    Total Energy =                       -232.1426205956716444
  Basis Set: 6-31G*
  Basis Set:
  Basis Set: 6-31G*
  Basis Set:
  @DF-RHF Final Energy:  -232.14304866396833
    Total Energy =                       -232.1430486639684432
  Basis Set: 6-31G*
  Basis Set:
  Basis Set: 6-31G*
  Basis Set:
  @DF-RHF Final Energy:  -232.14304297422933
    Total Energy =                       -232.1430429742294450
  Basis Set: 6-31G*
  Basis Set:
  Basis Set: 6-31G*
  Basis Set:
  @DF-RHF Final Energy:  -232.14305176593973
    Total Energy =                       -232.1430517659397310
  Basis Set: 6-31G*
  Basis Set:
  Charge       = 0
  Multiplicity = 1
  Basis Set: 6-31G*
  Basis Set:

    Orbital Energies (a.u.)
    -----------------------

    Doubly Occupied:

       1A    -20.552876     2A    -11.267052     3A    -11.222320
       4A    -11.219075     5A    -11.209418     6A     -1.359696
       7A     -1.070134     8A     -0.973029     9A     -0.879063
      10A     -0.791327    11A     -0.669965    12A     -0.646708
      13A     -0.635433    14A     -0.584013    15A     -0.567971
      16A     -0.543380    17A     -0.505282    18A     -0.483812
      19A     -0.475588    20A     -0.457177    21A     -0.428437

  @DF-RHF Final Energy:  -232.14305437497396

   => Energetics <=

    Nuclear Repulsion Energy =            191.7506822861501234
    One-Electron Energy =                -694.7039633690221763
    Two-Electron Energy =                 270.8102267078983800
    DFT Exchange-Correlation Energy =       0.0000000000000000
    Empirical Dispersion Energy =           0.0000000000000000
    PCM Polarization Energy =               0.0000000000000000
    EFP Energy =                            0.0000000000000000
    Total Energy =                       -232.1430543749737012
    Molecular point group: c1
  Basis Set: 6-31G*
  Basis Set:

  -Total Gradient:
     Atom            X                  Y                   Z
    ------   -----------------  -----------------  -----------------
       1       -0.002102602585    -0.000672636478    -0.000632694912
       2        0.003009893917     0.001274548922     0.000648950566
       3       -0.001873244349    -0.001667080212     0.000256676807
       4        0.000993844307     0.001061405603    -0.000287263787
       5       -0.000001855157     0.000000847741    -0.000007281683
       6       -0.000011029919     0.000009174375     0.000007184699
       7        0.000002243224    -0.000003733651     0.000006682146
       8       -0.000010124067    -0.000010365491     0.000003552631
       9       -0.000006389387     0.000003723235     0.000004979184
      10       -0.000001853055    -0.000001661851    -0.000000975456
      11       -0.000000510280     0.000003960653     0.000002721501
      12        0.000005561565    -0.000001883376     0.000000528506
      13       -0.000003328253    -0.000001539959     0.000000266331
      14        0.000002690033     0.000004434179    -0.000004399871
      15       -0.000003296000     0.000000806312     0.000001073340

  **** Optimization is complete! (in 6 steps) ****
    Final optimized geometry and variables:
    Molecular point group: c1

    Geometry (in Angstrom), charge = 0, multiplicity = 1:

    H            1.785928280053    -0.170237827154    -1.206606931936
    O            1.705759449658    -0.677547185800    -0.410909192351
    C            1.141687648088     0.118636189988     0.600190912084
    C            0.019238314191     1.022514576141     0.099523746337
    H            1.911230316470     0.732833856428     1.064498174822
    H            0.782059109303    -0.566689334947     1.355932021678
    C           -1.148359155882     0.293435701502    -0.575721702547
    H            0.441836233308     1.742158154989    -0.601818251704
    H           -0.349511045799     1.605077337782     0.941503924603
    C           -1.916773865049    -0.651957547101     0.348242271838
    H           -0.780784371232    -0.265141963917    -1.431398718885
    H           -1.833716959524     1.039848316731    -0.969158090454
    H           -2.777066430150    -1.072065001612    -0.163182950930
    H           -1.298900063564    -1.479958891622     0.678178115360
    H           -2.279648148425    -0.131287603815     1.230655824746

  Mulliken Charges: (a.u.)
   Center  Symbol    Alpha    Beta     Spin     Total
       1     H     0.28261  0.28261  0.00000  0.43478
       2     O     4.37126  4.37126  0.00000 -0.74251
       3     C     2.98827  2.98827  0.00000  0.02346
       4     C     3.18123  3.18123  0.00000 -0.36247
       5     H     0.42765  0.42765  0.00000  0.14470
       6     H     0.41628  0.41628  0.00000  0.16743
       7     C     3.15009  3.15009  0.00000 -0.30018
       8     H     0.42472  0.42472  0.00000  0.15056
       9     H     0.41936  0.41936  0.00000  0.16129
      10     C     3.24372  3.24372  0.00000 -0.48743
      11     H     0.41859  0.41859  0.00000  0.16282
      12     H     0.42062  0.42062  0.00000  0.15875
      13     H     0.41797  0.41797  0.00000  0.16405
      14     H     0.41421  0.41421  0.00000  0.17157
      15     H     0.42342  0.42342  0.00000  0.15317

   Total alpha = 21.00000, Total beta = 21.00000, Total charge =  0.00000
