  ==> Input File <==

--------------------------------------------------------------------------
set {
	reference rhf
	basis 6-31G*
}

set_num_threads( 4 )
memory 2 gb

molecule MOL {
0 1

O	 0.600882	 1.315659	 0.432659
C	 0.473003	 0.150905	 0.230823
C	 1.596791	 -0.857217	 0.198349
O	 -0.698257	 -0.426125	 0.001050
C	 2.963831	 -0.236635	 0.457286
H	 1.563264	 -1.350233	 -0.768635
H	 1.366016	 -1.624986	 0.930838
H	 3.196841	 0.516788	 -0.285293
H	 3.733671	 -1.000173	 0.423049
H	 2.997946	 0.239308	 1.429725
C	 -1.853104	 0.406779	 0.000512
C	 -3.066105	 -0.499277	 -0.000959
H	 -1.828410	 1.043074	 -0.873618
H	 -1.829857	 1.042383	 0.875188
H	 -3.071820	 -1.133106	 -0.880383
H	 -3.972708	 0.097145	 -0.001528
H	 -3.073405	 -1.133813	 0.877999

	symmetry c1
}
set optking {
	frozen_dihedral = ("
		2 4 11 13
	")
}

ee = optimize('scf')
oeprop('DIPOLE', 'QUADRUPOLE', 'MULLIKEN_CHARGES')
f=open( 'psi4out.xyz', 'w' )
f.write( "17  " )
f.write( str(ee) + "\n" )
f.write( MOL.save_string_xyz() )
f.close()
--------------------------------------------------------------------------

    Molecular point group: c1
  Charge       = 0
  Multiplicity = 1
  Basis Set: 6-31G*
  Basis Set:
  @DF-RHF Final Energy:  -344.91174994812962
    Total Energy =                       -344.9117499481299092
    Molecular point group: c1
  Basis Set: 6-31G*
  Basis Set:
  Basis Set: 6-31G*
  Basis Set:
  @DF-RHF Final Energy:  -344.91176783593824
    Total Energy =                       -344.9117678359386332
  Basis Set: 6-31G*
  Basis Set:
  Basis Set: 6-31G*
  Basis Set:
  @DF-RHF Final Energy:  -344.91176927223188
    Total Energy =                       -344.9117692722318793
  Basis Set: 6-31G*
  Basis Set:
  Basis Set: 6-31G*
  Basis Set:
  @DF-RHF Final Energy:  -344.91178077031947
    Total Energy =                       -344.9117807703196945
  Basis Set: 6-31G*
  Basis Set:
  Charge       = 0
  Multiplicity = 1
  Basis Set: 6-31G*
  Basis Set:

    Orbital Energies (a.u.)
    -----------------------

    Doubly Occupied:

       1A    -20.600857     2A    -20.544253     3A    -11.371422
       4A    -11.284730     5A    -11.237497     6A    -11.222254
       7A    -11.215718     8A     -1.467289     9A     -1.361985
      10A     -1.069970    11A     -1.031758    12A     -0.910792
      13A     -0.847390    14A     -0.772547    15A     -0.696214
      16A     -0.689016    17A     -0.664153    18A     -0.629866
      19A     -0.582643    20A     -0.572024    21A     -0.558211
      22A     -0.523781    23A     -0.519176    24A     -0.514651
      25A     -0.503981    26A     -0.492723    27A     -0.452482
      28A     -0.435988

  @DF-RHF Final Energy:  -344.91178151465192

   => Energetics <=

    Nuclear Repulsion Energy =            314.6740850924111328
    One-Electron Energy =               -1093.6249894625852903
    Two-Electron Energy =                 434.0391228555216117
    DFT Exchange-Correlation Energy =       0.0000000000000000
    Empirical Dispersion Energy =           0.0000000000000000
    PCM Polarization Energy =               0.0000000000000000
    EFP Energy =                            0.0000000000000000
    Total Energy =                       -344.9117815146525459
    Molecular point group: c1
  Basis Set: 6-31G*
  Basis Set:

  -Total Gradient:
     Atom            X                  Y                   Z
    ------   -----------------  -----------------  -----------------
       1        0.000053871775     0.000031462339     0.000034373085
       2       -0.000132977862    -0.000149445165     0.000828207663
       3       -0.000011654385     0.000009513521    -0.000008728469
       4        0.000026760708    -0.000062918888    -0.001377139601
       5       -0.000006468220     0.000005863884     0.000010895673
       6       -0.000010376483     0.000007018756    -0.000003689175
       7       -0.000004717312     0.000007522761     0.000002146295
       8       -0.000001948062     0.000000214716    -0.000001673745
       9       -0.000001859649     0.000001402428     0.000000460194
      10        0.000006504292     0.000003482021     0.000003567997
      11        0.000592847572     0.000761829857     0.000874936022
      12        0.000000998302     0.000000187408     0.000033766434
      13       -0.000495537009    -0.000721102203    -0.000424177507
      14       -0.000019474430     0.000099300539     0.000043925724
      15        0.000002020750    -0.000006058793    -0.000010866998
      16       -0.000001029128     0.000000795850     0.000004457757
      17        0.000003039144     0.000010930971    -0.000010461348

  **** Optimization is complete! (in 5 steps) ****
    Final optimized geometry and variables:
    Molecular point group: c1

    Geometry (in Angstrom), charge = 0, multiplicity = 1:

    O            0.618045379582     1.334606027994     0.231253588099
    C            0.485111458626     0.168979684633     0.038117503282
    C            1.604957924477    -0.843778033860     0.014257908792
    O           -0.687821265733    -0.406533399824    -0.187953530818
    C            2.974459992634    -0.226386417183     0.267986335280
    H            1.569388869626    -1.344514820971    -0.948679248397
    H            1.371189903633    -1.604578958230     0.752998276304
    H            3.210445093905     0.519618381845    -0.481090365019
    H            3.741234724917    -0.993267478364     0.240411575901
    H            3.010436900896     0.257815194403     1.236283923577
    C           -1.845948718357     0.421900611590    -0.175024960023
    C           -3.055566080248    -0.489241508454    -0.192128950433
    H           -1.825347195966     1.063218517832    -1.046477040952
    H           -1.827212493473     1.048012955510     0.705165859953
    H           -3.052532758599    -1.117298148224    -1.075721766617
    H           -3.964620355897     0.103515442765    -0.195488220121
    H           -3.066575383561    -1.129638032956     0.682539944044

  Mulliken Charges: (a.u.)
   Center  Symbol    Alpha    Beta     Spin     Total
       1     O     4.28628  4.28628  0.00000 -0.57255
       2     C     2.60573  2.60573  0.00000  0.78855
       3     C     3.20504  3.20504  0.00000 -0.41008
       4     O     4.31333  4.31333  0.00000 -0.62665
       5     C     3.23875  3.23875  0.00000 -0.47750
       6     H     0.40067  0.40067  0.00000  0.19866
       7     H     0.40091  0.40091  0.00000  0.19818
       8     H     0.40994  0.40994  0.00000  0.18012
       9     H     0.41825  0.41825  0.00000  0.16350
      10     H     0.41003  0.41003  0.00000  0.17993
      11     C     3.00264  3.00264  0.00000 -0.00528
      12     C     3.24827  3.24827  0.00000 -0.49653
      13     H     0.41281  0.41281  0.00000  0.17439
      14     H     0.40693  0.40693  0.00000  0.18613
      15     H     0.41170  0.41170  0.00000  0.17660
      16     H     0.41644  0.41644  0.00000  0.16711
      17     H     0.41230  0.41230  0.00000  0.17541

   Total alpha = 28.00000, Total beta = 28.00000, Total charge =  0.00000
