  ==> Input File <==

--------------------------------------------------------------------------
set {
	reference rhf
	basis 6-31G*
}

set_num_threads( 1 )
memory 2 gb

molecule MOL {
0 1

H	 5.229035	 1.721906	 0.712828
C	 4.737229	 0.915409	 0.177840
C	 3.277600	 0.776412	 0.608351
H	 4.811141	 1.129656	 -0.884222
H	 5.293790	 0.002372	 0.371239
C	 2.555642	 -0.357665	 -0.122718
H	 2.759453	 1.712215	 0.425599
H	 3.234848	 0.597171	 1.681541
C	 1.097112	 -0.532807	 0.300699
H	 2.593432	 -0.183074	 -1.192172
H	 3.080394	 -1.291804	 0.064528
C	 0.169600	 0.576866	 -0.172154
H	 0.704110	 -1.461373	 -0.110499
H	 1.015183	 -0.631906	 1.380812
C	 -1.181045	 0.701995	 0.511084
O	 0.477833	 1.314309	 -1.059608
C	 -2.285934	 -0.139295	 -0.145128
H	 -1.449051	 1.751551	 0.493206
H	 -1.071135	 0.403303	 1.551943
C	 -3.651768	 0.085446	 0.506485
H	 -2.346596	 0.110469	 -1.202272
H	 -2.034737	 -1.195320	 -0.088721
C	 -4.759797	 -0.746382	 -0.137905
H	 -3.908762	 1.140117	 0.445781
H	 -3.588286	 -0.154158	 1.565709
H	 -4.868882	 -0.505166	 -1.191300
H	 -4.548009	 -1.809175	 -0.062213
H	 -5.715422	 -0.564821	 0.343442

	symmetry c1
}
set optking {
	frozen_dihedral = ("
		10 6 3 2,
		12 15 17 21
	")
}

ee = energy('scf')
oeprop('DIPOLE', 'QUADRUPOLE', 'MULLIKEN_CHARGES')
f=open( 'psi4out.xyz', 'w' )
f.write( "28  " )
f.write( str(ee) + "\n" )
f.write( MOL.save_string_xyz() )
f.close()
--------------------------------------------------------------------------

    Molecular point group: c1

    Geometry (in Angstrom), charge = 0, multiplicity = 1:

       Center              X                  Y                   Z               Mass
    ------------   -----------------  -----------------  -----------------  -----------------
           H          5.184494924445     1.460465736724     0.672660586423     1.007825032070
           C          4.692688924445     0.653968736724     0.137672586423    12.000000000000
           C          3.233059924445     0.514971736724     0.568183586423    12.000000000000
           H          4.766600924445     0.868215736724    -0.924389413577     1.007825032070
           H          5.249249924445    -0.259068263276     0.331071586423     1.007825032070
           C          2.511101924445    -0.619105263276    -0.162885413577    12.000000000000
           H          2.714912924445     1.450774736724     0.385431586423     1.007825032070
           H          3.190307924445     0.335730736724     1.641373586423     1.007825032070
           C          1.052571924445    -0.794247263276     0.260531586423    12.000000000000
           H          2.548891924445    -0.444514263276    -1.232339413577     1.007825032070
           H          3.035853924445    -1.553244263276     0.024360586423     1.007825032070
           C          0.125059924445     0.315425736724    -0.212321413577    12.000000000000
           H          0.659569924445    -1.722813263276    -0.150666413577     1.007825032070
           H          0.970642924445    -0.893346263276     1.340644586423     1.007825032070
           C         -1.225585075555     0.440554736724     0.470916586423    12.000000000000
           O          0.433292924445     1.052868736724    -1.099775413577    15.994914619560
           C         -2.330474075555    -0.400735263276    -0.185295413577    12.000000000000
           H         -1.493591075555     1.490110736724     0.453038586423     1.007825032070
           H         -1.115675075555     0.141862736724     1.511775586423     1.007825032070
           C         -3.696308075555    -0.175994263276     0.466317586423    12.000000000000
           H         -2.391136075555    -0.150971263276    -1.242439413577     1.007825032070
           H         -2.079277075555    -1.456760263276    -0.128888413577     1.007825032070
           C         -4.804337075555    -1.007822263276    -0.178072413577    12.000000000000
           H         -3.953302075555     0.878676736724     0.405613586423     1.007825032070
           H         -3.632826075555    -0.415598263276     1.525541586423     1.007825032070
           H         -4.913422075555    -0.766606263276    -1.231467413577     1.007825032070
           H         -4.592549075555    -2.070615263276    -0.102380413577     1.007825032070
           H         -5.759962075555    -0.826261263276     0.303274586423     1.007825032070

  Charge       = 0
  Multiplicity = 1
  Basis Set: 6-31G*
  Basis Set:

    Orbital Energies (a.u.)
    -----------------------

    Doubly Occupied:

       1A    -20.547630     2A    -11.322153     3A    -11.231440
       4A    -11.229806     5A    -11.228566     6A    -11.225064
       7A    -11.216311     8A    -11.215305     9A    -11.212259
      10A    -11.205667    11A     -1.393095    12A     -1.093008
      13A     -1.077680    14A     -1.022093    15A     -0.991002
      16A     -0.908742    17A     -0.870830    18A     -0.808643
      19A     -0.797894    20A     -0.723579    21A     -0.669592
      22A     -0.650964    23A     -0.626007    24A     -0.619888
      25A     -0.609070    26A     -0.589022    27A     -0.575549
      28A     -0.573287    29A     -0.542170    30A     -0.533171
      31A     -0.521509    32A     -0.506654    33A     -0.499507
      34A     -0.483126    35A     -0.476752    36A     -0.475334
      37A     -0.470841    38A     -0.464909    39A     -0.454656
      40A     -0.391823

  @DF-RHF Final Energy:  -426.16867549086578

   => Energetics <=

    Nuclear Repulsion Energy =            529.5321033321205277
    One-Electron Energy =               -1627.2921524589296496
    Two-Electron Energy =                 671.5913736359441373
    DFT Exchange-Correlation Energy =       0.0000000000000000
    Empirical Dispersion Energy =           0.0000000000000000
    PCM Polarization Energy =               0.0000000000000000
    EFP Energy =                            0.0000000000000000
    Total Energy =                       -426.1686754908648709

  Mulliken Charges: (a.u.)
   Center  Symbol    Alpha    Beta     Spin     Total
       1     H     0.41936  0.41936  0.00000  0.16127
       2     C     3.24010  3.24010  0.00000 -0.48020
       3     C     3.15626  3.15626  0.00000 -0.31253
       4     H     0.41832  0.41832  0.00000  0.16336
       5     H     0.42361  0.42361  0.00000  0.15278
       6     C     3.14935  3.14935  0.00000 -0.29871
       7     H     0.41054  0.41054  0.00000  0.17892
       8     H     0.42760  0.42760  0.00000  0.14481
       9     C     3.21128  3.21128  0.00000 -0.42255
      10     H     0.40662  0.40662  0.00000  0.18677
      11     H     0.42195  0.42195  0.00000  0.15611
      12     C     2.73693  2.73693  0.00000  0.52615
      13     H     0.40369  0.40369  0.00000  0.19263
      14     H     0.41261  0.41261  0.00000  0.17478
      15     C     3.19689  3.19689  0.00000 -0.39379
      16     O     4.26671  4.26671  0.00000 -0.53343
      17     C     3.16021  3.16021  0.00000 -0.32042
      18     H     0.40074  0.40074  0.00000  0.19853
      19     H     0.41719  0.41719  0.00000  0.16562
      20     C     3.15221  3.15221  0.00000 -0.30442
      21     H     0.40931  0.40931  0.00000  0.18138
      22     H     0.42001  0.42001  0.00000  0.15998
      23     C     3.24043  3.24043  0.00000 -0.48087
      24     H     0.41867  0.41867  0.00000  0.16267
      25     H     0.42194  0.42194  0.00000  0.15611
      26     H     0.41908  0.41908  0.00000  0.16185
      27     H     0.42122  0.42122  0.00000  0.15757
      28     H     0.41718  0.41718  0.00000  0.16565

   Total alpha = 40.00000, Total beta = 40.00000, Total charge =  0.00000
