  ==> Input File <==

--------------------------------------------------------------------------
set {
	reference rhf
	basis cc-pvtz
}

set_num_threads( 4 )
memory 2 gb

molecule MOL {
0 1

O	 0.758802	 2.028098	 -0.340340
C	 -0.205879	 2.224825	 -0.997416
C	 -1.464999	 1.396868	 -0.973611
O	 -0.303738	 3.223723	 -1.859393
C	 -1.413045	 0.229353	 0.001137
H	 -2.285470	 2.067557	 -0.740194
H	 -1.642989	 1.054529	 -1.987803
C	 -2.702562	 -0.586401	 0.000228
H	 -1.216551	 0.604566	 0.999208
H	 -0.573956	 -0.409760	 -0.249881
C	 -3.953810	 0.284959	 -0.000782
H	 -2.717793	 -1.238567	 -0.869075
H	 -2.719108	 -1.238472	 0.869576
H	 -3.983727	 0.924403	 -0.876454
H	 -4.852989	 -0.320147	 -0.001515
H	 -3.985140	 0.924399	 0.874841
C	 0.810252	 4.084358	 -1.984499
H	 1.028384	 4.565167	 -1.042443
H	 0.536476	 4.820075	 -2.723170
H	 1.681488	 3.535535	 -2.310022

	symmetry c1
}
set optking {
	frozen_dihedral = ("
		9 5 8 12
	")
}

ee = optimize('scf')
oeprop('DIPOLE', 'QUADRUPOLE', 'MULLIKEN_CHARGES')
f=open( 'psi4out.xyz', 'w' )
f.write( "20  " )
f.write( str(ee) + "\n" )
f.write( MOL.save_string_xyz() )
f.close()
--------------------------------------------------------------------------

    Molecular point group: c1
  Charge       = 0
  Multiplicity = 1
  Basis Set: CC-PVTZ
  Basis Set:
  @DF-RHF Final Energy:  -384.07790374722077
    Total Energy =                       -384.0779037472204891
    Molecular point group: c1
  Basis Set: CC-PVTZ
  Basis Set:
  Basis Set: CC-PVTZ
  Basis Set:
  @DF-RHF Final Energy:  -384.07915463396523
    Total Energy =                       -384.0791546339651177
  Basis Set: CC-PVTZ
  Basis Set:
  Basis Set: CC-PVTZ
  Basis Set:
  @DF-RHF Final Energy:  -384.08014856224077
    Total Energy =                       -384.0801485622407654
  Basis Set: CC-PVTZ
  Basis Set:
  Basis Set: CC-PVTZ
  Basis Set:
  @DF-RHF Final Energy:  -384.07939730544030
    Total Energy =                       -384.0793973054403523
  Basis Set: CC-PVTZ
  Basis Set:
  Basis Set: CC-PVTZ
  Basis Set:
  @DF-RHF Final Energy:  -384.08026193445710
    Total Energy =                       -384.0802619344573259
  Basis Set: CC-PVTZ
  Basis Set:
  Basis Set: CC-PVTZ
  Basis Set:
  @DF-RHF Final Energy:  -384.08027853106228
    Total Energy =                       -384.0802785310626177
  Basis Set: CC-PVTZ
  Basis Set:
  Basis Set: CC-PVTZ
  Basis Set:
  @DF-RHF Final Energy:  -384.08027996790452
    Total Energy =                       -384.0802799679046302
  Basis Set: CC-PVTZ
  Basis Set:
  Charge       = 0
  Multiplicity = 1
  Basis Set: CC-PVTZ
  Basis Set:

    Orbital Energies (a.u.)
    -----------------------

    Doubly Occupied:

       1A    -20.596251     2A    -20.534155     3A    -11.364636
       4A    -11.278449     5A    -11.233566     6A    -11.218536
       7A    -11.217301     8A    -11.211258     9A     -1.472204
      10A     -1.365804    11A     -1.089317    12A     -1.023375
      13A     -0.968563    14A     -0.898013    15A     -0.799710
      16A     -0.764640    17A     -0.703894    18A     -0.686009
      19A     -0.675735    20A     -0.637829    21A     -0.609492
      22A     -0.594679    23A     -0.570024    24A     -0.550064
      25A     -0.539001    26A     -0.524251    27A     -0.511262
      28A     -0.474621    29A     -0.470642    30A     -0.467614
      31A     -0.458371    32A     -0.441079

  @DF-RHF Final Energy:  -384.08028007437241

   => Energetics <=

    Nuclear Repulsion Energy =            385.7710002059139356
    One-Electron Energy =               -1287.8018713943470175
    Two-Electron Energy =                 517.9505911140605576
    DFT Exchange-Correlation Energy =       0.0000000000000000
    Empirical Dispersion Energy =           0.0000000000000000
    PCM Polarization Energy =               0.0000000000000000
    EFP Energy =                            0.0000000000000000
    Total Energy =                       -384.0802800743725811
    Molecular point group: c1
  Basis Set: CC-PVTZ
  Basis Set:

  -Total Gradient:
     Atom            X                  Y                   Z
    ------   -----------------  -----------------  -----------------
       1        0.000000877304    -0.000002626624     0.000000929948
       2       -0.000003523539     0.000004150272     0.000009814918
       3        0.000005025755    -0.000009161409    -0.000008664308
       4        0.000003521066     0.000000959394    -0.000008403491
       5       -0.002350498807     0.003327058957    -0.000485894063
       6       -0.000000113905     0.000001104611     0.000003703402
       7       -0.000003581485     0.000002833329     0.000001054929
       8       -0.001833655979     0.002704354163    -0.002366229835
       9        0.002251555743    -0.003221635207     0.000781217000
      10        0.000005869615    -0.000001953440    -0.000001291761
      11       -0.000004663047     0.000002786374     0.000000734710
      12        0.001932419378    -0.002807309854     0.002072991278
      13        0.000001681268    -0.000002257072     0.000000249643
      14       -0.000000920093     0.000000634037     0.000000488180
      15       -0.000002831662    -0.000000921170    -0.000000298891
      16       -0.000000894394     0.000000568349    -0.000000737140
      17        0.000001229215     0.000001875113     0.000000977282
      18        0.000000039552     0.000000278977    -0.000000314528
      19       -0.000001263441    -0.000000757698    -0.000000103523
      20       -0.000000272541     0.000000018897    -0.000000223751

  **** Optimization is complete! (in 8 steps) ****
    Final optimized geometry and variables:
    Molecular point group: c1

    Geometry (in Angstrom), charge = 0, multiplicity = 1:

    O            1.809357246915     0.366492426909     0.434670309007
    C            0.851260267138     0.599053125058    -0.220186157279
    C           -0.442014895336    -0.175157501313    -0.190119034558
    O            0.791235775066     1.597944688996    -1.085944981291
    C           -0.426163536009    -1.339233522310     0.790040902207
    H           -1.227857294631     0.535499367813     0.035681298332
    H           -0.633358402284    -0.517322019222    -1.202501047094
    C           -1.675417535844    -2.224825520048     0.750716725855
    H           -0.261908000876    -0.977682551902     1.799070191253
    H            0.436938918316    -1.957999628444     0.574132782196
    C           -3.011040694003    -1.492190569094     0.833279691225
    H           -1.644579614484    -2.855546729094    -0.133591288956
    H           -1.608250854226    -2.913617819619     1.587390389375
    H           -3.194881793818    -0.877866632321    -0.040204318457
    H           -3.829120621346    -2.198715865186     0.909984287779
    H           -3.050218621720    -0.847933309194     1.706063682386
    C            1.938741604739     2.412122440664    -1.217852469629
    H            2.178851763479     2.887877092761    -0.278574554064
    H            1.692949111577     3.155097606788    -1.959117211999
    H            2.786169756665     1.827084570078    -1.543193847561

  Mulliken Charges: (a.u.)
   Center  Symbol    Alpha    Beta     Spin     Total
       1     O     4.19648  4.19648  0.00000 -0.39295
       2     C     2.80755  2.80755  0.00000  0.38491
       3     C     3.10178  3.10178  0.00000 -0.20357
       4     O     4.14684  4.14684  0.00000 -0.29368
       5     C     3.09021  3.09021  0.00000 -0.18043
       6     H     0.43775  0.43775  0.00000  0.12450
       7     H     0.43927  0.43927  0.00000  0.12146
       8     C     3.09321  3.09321  0.00000 -0.18642
       9     H     0.44523  0.44523  0.00000  0.10954
      10     H     0.44234  0.44234  0.00000  0.11532
      11     C     3.15682  3.15682  0.00000 -0.31365
      12     H     0.45240  0.45240  0.00000  0.09520
      13     H     0.44788  0.44788  0.00000  0.10424
      14     H     0.45338  0.45338  0.00000  0.09324
      15     H     0.44437  0.44437  0.00000  0.11126
      16     H     0.45266  0.45266  0.00000  0.09468
      17     C     3.03795  3.03795  0.00000 -0.07590
      18     H     0.45438  0.45438  0.00000  0.09124
      19     H     0.44522  0.44522  0.00000  0.10956
      20     H     0.45428  0.45428  0.00000  0.09144

   Total alpha = 32.00000, Total beta = 32.00000, Total charge = -0.00000
