  ==> Input File <==

--------------------------------------------------------------------------
set {
	reference rhf
	basis 6-31G*
}

set_num_threads( 4 )
memory 2 gb

molecule MOL {
0 1

H	 -3.261111	 -0.295142	 1.469456
C	 -3.306842	 -0.277400	 0.373456
C	 -2.660244	 0.921717	 -0.272021
O	 -3.838538	 -1.161155	 -0.216482
C	 -1.220012	 1.144545	 0.209990
H	 -2.705793	 0.797307	 -1.347733
H	 -3.263782	 1.790044	 -0.010477
C	 -0.252658	 0.041456	 -0.226725
H	 -0.873521	 2.100229	 -0.171974
H	 -1.211708	 1.231594	 1.295398
C	 1.180775	 0.282413	 0.250794
H	 -0.266029	 -0.034465	 -1.312038
H	 -0.597733	 -0.921000	 0.146291
C	 2.148627	 -0.814315	 -0.201312
H	 1.516199	 1.249228	 -0.115937
H	 1.192670	 0.346017	 1.338083
C	 3.580890	 -0.659131	 0.322722
H	 2.166869	 -0.852443	 -1.289387
H	 1.762857	 -1.776509	 0.128956
C	 4.387242	 -1.958280	 0.363082
H	 3.535616	 -0.246472	 1.327516
H	 4.108355	 0.075197	 -0.282641
H	 3.875307	 -2.717215	 0.948921
H	 4.555084	 -2.363556	 -0.629165
H	 5.360456	 -1.793397	 0.815481

	symmetry c1
}
set optking {
	frozen_dihedral = ("
		20 17 14 18
	")
}

ee = optimize('scf')
oeprop('DIPOLE', 'QUADRUPOLE', 'MULLIKEN_CHARGES')
f=open( 'psi4out.xyz', 'w' )
f.write( "25  " )
f.write( str(ee) + "\n" )
f.write( MOL.save_string_xyz() )
f.close()
--------------------------------------------------------------------------

    Molecular point group: c1
  Charge       = 0
  Multiplicity = 1
  Basis Set: 6-31G*
  Basis Set:
  @DF-RHF Final Energy:  -387.12145146929981
    Total Energy =                       -387.1214514693000410
    Molecular point group: c1
  Basis Set: 6-31G*
  Basis Set:
  Basis Set: 6-31G*
  Basis Set:
  @DF-RHF Final Energy:  -387.12188219423797
    Total Energy =                       -387.1218821942380828
  Basis Set: 6-31G*
  Basis Set:
  Basis Set: 6-31G*
  Basis Set:
  @DF-RHF Final Energy:  -387.11791419711420
    Total Energy =                       -387.1179141971146009
  Basis Set: 6-31G*
  Basis Set:
  Basis Set: 6-31G*
  Basis Set:
  @DF-RHF Final Energy:  -387.12197529382240
    Total Energy =                       -387.1219752938221745
  Basis Set: 6-31G*
  Basis Set:
  @DF-RHF Final Energy:  -387.12207914045581
    Total Energy =                       -387.1220791404555257
  @DF-RHF Final Energy:  -387.12210876535289
    Total Energy =                       -387.1221087653528912
  Basis Set: 6-31G*
  Basis Set:
  @DF-RHF Final Energy:  -387.12210657688951
    Total Energy =                       -387.1221065768899052
  Basis Set: 6-31G*
  Basis Set:
  Basis Set: 6-31G*
  Basis Set:
  @DF-RHF Final Energy:  -387.12209841487430
    Total Energy =                       -387.1220984148744719
  Basis Set: 6-31G*
  Basis Set:
  Basis Set: 6-31G*
  Basis Set:
  @DF-RHF Final Energy:  -387.12211208946638
    Total Energy =                       -387.1221120894660999
  Basis Set: 6-31G*
  Basis Set:
  Charge       = 0
  Multiplicity = 1
  Basis Set: 6-31G*
  Basis Set:

    Orbital Energies (a.u.)
    -----------------------

    Doubly Occupied:

       1A    -20.562022     2A    -11.326175     3A    -11.235359
       4A    -11.234670     5A    -11.223870     6A    -11.220200
       7A    -11.217664     8A    -11.216718     9A    -11.210248
      10A     -1.401963    11A     -1.103826    12A     -1.069622
      13A     -1.014975    14A     -0.943570    15A     -0.867913
      16A     -0.814414    17A     -0.794086    18A     -0.787054
      19A     -0.664976    20A     -0.664103    21A     -0.638483
      22A     -0.616824    23A     -0.603424    24A     -0.594127
      25A     -0.568964    26A     -0.549398    27A     -0.540352
      28A     -0.522288    29A     -0.505208    30A     -0.498888
      31A     -0.488891    32A     -0.477186    33A     -0.466708
      34A     -0.463861    35A     -0.439696    36A     -0.409554

  @DF-RHF Final Energy:  -387.12211200292694

   => Energetics <=

    Nuclear Repulsion Energy =            435.4852971408839153
    One-Electron Energy =               -1387.3002604964144666
    Two-Electron Energy =                 564.6928513526033839
    DFT Exchange-Correlation Energy =       0.0000000000000000
    Empirical Dispersion Energy =           0.0000000000000000
    PCM Polarization Energy =               0.0000000000000000
    EFP Energy =                            0.0000000000000000
    Total Energy =                       -387.1221120029272242
    Molecular point group: c1
  Basis Set: 6-31G*
  Basis Set:

  -Total Gradient:
     Atom            X                  Y                   Z
    ------   -----------------  -----------------  -----------------
       1        0.000016050125     0.000000504376     0.000002934220
       2       -0.000037235458     0.000028965120     0.000026169843
       3       -0.000003976665    -0.000016449605     0.000004175001
       4        0.000016492046     0.000001748316    -0.000018264190
       5       -0.000002789088    -0.000013117648     0.000015201799
       6        0.000006227483    -0.000003731281    -0.000001535678
       7        0.000000987881    -0.000008216835     0.000000628193
       8        0.000009386742     0.000034875687    -0.000044811460
       9       -0.000015274140     0.000004045180    -0.000009936993
      10        0.000006439136    -0.000000113122    -0.000002550857
      11       -0.000024247756    -0.000030114507     0.000051798076
      12        0.000004763534    -0.000000331448    -0.000009740534
      13        0.000007341837     0.000006104876    -0.000001102625
      14        0.000419250090    -0.004722639943     0.001273438607
      15       -0.000013667977    -0.000014210846    -0.000008460370
      16        0.000004409459     0.000013000450     0.000013018788
      17        0.000887632404     0.001471566817    -0.003655441686
      18       -0.000563510646     0.003684746261    -0.000215405898
      19        0.000006382456     0.000007482512    -0.000002515877
      20       -0.000724654441    -0.000440260092     0.002591139770
      21        0.000003402601     0.000012669114    -0.000000374548
      22       -0.000003620861    -0.000012902508    -0.000003580128
      23       -0.000009528285     0.000007006670    -0.000007807028
      24        0.000008374251    -0.000002643286    -0.000004685378
      25        0.000001365283    -0.000007984256     0.000007708954

  **** Optimization is complete! (in 10 steps) ****
    Final optimized geometry and variables:
    Molecular point group: c1

    Geometry (in Angstrom), charge = 0, multiplicity = 1:

    H           -3.316317352985     0.010544769768     1.356957912726
    C           -3.334856688953     0.046885023744     0.260524064652
    C           -2.648985950702     1.243008751393    -0.349055894623
    O           -3.874518494587    -0.813466471553    -0.356249874050
    C           -1.214651964224     1.425292725760     0.166663010770
    H           -2.674363314114     1.138804169932    -1.427631022087
    H           -3.239045931203     2.119481745593    -0.084277135213
    C           -0.260333124871     0.312998430886    -0.275598526051
    H           -0.841097641078     2.382399573914    -0.185630699526
    H           -1.227029399559     1.487127671741     1.253570323333
    C            1.168146809602     0.516491451764     0.231616161308
    H           -0.255894810840     0.259884214309    -1.362298451937
    H           -0.629839841458    -0.650433993441     0.071195440500
    C            2.127276762363    -0.595412790640    -0.202445251123
    H            1.543120375484     1.474528534468    -0.125380980379
    H            1.159511179807     0.579249097040     1.318415347658
    C            3.571923159540    -0.348433102522     0.249922482884
    H            2.098341098333    -0.663276681615    -1.288112458210
    H            1.773615371802    -1.547348838657     0.186954326994
    C            4.420489341826    -1.619552848930     0.274502930402
    H            3.565954239146     0.080996467774     1.249804122491
    H            4.032844945769     0.395011902300    -0.395461931197
    H            4.012848640788    -2.342806579925     0.974581007623
    H            4.455640148781    -2.091713264439    -0.703649900861
    H            5.441786081843    -1.406050335085     0.574541390472

  Mulliken Charges: (a.u.)
   Center  Symbol    Alpha    Beta     Spin     Total
       1     H     0.43262  0.43262  0.00000  0.13476
       2     C     2.83082  2.83082  0.00000  0.33835
       3     C     3.20814  3.20814  0.00000 -0.41628
       4     O     4.23775  4.23775  0.00000 -0.47551
       5     C     3.16661  3.16661  0.00000 -0.33323
       6     H     0.39972  0.39972  0.00000  0.20056
       7     H     0.40661  0.40661  0.00000  0.18679
       8     C     3.15510  3.15510  0.00000 -0.31020
       9     H     0.41281  0.41281  0.00000  0.17439
      10     H     0.41961  0.41961  0.00000  0.16079
      11     C     3.15351  3.15351  0.00000 -0.30702
      12     H     0.41815  0.41815  0.00000  0.16370
      13     H     0.41842  0.41842  0.00000  0.16317
      14     C     3.15187  3.15187  0.00000 -0.30374
      15     H     0.42295  0.42295  0.00000  0.15409
      16     H     0.42328  0.42328  0.00000  0.15344
      17     C     3.15261  3.15261  0.00000 -0.30521
      18     H     0.42176  0.42176  0.00000  0.15648
      19     H     0.42148  0.42148  0.00000  0.15704
      20     C     3.23959  3.23959  0.00000 -0.47918
      21     H     0.42328  0.42328  0.00000  0.15344
      22     H     0.42134  0.42134  0.00000  0.15732
      23     H     0.42122  0.42122  0.00000  0.15757
      24     H     0.42127  0.42127  0.00000  0.15747
      25     H     0.41949  0.41949  0.00000  0.16101

   Total alpha = 36.00000, Total beta = 36.00000, Total charge = -0.00000
