  ==> Input File <==

--------------------------------------------------------------------------
set {
	reference rhf
	basis cc-pvtz
}

set_num_threads( 4 )
memory 2 gb

molecule MOL {
0 1

H	 -1.752232	 -2.214755	 -0.011938
C	 -1.343852	 -1.221619	 -0.018179
N	 -0.058800	 -1.097635	 -0.261688
C	 -2.148159	 -0.124236	 0.219734
C	 0.449026	 0.119242	 -0.273393
H	 -3.196988	 -0.237571	 0.417076
N	 -1.655094	 1.094230	 0.209506
C	 -0.370318	 1.215445	 -0.035100
C	 1.924033	 0.265863	 -0.538106
H	 0.033214	 2.210441	 -0.046812
C	 2.431133	 -0.707301	 -1.603587
H	 2.109460	 1.282849	 -0.862325
H	 2.471326	 0.117979	 0.385374
H	 3.486519	 -0.548694	 -1.790505
H	 1.895875	 -0.566786	 -2.533498
H	 2.296622	 -1.735930	 -1.288348

	symmetry c1
}
set optking {
	frozen_dihedral = ("
		12 9 5 3
	")
}

ee = optimize('scf')
oeprop('DIPOLE', 'QUADRUPOLE', 'MULLIKEN_CHARGES')
f=open( 'psi4out.xyz', 'w' )
f.write( "16  " )
f.write( str(ee) + "\n" )
f.write( MOL.save_string_xyz() )
f.close()
--------------------------------------------------------------------------

    Molecular point group: c1
  Charge       = 0
  Multiplicity = 1
  Basis Set: CC-PVTZ
  Basis Set:
  @DF-RHF Final Energy:  -340.87124643295334
    Total Energy =                       -340.8712464329533987
    Molecular point group: c1
  Basis Set: CC-PVTZ
  Basis Set:
  Basis Set: CC-PVTZ
  Basis Set:
  @DF-RHF Final Energy:  -340.87147532590330
    Total Energy =                       -340.8714753259030772
  Basis Set: CC-PVTZ
  Basis Set:
  Basis Set: CC-PVTZ
  Basis Set:
  @DF-RHF Final Energy:  -340.87150540835211
    Total Energy =                       -340.8715054083519362
  Basis Set: CC-PVTZ
  Basis Set:
  Basis Set: CC-PVTZ
  Basis Set:
  @DF-RHF Final Energy:  -340.87151198127555
    Total Energy =                       -340.8715119812755461
  Basis Set: CC-PVTZ
  Basis Set:
  Basis Set: CC-PVTZ
  Basis Set:
  @DF-RHF Final Energy:  -340.87151516742694
    Total Energy =                       -340.8715151674269350
  Basis Set: CC-PVTZ
  Basis Set:
  Charge       = 0
  Multiplicity = 1
  Basis Set: CC-PVTZ
  Basis Set:

    Orbital Energies (a.u.)
    -----------------------

    Doubly Occupied:

       1A    -15.580586     2A    -15.575550     3A    -11.279491
       4A    -11.272173     5A    -11.268566     6A    -11.267389
       7A    -11.232786     8A    -11.212153     9A     -1.316135
      10A     -1.224154    11A     -1.085133    12A     -1.014980
      13A     -0.910383    14A     -0.892073    15A     -0.826635
      16A     -0.720275    17A     -0.710387    18A     -0.659052
      19A     -0.624488    20A     -0.603722    21A     -0.574410
      22A     -0.561608    23A     -0.523128    24A     -0.504535
      25A     -0.501921    26A     -0.488071    27A     -0.434011
      28A     -0.397287    29A     -0.346553

  @DF-RHF Final Energy:  -340.87151604220224

   => Energetics <=

    Nuclear Repulsion Energy =            350.4309145898401425
    One-Electron Energy =               -1155.3895943599468410
    Two-Electron Energy =                 464.0871637279046809
    DFT Exchange-Correlation Energy =       0.0000000000000000
    Empirical Dispersion Energy =           0.0000000000000000
    PCM Polarization Energy =               0.0000000000000000
    EFP Energy =                            0.0000000000000000
    Total Energy =                       -340.8715160422020745
    Molecular point group: c1
  Basis Set: CC-PVTZ
  Basis Set:

  -Total Gradient:
     Atom            X                  Y                   Z
    ------   -----------------  -----------------  -----------------
       1       -0.000040687484     0.000011214551    -0.000023224209
       2       -0.000030656940    -0.000053878534     0.000082524595
       3       -0.000162740305     0.000097637595    -0.000833479965
       4       -0.000024757894     0.000037534793    -0.000018485317
       5        0.000226982708    -0.000038708003     0.000852740743
       6        0.000003400627    -0.000018821238     0.000015743042
       7       -0.000073884337    -0.000045779864    -0.000004590266
       8        0.000032888449    -0.000011022413     0.000005101033
       9        0.000087630688     0.000182829555     0.000777955635
      10       -0.000005329246    -0.000027268481     0.000018489409
      11        0.000006640311     0.000217386863     0.000004695208
      12       -0.000098762191    -0.000267553263    -0.000911547195
      13        0.000063448618     0.000031473141     0.000006093979
      14        0.000011306994    -0.000047774850    -0.000038304860
      15        0.000001560306    -0.000013387564     0.000017948459
      16        0.000002959696    -0.000053882289     0.000048339711

  **** Optimization is complete! (in 6 steps) ****
    Final optimized geometry and variables:
    Molecular point group: c1

    Geometry (in Angstrom), charge = 0, multiplicity = 1:

    H           -1.730375080803    -2.140008250173     0.299297539631
    C           -1.314043430092    -1.150346397568     0.294778036323
    N           -0.029313234061    -1.036335012826     0.030465648541
    C           -2.102514812199    -0.050329160386     0.553664815161
    C            0.490802315859     0.171791485831     0.021607357887
    H           -3.148795829829    -0.154068054272     0.768042739368
    N           -1.596853863149     1.165839183875     0.542588436615
    C           -0.317898627784     1.275790515263     0.278360268158
    C            1.966872761648     0.331745429171    -0.251327771430
    H            0.095132418038     2.266978728419     0.264288402490
    C            2.515990256037    -0.636616175986    -1.294632866264
    H            2.151923854417     1.351470959524    -0.568495257098
    H            2.503158846525     0.196951977430     0.683730288534
    H            3.573872832806    -0.458888626182    -1.447068675560
    H            2.012606128280    -0.509488564899    -2.246062167031
    H            2.381969196156    -1.662153449981    -0.982385401923

  Mulliken Charges: (a.u.)
   Center  Symbol    Alpha    Beta     Spin     Total
       1     H     0.41450  0.41450  0.00000  0.17100
       2     C     3.04345  3.04345  0.00000 -0.08690
       3     N     3.59208  3.59208  0.00000 -0.18416
       4     C     3.04772  3.04772  0.00000 -0.09544
       5     C     2.94364  2.94364  0.00000  0.11272
       6     H     0.41367  0.41367  0.00000  0.17265
       7     N     3.58674  3.58674  0.00000 -0.17347
       8     C     3.07713  3.07713  0.00000 -0.15426
       9     C     3.07646  3.07646  0.00000 -0.15293
      10     H     0.41660  0.41660  0.00000  0.16679
      11     C     3.14476  3.14476  0.00000 -0.28953
      12     H     0.44890  0.44890  0.00000  0.10220
      13     H     0.44730  0.44730  0.00000  0.10541
      14     H     0.45029  0.45029  0.00000  0.09943
      15     H     0.45354  0.45354  0.00000  0.09293
      16     H     0.44322  0.44322  0.00000  0.11357

   Total alpha = 29.00000, Total beta = 29.00000, Total charge = -0.00000
