  ==> Input File <==

--------------------------------------------------------------------------
set {
	reference rhf
	basis 6-31G*
}

set_num_threads( 4 )
memory 2 gb

molecule MOL {
0 1

O	 -2.439739	 -0.935931	 -0.423848
C	 -1.921153	 0.064240	 -0.045697
C	 -2.624470	 1.379923	 0.150949
O	 -0.632575	 0.154573	 0.251549
H	 -2.168117	 2.136577	 -0.476876
H	 -3.669540	 1.273223	 -0.098610
H	 -2.519365	 1.700893	 1.180846
C	 0.160891	 -1.019931	 0.106212
C	 1.589627	 -0.672828	 0.480843
H	 0.089836	 -1.367806	 -0.916050
H	 -0.238459	 -1.792301	 0.749618
C	 2.246377	 0.346236	 -0.452210
H	 2.163194	 -1.597435	 0.473358
H	 1.604769	 -0.303424	 1.502885
C	 1.926289	 0.085407	 -1.923439
H	 1.913798	 1.346349	 -0.181537
H	 3.321230	 0.327174	 -0.304946
H	 2.403759	 0.820008	 -2.564076
H	 0.856657	 0.131034	 -2.108058
H	 2.272893	 -0.896893	 -2.231712

	symmetry c1
}
set optking {
	frozen_dihedral = ("
		16 12 9 8
	")
}

ee = optimize('scf')
oeprop('DIPOLE', 'QUADRUPOLE', 'MULLIKEN_CHARGES')
f=open( 'psi4out.xyz', 'w' )
f.write( "20  " )
f.write( str(ee) + "\n" )
f.write( MOL.save_string_xyz() )
f.close()
--------------------------------------------------------------------------

    Molecular point group: c1
  Charge       = 0
  Multiplicity = 1
  Basis Set: 6-31G*
  Basis Set:
  @DF-RHF Final Energy:  -383.94112839030885
    Total Energy =                       -383.9411283903091316
    Molecular point group: c1
  Basis Set: 6-31G*
  Basis Set:
  Basis Set: 6-31G*
  Basis Set:
  @DF-RHF Final Energy:  -383.94233727736440
    Total Energy =                       -383.9423372773641177
  Basis Set: 6-31G*
  Basis Set:
  Basis Set: 6-31G*
  Basis Set:
  @DF-RHF Final Energy:  -383.94291430351535
    Total Energy =                       -383.9429143035156358
  Basis Set: 6-31G*
  Basis Set:
  Basis Set: 6-31G*
  Basis Set:
  @DF-RHF Final Energy:  -383.94287367744755
    Total Energy =                       -383.9428736774474373
  Basis Set: 6-31G*
  Basis Set:
  Basis Set: 6-31G*
  Basis Set:
  @DF-RHF Final Energy:  -383.94304984053434
    Total Energy =                       -383.9430498405338312
  Basis Set: 6-31G*
  Basis Set:
  Basis Set: 6-31G*
  Basis Set:
  @DF-RHF Final Energy:  -383.94305992539114
    Total Energy =                       -383.9430599253911396
  Basis Set: 6-31G*
  Basis Set:
  Charge       = 0
  Multiplicity = 1
  Basis Set: 6-31G*
  Basis Set:

    Orbital Energies (a.u.)
    -----------------------

    Doubly Occupied:

       1A    -20.601683     2A    -20.544094     3A    -11.374465
       4A    -11.281359     5A    -11.233417     6A    -11.225900
       7A    -11.221206     8A    -11.213285     9A     -1.467691
      10A     -1.362014    11A     -1.085200    12A     -1.026355
      13A     -0.978956    14A     -0.892551    15A     -0.805694
      16A     -0.768013    17A     -0.690313    18A     -0.688209
      19A     -0.663815    20A     -0.624683    21A     -0.616854
      22A     -0.578386    23A     -0.572390    24A     -0.562682
      25A     -0.536796    26A     -0.528655    27A     -0.521785
      28A     -0.477641    29A     -0.474294    30A     -0.469223
      31A     -0.450171    32A     -0.438382

  @DF-RHF Final Energy:  -383.94306006442935

   => Energetics <=

    Nuclear Repulsion Energy =            393.4357113590124300
    One-Electron Energy =               -1302.8052219552871520
    Two-Electron Energy =                 525.4264505318454894
    DFT Exchange-Correlation Energy =       0.0000000000000000
    Empirical Dispersion Energy =           0.0000000000000000
    PCM Polarization Energy =               0.0000000000000000
    EFP Energy =                            0.0000000000000000
    Total Energy =                       -383.9430600644292326
    Molecular point group: c1
  Basis Set: 6-31G*
  Basis Set:

  -Total Gradient:
     Atom            X                  Y                   Z
    ------   -----------------  -----------------  -----------------
       1        0.000042573057     0.000024315635    -0.000075463231
       2       -0.000067191949    -0.000002816595     0.000151337476
       3        0.000000521442     0.000003658557    -0.000031646866
       4       -0.000033592903    -0.000036311868    -0.000064719331
       5       -0.000008106986     0.000024610481    -0.000007985246
       6        0.000000125471     0.000002243343    -0.000004087068
       7        0.000012372907    -0.000021668154    -0.000011608805
       8        0.000851226876    -0.002050326964    -0.001585283812
       9       -0.000497256728     0.002988909490     0.002938994557
      10       -0.000018725463    -0.000050635822    -0.000039404316
      11        0.000028894154     0.000057378569    -0.000049364085
      12       -0.003335859372    -0.001176549378    -0.003659499409
      13        0.000083580875     0.000003977163     0.000036061039
      14       -0.000010018838     0.000024484811    -0.000030183858
      15       -0.000054814761    -0.000034533157     0.000032169627
      16        0.002991628723     0.000241659214     0.002413373272
      17       -0.000021491382    -0.000019979100    -0.000014298943
      18        0.000004597841    -0.000003659032     0.000018196149
      19        0.000036091846     0.000049051621    -0.000009724664
      20       -0.000004554807    -0.000023808816    -0.000006862487

  **** Optimization is complete! (in 7 steps) ****
    Final optimized geometry and variables:
    Molecular point group: c1

    Geometry (in Angstrom), charge = 0, multiplicity = 1:

    O           -2.244803385689    -0.892941782244    -0.067548551816
    C           -1.704800021086     0.125661779035     0.221003226534
    C           -2.391524328701     1.457746844267     0.357397944630
    O           -0.405370028253     0.222926968967     0.463781776568
    H           -1.955111671667     2.167581767258    -0.335875763176
    H           -3.446169626068     1.344218039290     0.155663262899
    H           -2.244246811727     1.844386950616     1.359190766516
    C            0.373985041734    -0.967185289049     0.371678233984
    C            1.815761406892    -0.613524126800     0.686822592854
    H            0.264262157688    -1.383730139061    -0.619024631301
    H           -0.008778928131    -1.691544892330     1.077854385197
    C            2.463960556781     0.428929122779    -0.236737961520
    H            2.379800499506    -1.542867857694     0.631150027769
    H            1.881455890486    -0.272007655261     1.715278828089
    C            2.216361742643     0.224768367379    -1.730604326019
    H            2.150384286508     1.423318866484     0.065293802095
    H            3.535660014882     0.400144079877    -0.054299604518
    H            2.799579703189     0.932064094133    -2.311426775918
    H            1.173756314297     0.371252934616    -1.990807183609
    H            2.503084071297    -0.774797910445    -2.047010012510

  Mulliken Charges: (a.u.)
   Center  Symbol    Alpha    Beta     Spin     Total
       1     O     4.28321  4.28321  0.00000 -0.56641
       2     C     2.61958  2.61958  0.00000  0.76084
       3     C     3.28170  3.28170  0.00000 -0.56340
       4     O     4.30896  4.30896  0.00000 -0.61791
       5     H     0.40079  0.40079  0.00000  0.19842
       6     H     0.39689  0.39689  0.00000  0.20623
       7     H     0.40057  0.40057  0.00000  0.19886
       8     C     3.00549  3.00549  0.00000 -0.01098
       9     C     3.16684  3.16684  0.00000 -0.33367
      10     H     0.40807  0.40807  0.00000  0.18386
      11     H     0.40798  0.40798  0.00000  0.18404
      12     C     3.15171  3.15171  0.00000 -0.30342
      13     H     0.41872  0.41872  0.00000  0.16256
      14     H     0.41301  0.41301  0.00000  0.17398
      15     C     3.24613  3.24613  0.00000 -0.49227
      16     H     0.41450  0.41450  0.00000  0.17099
      17     H     0.42027  0.42027  0.00000  0.15946
      18     H     0.41691  0.41691  0.00000  0.16618
      19     H     0.41690  0.41690  0.00000  0.16621
      20     H     0.42179  0.42179  0.00000  0.15642

   Total alpha = 32.00000, Total beta = 32.00000, Total charge =  0.00000
