                              Psi4 1.0.54 Driver

  ==> Input File <==

--------------------------------------------------------------------------
set {
	reference rhf
	basis cc-pvtz
}

set_num_threads( 4 )
memory 2 gb

molecule MOL {
0 1

H	 -0.989351	 0.161108	 1.390524
C	 -0.020079	 0.575473	 1.137595
N	 0.526300	 -0.128137	 0.000000
H	 0.626934	 0.444653	 1.995674
H	 -0.151916	 1.646351	 0.969036
C	 -0.247113	 0.037112	 -1.209233
H	 1.468047	 0.158508	 -0.156862
H	 -0.996493	 -0.743733	 -1.271440
H	 0.397975	 -0.057351	 -2.073512
H	 -0.763794	 0.997171	 -1.271673

	symmetry c1
}
set optking {
	frozen_dihedral = ("
		2 3 6 8
	")
}

ee,wfn = optimize('scf', return_wfn=True)
oeprop( wfn, 'DIPOLE', 'QUADRUPOLE', 'MULLIKEN_CHARGES')
f=open( 'psi4out.xyz', 'w' )
f.write( "10  " )
f.write( str(ee) + "\n" )
f.write( MOL.save_string_xyz() )
f.close()
--------------------------------------------------------------------------

    Molecular point group: c1
  Charge       = 0
  Multiplicity = 1
  Basis Set: CC-PVTZ
  Basis Set:
  @DF-RHF Final Energy:  -134.29104797159360
    Total Energy =                       -134.2910479715935708
    Molecular point group: c1
  Basis Set: CC-PVTZ
  Basis Set:
  Basis Set: CC-PVTZ
  Basis Set:
  @DF-RHF Final Energy:  -134.29120690148102
    Total Energy =                       -134.2912069014809902
  Basis Set: CC-PVTZ
  Basis Set:
  Basis Set: CC-PVTZ
  Basis Set:
  @DF-RHF Final Energy:  -134.29122727416720
    Total Energy =                       -134.2912272741672268
  Basis Set: CC-PVTZ
  Basis Set:
  Charge       = 0
  Multiplicity = 1
  Basis Set: CC-PVTZ
  Basis Set:

    Orbital Energies (a.u.)
    -----------------------

    Doubly Occupied:

       1A    -15.532353     2A    -11.234316     3A    -11.234202
       4A     -1.199854     5A     -0.948598     6A     -0.854241
       7A     -0.661261     8A     -0.614968     9A     -0.591343
      10A     -0.542125    11A     -0.508091    12A     -0.505172
      13A     -0.364978

  @DF-RHF Final Energy:  -134.29122800594325

   => Energetics <=

    Nuclear Repulsion Energy =             84.6351347165123684
    One-Electron Energy =                -348.2697224258049005
    Two-Electron Energy =                 129.3433597033492788
    DFT Exchange-Correlation Energy =       0.0000000000000000
    Empirical Dispersion Energy =           0.0000000000000000
    PCM Polarization Energy =               0.0000000000000000
    EFP Energy =                            0.0000000000000000
    Total Energy =                       -134.2912280059432533
    Molecular point group: c1
  Basis Set: CC-PVTZ
  Basis Set:

  -Total Gradient:
     Atom            X                  Y                   Z
    ------   -----------------  -----------------  -----------------
       1        0.000011832474    -0.000004626770    -0.000009302027
       2        0.001664904116     0.002297283209    -0.000783050655
       3       -0.001646550558    -0.003809194051     0.000497299229
       4       -0.000000111539     0.000002611673     0.000015740926
       5       -0.000020571586     0.000011183952     0.000003052018
       6       -0.002455251640     0.003727870527     0.002169912500
       7       -0.000031795371    -0.000020545231     0.000033086284
       8        0.002477920073    -0.002200772248    -0.001881278337
       9        0.000003407542    -0.000006416289    -0.000024528603
      10       -0.000003783514     0.000002605228    -0.000020931334

  **** Optimization is complete! (in 4 steps) ****
    Final optimized geometry and variables:
    Molecular point group: c1

    Geometry (in Angstrom), charge = 0, multiplicity = 1:

    H           -1.067715900356    -0.016892547481     1.429586012152
    C           -0.099057991309     0.395556919387     1.170112303044
    N            0.442876816291    -0.307099800849     0.028854029507
    H            0.551675162350     0.263453850451     2.025318655549
    H           -0.230685895954     1.465690725486     1.000158017159
    C           -0.335889316035    -0.149910883310    -1.183525119865
    H            1.376100030000     0.001662949192    -0.131719976136
    H           -1.087595485990    -0.928078565041    -1.257648874488
    H            0.309307283526    -0.263900947603    -2.046387425467
    H           -0.825727729868     0.820151466931    -1.260510289340

  Mulliken Charges: (a.u.)
   Center  Symbol    Alpha    Beta     Spin     Total
       1     H     0.45684  0.45684  0.00000  0.08633
       2     C     3.08280  3.08280  0.00000 -0.16559
       3     N     3.62824  3.62824  0.00000 -0.25648
       4     H     0.45279  0.45279  0.00000  0.09443
       5     H     0.47369  0.47369  0.00000  0.05262
       6     C     3.07700  3.07700  0.00000 -0.15399
       7     H     0.44114  0.44114  0.00000  0.11773
       8     H     0.45573  0.45573  0.00000  0.08854
       9     H     0.45692  0.45692  0.00000  0.08615
      10     H     0.47487  0.47487  0.00000  0.05027

   Total alpha = 13.00000, Total beta = 13.00000, Total charge =  0.00000

*** Psi4 exiting successfully. Buy a developer a beer!
