  ==> Input File <==

--------------------------------------------------------------------------
set {
	reference rhf
	basis 6-31G*
}

set_num_threads( 4 )
memory 2 gb

molecule MOL {
0 1

O	 -0.988096	 -1.408613	 0.050699
C	 -0.676749	 -0.249230	 -0.009274
C	 -1.746085	 0.827156	 -0.009539
N	 0.623947	 0.147590	 -0.102813
H	 -1.701500	 1.431508	 -0.908902
H	 -2.703425	 0.330732	 0.036390
H	 -1.647323	 1.487769	 0.845106
C	 1.528378	 -0.626161	 -0.930576
C	 1.258736	 1.066055	 0.816812
H	 2.209310	 0.043136	 -1.444765
H	 0.961917	 -1.185105	 -1.654899
H	 2.115849	 -1.319481	 -0.332575
H	 2.019311	 1.627992	 0.287859
H	 0.552941	 1.773771	 1.221688
H	 1.739921	 0.545992	 1.643134

	symmetry c1
}
set optking {
	frozen_dihedral = ("
		8 4 2 3
	")
}

ee = optimize('scf')
oeprop('DIPOLE', 'QUADRUPOLE', 'MULLIKEN_CHARGES')
f=open( 'psi4out.xyz', 'w' )
f.write( "15  " )
f.write( str(ee) + "\n" )
f.write( MOL.save_string_xyz() )
f.close()
--------------------------------------------------------------------------

    Molecular point group: c1
  Charge       = 0
  Multiplicity = 1
  Basis Set: 6-31G*
  Basis Set:
  @DF-RHF Final Energy:  -286.01246536097051
    Total Energy =                       -286.0124653609703955
    Molecular point group: c1
  Basis Set: 6-31G*
  Basis Set:
  Basis Set: 6-31G*
  Basis Set:
  @DF-RHF Final Energy:  -286.01555799757239
    Total Energy =                       -286.0155579975725573
  Basis Set: 6-31G*
  Basis Set:
  Basis Set: 6-31G*
  Basis Set:
  @DF-RHF Final Energy:  -286.01631722445961
    Total Energy =                       -286.0163172244598400
  Basis Set: 6-31G*
  Basis Set:
  Basis Set: 6-31G*
  Basis Set:
  @DF-RHF Final Energy:  -286.01675092251094
    Total Energy =                       -286.0167509225110507
  Basis Set: 6-31G*
  Basis Set:
  @DF-RHF Final Energy:  -286.01792489131708
    Total Energy =                       -286.0179248913171364
  @DF-RHF Final Energy:  -286.01948160583913
    Total Energy =                       -286.0194816058392462
  @DF-RHF Final Energy:  -286.02040949102400
    Total Energy =                       -286.0204094910238268
  @DF-RHF Final Energy:  -286.02216929680003
    Total Energy =                       -286.0221692968000298
  @DF-RHF Final Energy:  -286.02313175875804
    Total Energy =                       -286.0231317587579269
  @DF-RHF Final Energy:  -286.02329169824702
    Total Energy =                       -286.0232916982472489
  Basis Set: 6-31G*
  Basis Set:
  @DF-RHF Final Energy:  -286.02327100050820
    Total Energy =                       -286.0232710005086005
  Basis Set: 6-31G*
  Basis Set:
  Basis Set: 6-31G*
  Basis Set:
  @DF-RHF Final Energy:  -286.02332594104638
    Total Energy =                       -286.0233259410465507
  Basis Set: 6-31G*
  Basis Set:
  Basis Set: 6-31G*
  Basis Set:
  @DF-RHF Final Energy:  -286.02334908337559
    Total Energy =                       -286.0233490833760470
  Basis Set: 6-31G*
  Basis Set:
  Charge       = 0
  Multiplicity = 1
  Basis Set: 6-31G*
  Basis Set:

    Orbital Energies (a.u.)
    -----------------------

    Doubly Occupied:

       1A    -20.522416     2A    -15.579718     3A    -11.344272
       4A    -11.263257     5A    -11.250691     6A    -11.230628
       7A     -1.390120     8A     -1.242797     9A     -1.013886
      10A     -0.969518    11A     -0.917361    12A     -0.737501
      13A     -0.682029    14A     -0.659567    15A     -0.650211
      16A     -0.590287    17A     -0.576448    18A     -0.571222
      19A     -0.561396    20A     -0.550464    21A     -0.528210
      22A     -0.502162    23A     -0.415101    24A     -0.368881

  @DF-RHF Final Energy:  -286.02334985045206

   => Energetics <=

    Nuclear Repulsion Energy =            252.6885842587147124
    One-Electron Energy =                -889.1875814261024971
    Two-Electron Energy =                 350.4756473169356923
    DFT Exchange-Correlation Energy =       0.0000000000000000
    Empirical Dispersion Energy =           0.0000000000000000
    PCM Polarization Energy =               0.0000000000000000
    EFP Energy =                            0.0000000000000000
    Total Energy =                       -286.0233498504520639
    Molecular point group: c1
  Basis Set: 6-31G*
  Basis Set:

  -Total Gradient:
     Atom            X                  Y                   Z
    ------   -----------------  -----------------  -----------------
       1       -0.000021351282     0.000016274920     0.000013009900
       2       -0.001855276968    -0.000271202076     0.008853514217
       3        0.001376158317     0.002228699485    -0.007103540611
       4        0.000227487495    -0.008559280251     0.002556288606
       5        0.000016421931     0.000001397485    -0.000016889686
       6        0.000002670346    -0.000010550931    -0.000014408220
       7        0.000003450658    -0.000001931874    -0.000030364831
       8        0.000236735447     0.006632879761    -0.004223675379
       9       -0.000050847605    -0.000073491373    -0.000013120430
      10        0.000012670884     0.000010553045    -0.000003871091
      11       -0.000005340304     0.000007301080     0.000000532723
      12        0.000025369116    -0.000013348276    -0.000004066178
      13        0.000001595102     0.000016168252    -0.000007107179
      14        0.000018774968     0.000000750523    -0.000003203237
      15        0.000011481897     0.000015780230    -0.000003098603

  **** Optimization is complete! (in 14 steps) ****
    Final optimized geometry and variables:
    Molecular point group: c1

    Geometry (in Angstrom), charge = 0, multiplicity = 1:

    O           -1.131805759790    -1.207744575726    -0.534715605805
    C           -0.698339594278    -0.205568552306    -0.041350324483
    C           -1.600846997255     0.997601609805     0.158725208411
    N            0.640164287214    -0.073509050381     0.259206254454
    H           -1.214750667473     1.851491867561    -0.387544547609
    H           -2.578722716992     0.738265693865    -0.217743387734
    H           -1.691308374153     1.284304064887     1.200612017006
    C            1.580231861134    -0.712864861919    -0.646773690255
    C            1.152988361744     1.144662940774     0.852574486738
    H            1.840813296534    -0.049947946482    -1.470605901021
    H            1.143917627668    -1.615186466636    -1.040476779556
    H            2.488040870488    -0.966664769441    -0.112085822909
    H            1.280710089671     1.949310033804     0.128517533032
    H            0.509995440796     1.492462505614     1.647515942595
    H            2.121252245323     0.933160687788     1.288635691342

  Mulliken Charges: (a.u.)
   Center  Symbol    Alpha    Beta     Spin     Total
       1     O     4.29365  4.29365  0.00000 -0.58730
       2     C     2.62965  2.62965  0.00000  0.74069
       3     C     3.29745  3.29745  0.00000 -0.59490
       4     N     3.81532  3.81532  0.00000 -0.63064
       5     H     0.40753  0.40753  0.00000  0.18495
       6     H     0.39062  0.39062  0.00000  0.21877
       7     H     0.40605  0.40605  0.00000  0.18790
       8     C     3.15129  3.15129  0.00000 -0.30258
       9     C     3.14591  3.14591  0.00000 -0.29182
      10     H     0.42321  0.42321  0.00000  0.15358
      11     H     0.38570  0.38570  0.00000  0.22860
      12     H     0.41506  0.41506  0.00000  0.16988
      13     H     0.42202  0.42202  0.00000  0.15595
      14     H     0.40905  0.40905  0.00000  0.18189
      15     H     0.40749  0.40749  0.00000  0.18501

   Total alpha = 24.00000, Total beta = 24.00000, Total charge = -0.00000
