                              Psi4 1.0.54 Driver

  ==> Input File <==

--------------------------------------------------------------------------
set {
	reference rhf
	basis cc-pvtz
}

set_num_threads( 4 )
memory 2 gb

molecule MOL {
0 1

H	 -2.698799	 -0.000846	 0.036018
C	 -1.694291	 -0.000483	 0.434279
O	 -0.828718	 -0.000608	 -0.655022
H	 -1.576855	 0.881100	 1.056504
H	 -1.576401	 -0.881658	 1.057001
C	 -0.573647	 -1.213794	 -1.319096
C	 0.133566	 -2.230592	 -0.430140
C	 -1.818959	 -1.791607	 -1.982105
H	 0.114822	 -0.926290	 -2.103934
H	 0.989899	 -1.777145	 0.053737
H	 0.482915	 -3.062987	 -1.029990
H	 -0.521049	 -2.631771	 0.334790
H	 -2.316652	 -1.033762	 -2.574571
H	 -1.540620	 -2.608129	 -2.638301
H	 -2.525413	 -2.181030	 -1.258355

	symmetry c1
}
set optking {
	frozen_dihedral = ("
		6 3 2 1
	")
}

ee,wfn = optimize('scf', return_wfn=True)
oeprop( wfn, 'DIPOLE', 'QUADRUPOLE', 'MULLIKEN_CHARGES')
f=open( 'psi4out.xyz', 'w' )
f.write( "15  " )
f.write( str(ee) + "\n" )
f.write( MOL.save_string_xyz() )
f.close()
--------------------------------------------------------------------------

    Molecular point group: c1
  Charge       = 0
  Multiplicity = 1
  Basis Set: CC-PVTZ
  Basis Set:
  @DF-RHF Final Energy:  -232.22358276321606
    Total Energy =                       -232.2235827632160863
    Molecular point group: c1
  Basis Set: CC-PVTZ
  Basis Set:
  Basis Set: CC-PVTZ
  Basis Set:
  @DF-RHF Final Energy:  -232.22364881935363
    Total Energy =                       -232.2236488193536843
  Basis Set: CC-PVTZ
  Basis Set:
  Basis Set: CC-PVTZ
  Basis Set:
  @DF-RHF Final Energy:  -232.22577698595498
    Total Energy =                       -232.2257769859548944
  Basis Set: CC-PVTZ
  Basis Set:
  Basis Set: CC-PVTZ
  Basis Set:
  @DF-RHF Final Energy:  -232.22579660801446
    Total Energy =                       -232.2257966080142637
  Basis Set: CC-PVTZ
  Basis Set:
  Basis Set: CC-PVTZ
  Basis Set:
  @DF-RHF Final Energy:  -232.22580423858838
    Total Energy =                       -232.2258042385882391
  Basis Set: CC-PVTZ
  Basis Set:
  Basis Set: CC-PVTZ
  Basis Set:
  @DF-RHF Final Energy:  -232.22580930754290
    Total Energy =                       -232.2258093075429883
  Basis Set: CC-PVTZ
  Basis Set:
  Charge       = 0
  Multiplicity = 1
  Basis Set: CC-PVTZ
  Basis Set:

    Orbital Energies (a.u.)
    -----------------------

    Doubly Occupied:

       1A    -20.541400     2A    -11.272695     3A    -11.258745
       4A    -11.209399     5A    -11.207939     6A     -1.373193
       7A     -1.051419     8A     -0.940685     9A     -0.931241
      10A     -0.781531    11A     -0.676289    12A     -0.642235
      13A     -0.634590    14A     -0.572933    15A     -0.564539
      16A     -0.552890    17A     -0.534992    18A     -0.499636
      19A     -0.497454    20A     -0.444716    21A     -0.408588

  @DF-RHF Final Energy:  -232.22580948065786

   => Energetics <=

    Nuclear Repulsion Energy =            199.0630101809261987
    One-Electron Energy =                -709.3834199756199723
    Two-Electron Energy =                 278.0946003140359721
    DFT Exchange-Correlation Energy =       0.0000000000000000
    Empirical Dispersion Energy =           0.0000000000000000
    PCM Polarization Energy =               0.0000000000000000
    EFP Energy =                            0.0000000000000000
    Total Energy =                       -232.2258094806578015
    Molecular point group: c1
  Basis Set: CC-PVTZ
  Basis Set:

  -Total Gradient:
     Atom            X                  Y                   Z
    ------   -----------------  -----------------  -----------------
       1        0.000262268234     0.001291927838     0.000067553299
       2       -0.000010120104    -0.001882646841     0.000271660907
       3       -0.000994996328     0.000917100837    -0.001070396017
       4        0.000006102575    -0.000015058776    -0.000010794014
       5        0.000002225797     0.000035838658    -0.000022592745
       6        0.000736273518    -0.000328707625     0.000756801537
       7       -0.000027244196    -0.000018040847    -0.000023019187
       8        0.000001843853    -0.000006754009     0.000015080183
       9       -0.000004148103    -0.000008898135     0.000013155392
      10       -0.000001214478     0.000002849237    -0.000009792137
      11       -0.000006193536     0.000018818728     0.000006672042
      12        0.000011360742    -0.000001854095    -0.000025533883
      13        0.000031496685    -0.000009084345     0.000017183199
      14       -0.000004886947    -0.000003808319     0.000005802898
      15       -0.000002767712     0.000008317695     0.000008218527

  **** Optimization is complete! (in 7 steps) ****
    Final optimized geometry and variables:
    Molecular point group: c1

    Geometry (in Angstrom), charge = 0, multiplicity = 1:

    H           -1.628333410040     1.348769890022     0.764341240463
    C           -0.640612987001     1.137119912193     1.162886863579
    O            0.306744661046     0.998072250056     0.152172877322
    H           -0.337631230730     1.980033140342     1.768383282506
    H           -0.702584041021     0.265906863866     1.805597531555
    C            0.382800648253    -0.223382792240    -0.540630571703
    C            0.960246605791    -1.340335048983     0.321771971332
    C           -0.939312386311    -0.613976603339    -1.190434791966
    H            1.093523311564    -0.018870787949    -1.331674961741
    H            1.882919859957    -1.014932176736     0.785801665678
    H            1.174424520020    -2.207500371153    -0.292539787984
    H            0.276438107072    -1.654588098590     1.101461643090
    H           -1.326098858521     0.205433679315    -1.784006684068
    H           -0.792703216601    -1.466633127208    -1.843100744402
    H           -1.687748226571    -0.887807213960    -0.455436852861

  Mulliken Charges: (a.u.)
   Center  Symbol    Alpha    Beta     Spin     Total
       1     H     0.46612  0.46612  0.00000  0.06777
       2     C     3.04027  3.04027  0.00000 -0.08054
       3     O     4.18402  4.18402  0.00000 -0.36805
       4     H     0.44275  0.44275  0.00000  0.11450
       5     H     0.47047  0.47047  0.00000  0.05905
       6     C     2.93585  2.93585  0.00000  0.12830
       7     C     3.15380  3.15380  0.00000 -0.30761
       8     C     3.16042  3.16042  0.00000 -0.32084
       9     H     0.44689  0.44689  0.00000  0.10622
      10     H     0.44463  0.44463  0.00000  0.11074
      11     H     0.45129  0.45129  0.00000  0.09741
      12     H     0.45624  0.45624  0.00000  0.08753
      13     H     0.44402  0.44402  0.00000  0.11196
      14     H     0.44827  0.44827  0.00000  0.10345
      15     H     0.45495  0.45495  0.00000  0.09009

   Total alpha = 21.00000, Total beta = 21.00000, Total charge =  0.00000

*** Psi4 exiting successfully. Buy a developer a beer!
