                              Psi4 1.0.54 Driver

  ==> Input File <==

--------------------------------------------------------------------------
set {
	reference rhf
	basis cc-pvtz
}

set_num_threads( 4 )
memory 2 gb

molecule MOL {
0 1

H	 -3.397859	 1.855887	 -0.655014
O	 -2.698538	 1.272371	 -0.884481
C	 -2.302264	 0.528872	 0.237390
C	 -1.175688	 -0.398187	 -0.171891
H	 -1.967052	 1.190414	 1.033486
H	 -3.137523	 -0.051461	 0.623895
C	 0.196029	 0.106276	 0.266738
H	 -1.201873	 -0.515469	 -1.250677
H	 -1.365975	 -1.378728	 0.252664
C	 1.330220	 -0.826136	 -0.155230
H	 0.359542	 1.097229	 -0.145561
H	 0.212134	 0.218135	 1.348778
C	 2.719700	 -0.407669	 0.328325
H	 1.339388	 -0.911200	 -1.239363
H	 1.119001	 -1.821953	 0.224128
C	 3.241564	 0.893452	 -0.276737
H	 3.418299	 -1.204729	 0.093035
H	 2.711776	 -0.323368	 1.411960
H	 3.254204	 0.841071	 -1.360784
H	 2.634460	 1.745075	 0.005842
H	 4.254264	 1.092401	 0.054971

	symmetry c1
}
set optking {
	frozen_dihedral = ("
		2 3 4 8
	")
}

ee,wfn = optimize('scf', return_wfn=True)
oeprop( wfn, 'DIPOLE', 'QUADRUPOLE', 'MULLIKEN_CHARGES')
f=open( 'psi4out.xyz', 'w' )
f.write( "21  " )
f.write( str(ee) + "\n" )
f.write( MOL.save_string_xyz() )
f.close()
--------------------------------------------------------------------------

    Molecular point group: c1
  Charge       = 0
  Multiplicity = 1
  Basis Set: CC-PVTZ
  Basis Set:
  @DF-RHF Final Energy:  -310.32831416776230
    Total Energy =                       -310.3283141677620165
    Molecular point group: c1
  Basis Set: CC-PVTZ
  Basis Set:
  Basis Set: CC-PVTZ
  Basis Set:
  @DF-RHF Final Energy:  -310.32872991484487
    Total Energy =                       -310.3287299148443026
  Basis Set: CC-PVTZ
  Basis Set:
  Basis Set: CC-PVTZ
  Basis Set:
  @DF-RHF Final Energy:  -310.32884161092551
    Total Energy =                       -310.3288416109256787
  Basis Set: CC-PVTZ
  Basis Set:
  Basis Set: CC-PVTZ
  Basis Set:
  @DF-RHF Final Energy:  -310.32884560682032
    Total Energy =                       -310.3288456068201526
  Basis Set: CC-PVTZ
  Basis Set:
  Charge       = 0
  Multiplicity = 1
  Basis Set: CC-PVTZ
  Basis Set:

    Orbital Energies (a.u.)
    -----------------------

    Doubly Occupied:

       1A    -20.545597     2A    -11.265391     3A    -11.211175
       4A    -11.209493     5A    -11.209006     6A    -11.208491
       7A    -11.203608     8A     -1.362571     9A     -1.084299
      10A     -1.031338    11A     -0.953703    12A     -0.876126
      13A     -0.805905    14A     -0.776486    15A     -0.706501
      16A     -0.642385    17A     -0.626867    18A     -0.603283
      19A     -0.592299    20A     -0.564011    21A     -0.541390
      22A     -0.519811    23A     -0.506273    24A     -0.493320
      25A     -0.477268    26A     -0.459532    27A     -0.456230
      28A     -0.447254    29A     -0.425700

  @DF-RHF Final Energy:  -310.32884551185356

   => Energetics <=

    Nuclear Repulsion Energy =            315.2113022124431723
    One-Electron Energy =               -1045.4696689637332838
    Two-Electron Energy =                 419.9295212394366672
    DFT Exchange-Correlation Energy =       0.0000000000000000
    Empirical Dispersion Energy =           0.0000000000000000
    PCM Polarization Energy =               0.0000000000000000
    EFP Energy =                            0.0000000000000000
    Total Energy =                       -310.3288455118535012
    Molecular point group: c1
  Basis Set: CC-PVTZ
  Basis Set:

  -Total Gradient:
     Atom            X                  Y                   Z
    ------   -----------------  -----------------  -----------------
       1       -0.000054833700     0.000080034256    -0.000037882873
       2       -0.002149854289    -0.002306185243    -0.000692405898
       3        0.003398242046     0.003547610492     0.000969665841
       4       -0.003734730000    -0.004770051635     0.000185637009
       5       -0.000020779876     0.000035480949    -0.000038129262
       6       -0.000017104723     0.000017952530    -0.000017166019
       7       -0.000025753427     0.000032013184    -0.000006947743
       8        0.002572410985     0.003296899036    -0.000385253281
       9       -0.000010110733     0.000056539985     0.000017083169
      10       -0.000016779818     0.000028213573    -0.000011688354
      11       -0.000021963944    -0.000036819388    -0.000004896581
      12        0.000005694329     0.000020574411     0.000011139674
      13        0.000004621850    -0.000006108616     0.000036642164
      14        0.000002555379     0.000013677233     0.000002650455
      15        0.000007997214    -0.000004513710    -0.000019168283
      16        0.000018406240     0.000005863972    -0.000012476450
      17        0.000011981571    -0.000002285060     0.000016378475
      18       -0.000005951376     0.000006279331     0.000003088953
      19       -0.000001527852     0.000007924163    -0.000012281575
      20        0.000038774377    -0.000014504357     0.000001618180
      21       -0.000001294258    -0.000008595101    -0.000005607600

  **** Optimization is complete! (in 5 steps) ****
    Final optimized geometry and variables:
    Molecular point group: c1

    Geometry (in Angstrom), charge = 0, multiplicity = 1:

    H           -3.477718712066     1.669828160607    -0.526359017486
    O           -2.826608460986     1.033189946948    -0.757454693057
    C           -2.447862269172     0.296082693064     0.378652062347
    C           -1.304271070181    -0.641634405036    -0.003887754692
    H           -2.140801847804     0.962624320399     1.180220914113
    H           -3.297448997467    -0.277173381073     0.739579586185
    C            0.073063362325    -0.110997519819     0.394133433358
    H           -1.328176463825    -0.754053815432    -1.081416039516
    H           -1.460758000169    -1.619618295053     0.437823874387
    C            1.213074622086    -1.014527451085    -0.069773287913
    H            0.191882246307     0.884710901839    -0.020304671437
    H            0.120267658838    -0.003781252607     1.475869244816
    C            2.606931542088    -0.575193747003     0.382135356377
    H            1.194772453774    -1.085230462039    -1.154847382286
    H            1.032351196021    -2.020070397724     0.301285948761
    C            3.087342428660     0.741769997441    -0.222814737816
    H            3.314503950806    -1.356094428150     0.120605888539
    H            2.625597687552    -0.501714927491     1.466468742473
    H            3.072843896646     0.699941260686    -1.307207835568
    H            2.470322445185     1.577825690342     0.083243564074
    H            4.104129559628     0.957795567007     0.085034430461

  Mulliken Charges: (a.u.)
   Center  Symbol    Alpha    Beta     Spin     Total
       1     H     0.39537  0.39537  0.00000  0.20926
       2     O     4.19910  4.19910  0.00000 -0.39821
       3     C     2.96838  2.96838  0.00000  0.06324
       4     C     3.09010  3.09010  0.00000 -0.18021
       5     H     0.47491  0.47491  0.00000  0.05017
       6     H     0.46951  0.46951  0.00000  0.06099
       7     C     3.09741  3.09741  0.00000 -0.19482
       8     H     0.44787  0.44787  0.00000  0.10425
       9     H     0.45073  0.45073  0.00000  0.09854
      10     C     3.09631  3.09631  0.00000 -0.19262
      11     H     0.44751  0.44751  0.00000  0.10498
      12     H     0.45758  0.45758  0.00000  0.08483
      13     C     3.08998  3.08998  0.00000 -0.17997
      14     H     0.45255  0.45255  0.00000  0.09490
      15     H     0.45080  0.45080  0.00000  0.09840
      16     C     3.15170  3.15170  0.00000 -0.30339
      17     H     0.44895  0.44895  0.00000  0.10210
      18     H     0.45563  0.45563  0.00000  0.08874
      19     H     0.45446  0.45446  0.00000  0.09108
      20     H     0.45383  0.45383  0.00000  0.09234
      21     H     0.44730  0.44730  0.00000  0.10540

   Total alpha = 29.00000, Total beta = 29.00000, Total charge = -0.00000

*** Psi4 exiting successfully. Buy a developer a beer!
