  ==> Input File <==

--------------------------------------------------------------------------
set {
	reference rhf
	basis cc-pvtz
}

set_num_threads( 4 )
memory 2 gb

molecule MOL {
0 1

H	 -1.835082	 1.385983	 0.000069
C	 -1.300516	 0.441153	 -0.000028
O	 -0.006604	 0.654344	 -0.000106
O	 -1.828920	 -0.612308	 0.000113
C	 0.852093	 -0.482521	 -0.000161
C	 -0.004272	 -1.707203	 0.217768
H	 1.587211	 -0.364974	 0.783257
H	 1.375800	 -0.524605	 -0.944578
H	 -0.525438	 -1.649618	 1.164890
H	 0.620543	 -2.592320	 0.223082
H	 -0.737934	 -1.810039	 -0.571620

	symmetry c1
}
set optking {
	frozen_dihedral = ("
		7 5 3 2
	")
}

ee = optimize('scf')
oeprop('DIPOLE', 'QUADRUPOLE', 'MULLIKEN_CHARGES')
f=open( 'psi4out.xyz', 'w' )
f.write( "11  " )
f.write( str(ee) + "\n" )
f.write( MOL.save_string_xyz() )
f.close()
--------------------------------------------------------------------------

    Molecular point group: c1
  Charge       = 0
  Multiplicity = 1
  Basis Set: CC-PVTZ
  Basis Set:
  @DF-RHF Final Energy:  -266.86603553737666
    Total Energy =                       -266.8660355373767743
    Molecular point group: c1
  Basis Set: CC-PVTZ
  Basis Set:
  Basis Set: CC-PVTZ
  Basis Set:
  @DF-RHF Final Energy:  -266.90512449040904
    Total Energy =                       -266.9051244904089799
  Basis Set: CC-PVTZ
  Basis Set:
  Basis Set: CC-PVTZ
  Basis Set:
  @DF-RHF Final Energy:  -266.90812357898187
    Total Energy =                       -266.9081235789818720
  Basis Set: CC-PVTZ
  Basis Set:
  Basis Set: CC-PVTZ
  Basis Set:
  @DF-RHF Final Energy:  -266.91401994371250
    Total Energy =                       -266.9140199437125602
  Basis Set: CC-PVTZ
  Basis Set:
  @DF-RHF Final Energy:  -266.91913371769908
    Total Energy =                       -266.9191337176990828
  @DF-RHF Final Energy:  -266.92003629700037
    Total Energy =                       -266.9200362970005358
  Basis Set: CC-PVTZ
  Basis Set:
  @DF-RHF Final Energy:  -266.92024821197776
    Total Energy =                       -266.9202482119776505
  Basis Set: CC-PVTZ
  Basis Set:
  Basis Set: CC-PVTZ
  Basis Set:
  @DF-RHF Final Energy:  -266.92028458797915
    Total Energy =                       -266.9202845879792108
  Basis Set: CC-PVTZ
  Basis Set:
  Basis Set: CC-PVTZ
  Basis Set:
  @DF-RHF Final Energy:  -266.92028759443747
    Total Energy =                       -266.9202875944375819
  Basis Set: CC-PVTZ
  Basis Set:
  Charge       = 0
  Multiplicity = 1
  Basis Set: CC-PVTZ
  Basis Set:

    Orbital Energies (a.u.)
    -----------------------

    Doubly Occupied:

       1A    -20.601887     2A    -20.540512     3A    -11.370792
       4A    -11.296033     5A    -11.218961     6A     -1.470725
       7A     -1.376148     8A     -1.050848     9A     -0.920036
      10A     -0.795785    11A     -0.719615    12A     -0.688677
      13A     -0.676459    14A     -0.606766    15A     -0.588116
      16A     -0.546929    17A     -0.530289    18A     -0.504325
      19A     -0.452258    20A     -0.447892

  @DF-RHF Final Energy:  -266.92028803744051

   => Energetics <=

    Nuclear Repulsion Energy =            182.4109819247226767
    One-Electron Energy =                -725.8564327009805766
    Two-Electron Energy =                 276.5251627388173574
    DFT Exchange-Correlation Energy =       0.0000000000000000
    Empirical Dispersion Energy =           0.0000000000000000
    PCM Polarization Energy =               0.0000000000000000
    EFP Energy =                            0.0000000000000000
    Total Energy =                       -266.9202880374405140
    Molecular point group: c1
  Basis Set: CC-PVTZ
  Basis Set:

  -Total Gradient:
     Atom            X                  Y                   Z
    ------   -----------------  -----------------  -----------------
       1       -0.000019171745    -0.000003455456    -0.000013072905
       2        0.000042317311     0.000097249622     0.001817995562
       3       -0.000215411090    -0.000222150623    -0.002542105934
       4       -0.000075861011    -0.000033790451    -0.000033287233
       5        0.001310109100     0.000960046447    -0.000403898745
       6        0.000036495283     0.000011029335    -0.000024463758
       7       -0.001055757142    -0.000790845279     0.001158571824
       8       -0.000006691465    -0.000010457629     0.000009626637
       9       -0.000013023499     0.000004311103     0.000027913374
      10       -0.000003187434    -0.000012966736     0.000007233453
      11        0.000000181692     0.000001029669    -0.000004512276

  **** Optimization is complete! (in 10 steps) ****
    Final optimized geometry and variables:
    Molecular point group: c1

    Geometry (in Angstrom), charge = 0, multiplicity = 1:

    H           -1.159596397182     1.980877473758    -0.002588847121
    C           -0.838973475602     0.943246509004    -0.040445041680
    O            0.470540619606     0.911386996477    -0.055974689242
    O           -1.593395534866     0.039248197329    -0.070501266525
    C            1.306437984130    -0.251498462264    -0.036984176698
    C            0.668335421450    -1.607658149738     0.199263468184
    H            2.017186656143    -0.052683434672     0.751967604699
    H            1.835285705854    -0.244909531951    -0.979565235542
    H            0.125222187098    -1.643056831502     1.132377639225
    H            1.479947007206    -2.326487549288     0.249269523054
    H           -0.001298003414    -1.895425824942    -0.594855025192

  Mulliken Charges: (a.u.)
   Center  Symbol    Alpha    Beta     Spin     Total
       1     H     0.44579  0.44579  0.00000  0.10841
       2     C     2.84675  2.84675  0.00000  0.30650
       3     O     4.14856  4.14856  0.00000 -0.29712
       4     O     4.19545  4.19545  0.00000 -0.39089
       5     C     2.97308  2.97308  0.00000  0.05384
       6     C     3.14983  3.14983  0.00000 -0.29967
       7     H     0.45173  0.45173  0.00000  0.09654
       8     H     0.45301  0.45301  0.00000  0.09398
       9     H     0.44464  0.44464  0.00000  0.11072
      10     H     0.45140  0.45140  0.00000  0.09719
      11     H     0.43975  0.43975  0.00000  0.12049

   Total alpha = 20.00000, Total beta = 20.00000, Total charge = -0.00000
