  ==> Input File <==

--------------------------------------------------------------------------
set {
	reference rhf
	basis 6-31G*
}

set_num_threads( 4 )
memory 2 gb

molecule MOL {
0 1

O	 0.483880	 0.638863	 0.941877
C	 0.028650	 0.075053	 -0.000277
C	 -1.233602	 -0.752807	 0.000328
O	 0.586523	 0.101378	 -1.203600
C	 -2.501530	 0.091881	 0.000126
H	 -1.193807	 -1.406641	 -0.865785
H	 -1.193516	 -1.405779	 0.867015
H	 -2.545121	 0.729328	 -0.874513
H	 -3.377167	 -0.548497	 0.000561
H	 -2.544818	 0.730135	 0.874258
C	 1.783090	 0.846317	 -1.341007
H	 1.613705	 1.885234	 -1.097339
H	 2.075112	 0.747379	 -2.374833
H	 2.553257	 0.450703	 -0.694629

	symmetry c1
}
set optking {
	frozen_dihedral = ("
		4 2 3 6
	")
}

ee = optimize('scf')
oeprop('DIPOLE', 'QUADRUPOLE', 'MULLIKEN_CHARGES')
f=open( 'psi4out.xyz', 'w' )
f.write( "14  " )
f.write( str(ee) + "\n" )
f.write( MOL.save_string_xyz() )
f.close()
--------------------------------------------------------------------------

    Molecular point group: c1
  Charge       = 0
  Multiplicity = 1
  Basis Set: 6-31G*
  Basis Set:
  @DF-RHF Final Energy:  -305.86952234417322
    Total Energy =                       -305.8695223441732765
    Molecular point group: c1
  Basis Set: 6-31G*
  Basis Set:
  Basis Set: 6-31G*
  Basis Set:
  @DF-RHF Final Energy:  -305.86967806959410
    Total Energy =                       -305.8696780695942152
  Basis Set: 6-31G*
  Basis Set:
  Basis Set: 6-31G*
  Basis Set:
  @DF-RHF Final Energy:  -305.87018345289397
    Total Energy =                       -305.8701834528939116
  Basis Set: 6-31G*
  Basis Set:
  Basis Set: 6-31G*
  Basis Set:
  @DF-RHF Final Energy:  -305.87026957001825
    Total Energy =                       -305.8702695700184222
  Basis Set: 6-31G*
  Basis Set:
  Basis Set: 6-31G*
  Basis Set:
  @DF-RHF Final Energy:  -305.87027122017537
    Total Energy =                       -305.8702712201750273
  Basis Set: 6-31G*
  Basis Set:
  Charge       = 0
  Multiplicity = 1
  Basis Set: 6-31G*
  Basis Set:

    Orbital Energies (a.u.)
    -----------------------

    Doubly Occupied:

       1A    -20.606377     2A    -20.543126     3A    -11.371917
       4A    -11.281358     5A    -11.237074     6A    -11.226560
       7A     -1.470102     8A     -1.362114     9A     -1.066360
      10A     -0.978743    11A     -0.882109    12A     -0.773508
      13A     -0.698055    14A     -0.679269    15A     -0.673107
      16A     -0.616541    17A     -0.599707    18A     -0.565203
      19A     -0.541374    20A     -0.519255    21A     -0.508259
      22A     -0.504745    23A     -0.455166    24A     -0.435016

  @DF-RHF Final Energy:  -305.87027137221691

   => Energetics <=

    Nuclear Repulsion Energy =            247.7458494612794198
    One-Electron Energy =                -908.0421504503140113
    Two-Electron Energy =                 354.4260296168178002
    DFT Exchange-Correlation Energy =       0.0000000000000000
    Empirical Dispersion Energy =           0.0000000000000000
    PCM Polarization Energy =               0.0000000000000000
    EFP Energy =                            0.0000000000000000
    Total Energy =                       -305.8702713722167346
    Molecular point group: c1
  Basis Set: 6-31G*
  Basis Set:

  -Total Gradient:
     Atom            X                  Y                   Z
    ------   -----------------  -----------------  -----------------
       1        0.000027486765    -0.000002493301    -0.000004693369
       2       -0.000109561663     0.000145828217    -0.000064119874
       3        0.000067594941    -0.000150489590     0.000084740145
       4        0.000081712170    -0.000105636262     0.000061474678
       5        0.000010564173     0.000001835898     0.000011141479
       6       -0.000053105531     0.000080958351    -0.000066605895
       7       -0.000000962072     0.000007611696    -0.000018917795
       8        0.000006235339    -0.000004068249     0.000004083659
       9        0.000001008977    -0.000005617572     0.000001424303
      10       -0.000011583294     0.000011726391     0.000001352932
      11       -0.000037198168     0.000043232524    -0.000016728155
      12        0.000012264404    -0.000003700492    -0.000004000830
      13        0.000006460528    -0.000005951912     0.000001615631
      14       -0.000000916572    -0.000013235699     0.000009233092

  **** Optimization is complete! (in 6 steps) ****
    Final optimized geometry and variables:
    Molecular point group: c1

    Geometry (in Angstrom), charge = 0, multiplicity = 1:

    O            0.583842078305     0.432061394568     1.220145380301
    C            0.151039868572    -0.137730960566     0.269798856340
    C           -1.111418592585    -0.964809455605     0.277625364680
    O            0.714988485703    -0.085198756022    -0.928436415520
    C           -2.349403801591    -0.059362870271     0.272761095212
    H           -1.119957825218    -1.624880753959    -0.579743622837
    H           -1.098900317728    -1.564446419904     1.179701463795
    H           -2.386265426054     0.546732431384    -0.626455882219
    H           -3.251923869242    -0.659010789047     0.309411691030
    H           -2.343452359372     0.601537103834     1.131336053756
    C            1.886542416435     0.701361291909    -1.051708191786
    H            1.679056647956     1.732466031535    -0.804359264175
    H            2.191109597686     0.617360668639    -2.083215358020
    H            2.663226118677     0.328874572328    -0.399604824803

  Mulliken Charges: (a.u.)
   Center  Symbol    Alpha    Beta     Spin     Total
       1     O     4.28590  4.28590  0.00000 -0.57181
       2     C     2.61480  2.61480  0.00000  0.77039
       3     C     3.19665  3.19665  0.00000 -0.39330
       4     O     4.30222  4.30222  0.00000 -0.60444
       5     C     3.25050  3.25050  0.00000 -0.50099
       6     H     0.40189  0.40189  0.00000  0.19623
       7     H     0.39996  0.39996  0.00000  0.20009
       8     H     0.41277  0.41277  0.00000  0.17447
       9     H     0.41201  0.41201  0.00000  0.17598
      10     H     0.40461  0.40461  0.00000  0.19078
      11     C     3.09328  3.09328  0.00000 -0.18655
      12     H     0.40879  0.40879  0.00000  0.18242
      13     H     0.40847  0.40847  0.00000  0.18306
      14     H     0.40816  0.40816  0.00000  0.18368

   Total alpha = 24.00000, Total beta = 24.00000, Total charge =  0.00000
