                              Psi4 1.0.54 Driver

  ==> Input File <==

--------------------------------------------------------------------------
set {
	reference rhf
	basis cc-pvtz
}

set_num_threads( 4 )
memory 2 gb

molecule MOL {
0 1

H	 -2.498963	 -0.741158	 -0.729149
O	 -2.346257	 -0.289210	 0.080372
C	 -1.183935	 0.486039	 -0.009831
C	 0.062853	 -0.375310	 0.027457
H	 -1.178881	 1.094526	 -0.908634
H	 -1.184406	 1.155156	 0.838676
O	 1.172093	 0.457955	 -0.054438
H	 0.052476	 -1.081302	 -0.804627
H	 0.076323	 -0.955658	 0.947560
C	 2.380546	 -0.202695	 -0.239921
H	 2.383736	 -0.772737	 -1.166375
H	 3.161275	 0.542235	 -0.287111
H	 2.592486	 -0.881633	 0.582663

	symmetry c1
}
set optking {
	frozen_dihedral = ("
		10 7 4 8
	")
}

ee,wfn = optimize('scf', return_wfn=True)
oeprop( wfn, 'DIPOLE', 'QUADRUPOLE', 'MULLIKEN_CHARGES')
f=open( 'psi4out.xyz', 'w' )
f.write( "13  " )
f.write( str(ee) + "\n" )
f.write( MOL.save_string_xyz() )
f.close()
--------------------------------------------------------------------------

    Molecular point group: c1
  Charge       = 0
  Multiplicity = 1
  Basis Set: CC-PVTZ
  Basis Set:
  @DF-RHF Final Energy:  -268.06203263496047
    Total Energy =                       -268.0620326349603602
    Molecular point group: c1
  Basis Set: CC-PVTZ
  Basis Set:
  Basis Set: CC-PVTZ
  Basis Set:
  @DF-RHF Final Energy:  -268.06204819898312
    Total Energy =                       -268.0620481989830637
  Basis Set: CC-PVTZ
  Basis Set:
  Charge       = 0
  Multiplicity = 1
  Basis Set: CC-PVTZ
  Basis Set:

    Orbital Energies (a.u.)
    -----------------------

    Doubly Occupied:

       1A    -20.555921     2A    -20.553014     3A    -11.269296
       4A    -11.268024     5A    -11.267659     6A     -1.391861
       7A     -1.369361     8A     -1.019775     9A     -0.914250
      10A     -0.843109    11A     -0.712259    12A     -0.675271
      13A     -0.663645    14A     -0.640838    15A     -0.595889
      16A     -0.570191    17A     -0.549956    18A     -0.491614
      19A     -0.481723    20A     -0.443875    21A     -0.423363

  @DF-RHF Final Energy:  -268.06205187764260

   => Energetics <=

    Nuclear Repulsion Energy =            190.4894185417125811
    One-Electron Energy =                -743.7011498655310788
    Two-Electron Energy =                 285.1496794461759805
    DFT Exchange-Correlation Energy =       0.0000000000000000
    Empirical Dispersion Energy =           0.0000000000000000
    PCM Polarization Energy =               0.0000000000000000
    EFP Energy =                            0.0000000000000000
    Total Energy =                       -268.0620518776425456
    Molecular point group: c1
  Basis Set: CC-PVTZ
  Basis Set:

  -Total Gradient:
     Atom            X                  Y                   Z
    ------   -----------------  -----------------  -----------------
       1       -0.000009970990    -0.000014564085    -0.000012758449
       2        0.000019961470    -0.000020451758    -0.000004666727
       3        0.000005204601     0.000095339231     0.000036706981
       4       -0.001018598695     0.001139260332    -0.001409097442
       5       -0.000000521693    -0.000016515993    -0.000018728474
       6       -0.000010359096     0.000003048958    -0.000005899357
       7        0.000393408246    -0.000319844785     0.001766547540
       8        0.000738512174    -0.000876916666     0.000799679677
       9        0.000013059084    -0.000034264438    -0.000035302277
      10       -0.000112429637     0.000022251761    -0.001123801107
      11        0.000005079296     0.000004223634    -0.000000504284
      12       -0.000023281345     0.000012122003     0.000005391336
      13       -0.000000063417     0.000006311807     0.000002432584

  **** Optimization is complete! (in 3 steps) ****
    Final optimized geometry and variables:
    Molecular point group: c1

    Geometry (in Angstrom), charge = 0, multiplicity = 1:

    H           -2.506222336342    -0.751898964264    -0.650052960805
    O           -2.342919420189    -0.289331156238     0.151388961254
    C           -1.182489199337     0.485294228343     0.035478162549
    C            0.065199371520    -0.374601654342     0.063821054014
    H           -1.191530065612     1.084500519090    -0.869557340915
    H           -1.170140182993     1.163086562117     0.876988533022
    O            1.175207604668     0.459019732783    -0.010410643533
    H            0.058458262513    -1.079137874678    -0.769072015833
    H            0.081036398597    -0.962287088969     0.979535050660
    C            2.385882133416    -0.198844994387    -0.190596247560
    H            2.397223191515    -0.760157791091    -1.122054654540
    H            3.165979652464     0.547484367074    -0.223706752843
    H            2.592717727552    -0.885054811426     0.627550040985

  Mulliken Charges: (a.u.)
   Center  Symbol    Alpha    Beta     Spin     Total
       1     H     0.39444  0.39444  0.00000  0.21112
       2     O     4.20174  4.20174  0.00000 -0.40349
       3     C     2.97324  2.97324  0.00000  0.05353
       4     C     2.96517  2.96517  0.00000  0.06966
       5     H     0.46718  0.46718  0.00000  0.06564
       6     H     0.45237  0.45237  0.00000  0.09526
       7     O     4.17561  4.17561  0.00000 -0.35122
       8     H     0.48367  0.48367  0.00000  0.03266
       9     H     0.46762  0.46762  0.00000  0.06476
      10     C     3.03191  3.03191  0.00000 -0.06383
      11     H     0.47082  0.47082  0.00000  0.05837
      12     H     0.44600  0.44600  0.00000  0.10800
      13     H     0.47023  0.47023  0.00000  0.05954

   Total alpha = 21.00000, Total beta = 21.00000, Total charge = -0.00000

*** Psi4 exiting successfully. Buy a developer a beer!
