  ==> Input File <==

--------------------------------------------------------------------------
set {
	reference rhf
	basis cc-pvtz
}

set_num_threads( 4 )
memory 2 gb

molecule MOL {
0 1

H	 3.459101	 0.139266	 -0.762951
C	 2.749156	 -0.051729	 0.031265
C	 1.322304	 0.099773	 -0.484271
H	 2.929445	 -1.053887	 0.403481
H	 2.954281	 0.646699	 0.834672
C	 0.308557	 -0.162619	 0.622645
H	 1.143368	 -0.594400	 -1.295960
H	 1.169532	 1.100095	 -0.870217
N	 -1.069352	 -0.004081	 0.085342
H	 0.371632	 -1.172932	 0.991288
H	 0.400391	 0.548875	 1.426218
O	 -1.813653	 0.686777	 0.696331
O	 -1.339188	 -0.602292	 -0.901712

	symmetry c1
}
set optking {
	frozen_dihedral = ("
		12 9 6 3
	")
}

ee = optimize('scf')
oeprop('DIPOLE', 'QUADRUPOLE', 'MULLIKEN_CHARGES')
f=open( 'psi4out.xyz', 'w' )
f.write( "13  " )
f.write( str(ee) + "\n" )
f.write( MOL.save_string_xyz() )
f.close()
--------------------------------------------------------------------------

    Molecular point group: c1
  Charge       = 0
  Multiplicity = 1
  Basis Set: CC-PVTZ
  Basis Set:
  @DF-RHF Final Energy:  -321.86068714390268
    Total Energy =                       -321.8606871439029646
    Molecular point group: c1
  Basis Set: CC-PVTZ
  Basis Set:
  Basis Set: CC-PVTZ
  Basis Set:
  @DF-RHF Final Energy:  -321.86053477170276
    Total Energy =                       -321.8605347717029872
  Basis Set: CC-PVTZ
  Basis Set:
  Basis Set: CC-PVTZ
  Basis Set:
  @DF-RHF Final Energy:  -321.85683003542795
    Total Energy =                       -321.8568300354278335
  Basis Set: CC-PVTZ
  Basis Set:
  Basis Set: CC-PVTZ
  Basis Set:
  @DF-RHF Final Energy:  -321.86096103974012
    Total Energy =                       -321.8609610397399479
  Basis Set: CC-PVTZ
  Basis Set:
  Basis Set: CC-PVTZ
  Basis Set:
  @DF-RHF Final Energy:  -321.86106881314504
    Total Energy =                       -321.8610688131450956
  Basis Set: CC-PVTZ
  Basis Set:
  Basis Set: CC-PVTZ
  Basis Set:
  @DF-RHF Final Energy:  -321.86108341096974
    Total Energy =                       -321.8610834109697407
  Basis Set: CC-PVTZ
  Basis Set:
  Basis Set: CC-PVTZ
  Basis Set:
  @DF-RHF Final Energy:  -321.86108459639672
    Total Energy =                       -321.8610845963966085
  Basis Set: CC-PVTZ
  Basis Set:
  Charge       = 0
  Multiplicity = 1
  Basis Set: CC-PVTZ
  Basis Set:

    Orbital Energies (a.u.)
    -----------------------

    Doubly Occupied:

       1A    -20.592302     2A    -20.589421     3A    -15.837685
       4A    -11.298068     5A    -11.250653     6A    -11.236030
       7A     -1.636681     8A     -1.420811     9A     -1.132821
      10A     -1.027385    11A     -0.884503    12A     -0.831064
      13A     -0.763219    14A     -0.743204    15A     -0.729578
      16A     -0.667140    17A     -0.605144    18A     -0.583779
      19A     -0.551491    20A     -0.522029    21A     -0.510980
      22A     -0.487696    23A     -0.474468    24A     -0.454252

  @DF-RHF Final Energy:  -321.86108473993625

   => Energetics <=

    Nuclear Repulsion Energy =            247.7456909759609971
    One-Electron Energy =                -929.5527467021930761
    Two-Electron Energy =                 359.9459709862959471
    DFT Exchange-Correlation Energy =       0.0000000000000000
    Empirical Dispersion Energy =           0.0000000000000000
    PCM Polarization Energy =               0.0000000000000000
    EFP Energy =                            0.0000000000000000
    Total Energy =                       -321.8610847399361319
    Molecular point group: c1
  Basis Set: CC-PVTZ
  Basis Set:

  -Total Gradient:
     Atom            X                  Y                   Z
    ------   -----------------  -----------------  -----------------
       1       -0.000000979039     0.000000929544     0.000000411970
       2       -0.000000394972    -0.000002590882     0.000000413120
       3       -0.000012482096    -0.000379022173    -0.000091311562
       4        0.000000543763    -0.000000609548    -0.000000503964
       5       -0.000000445655     0.000000266173     0.000000523863
       6       -0.000032887341     0.000366597329     0.000233743796
       7        0.000000488536    -0.000003089173     0.000002861835
       8       -0.000001267522     0.000003681169    -0.000003869880
       9        0.000210458104     0.000423632282    -0.000441601682
      10        0.000000436250    -0.000001628094     0.000000416016
      11       -0.000000519943    -0.000002573400    -0.000005675411
      12       -0.000166232716    -0.000415559632     0.000286650167
      13        0.000003282631     0.000009966406     0.000017941731

  **** Optimization is complete! (in 8 steps) ****
    Final optimized geometry and variables:
    Molecular point group: c1

    Geometry (in Angstrom), charge = 0, multiplicity = 1:

    H            3.485174073890     0.139865258286    -0.759996249733
    C            2.763978413842    -0.043735621784     0.025722524176
    C            1.344204500223     0.098941950405    -0.513303506616
    H            2.940582196228    -1.042239211444     0.410176415828
    H            2.958664342677     0.661767591128     0.825641834070
    C            0.322321433126    -0.152522614683     0.583124880234
    H            1.176466443052    -0.596877021860    -1.322398593066
    H            1.199051776677     1.096913259706    -0.911888390986
    N           -1.074435125302     0.000943336363     0.084727077570
    H            0.377137677219    -1.168798453969     0.947522227526
    H            0.415049083741     0.534263773259     1.406397225141
    O           -1.804048609566     0.690394740689     0.713402782663
    O           -1.370148013532    -0.594575171013    -0.896778580521

  Mulliken Charges: (a.u.)
   Center  Symbol    Alpha    Beta     Spin     Total
       1     H     0.44150  0.44150  0.00000  0.11699
       2     C     3.15157  3.15157  0.00000 -0.30313
       3     C     3.09564  3.09564  0.00000 -0.19128
       4     H     0.45231  0.45231  0.00000  0.09538
       5     H     0.45221  0.45221  0.00000  0.09558
       6     C     3.04107  3.04107  0.00000 -0.08214
       7     H     0.43320  0.43320  0.00000  0.13359
       8     H     0.44358  0.44358  0.00000  0.11284
       9     N     3.27660  3.27660  0.00000  0.44680
      10     H     0.43746  0.43746  0.00000  0.12507
      11     H     0.43211  0.43211  0.00000  0.13579
      12     O     4.16909  4.16909  0.00000 -0.33817
      13     O     4.17365  4.17365  0.00000 -0.34731

   Total alpha = 24.00000, Total beta = 24.00000, Total charge = -0.00000
