  ==> Input File <==

--------------------------------------------------------------------------
set {
	reference rhf
	basis cc-pvtz
}

set_num_threads( 4 )
memory 2 gb

molecule MOL {
0 1

H	 -2.698799	 -0.000846	 0.036018
C	 -1.694291	 -0.000483	 0.434279
O	 -0.828718	 -0.000608	 -0.655022
H	 -1.576855	 0.881100	 1.056504
H	 -1.576401	 -0.881658	 1.057001
C	 0.557893	 -0.000203	 -0.420099
C	 1.032284	 1.266305	 0.283592
C	 1.032965	 -1.266214	 0.284011
H	 0.977963	 -0.000254	 -1.418177
H	 0.646349	 2.144262	 -0.219703
H	 2.115014	 1.312625	 0.266395
H	 0.720745	 1.299999	 1.321085
H	 0.647577	 -2.144549	 -0.219028
H	 2.115736	 -1.311923	 0.266940
H	 0.721352	 -1.299762	 1.321466

	symmetry c1
}
set optking {
	frozen_dihedral = ("
		6 3 2 1
	")
}

ee = optimize('scf')
oeprop('DIPOLE', 'QUADRUPOLE', 'MULLIKEN_CHARGES')
f=open( 'psi4out.xyz', 'w' )
f.write( "15  " )
f.write( str(ee) + "\n" )
f.write( MOL.save_string_xyz() )
f.close()
--------------------------------------------------------------------------

    Molecular point group: c1
  Charge       = 0
  Multiplicity = 1
  Basis Set: CC-PVTZ
  Basis Set:

    Orbital Energies (a.u.)
    -----------------------

    Doubly Occupied:

       1A    -20.541889     2A    -11.272614     3A    -11.258473
       4A    -11.208672     5A    -11.208656     6A     -1.373567
       7A     -1.051635     8A     -0.940214     9A     -0.931679
      10A     -0.781482    11A     -0.675583    12A     -0.642370
      13A     -0.635228    14A     -0.574015    15A     -0.565840
      16A     -0.552805    17A     -0.533734    18A     -0.497793
      19A     -0.497479    20A     -0.444830    21A     -0.409683

  @DF-RHF Final Energy:  -232.22617976052268

   => Energetics <=

    Nuclear Repulsion Energy =            199.0325846804062451
    One-Electron Energy =                -709.3210378337413431
    Two-Electron Energy =                 278.0622733928125285
    DFT Exchange-Correlation Energy =       0.0000000000000000
    Empirical Dispersion Energy =           0.0000000000000000
    PCM Polarization Energy =               0.0000000000000000
    EFP Energy =                            0.0000000000000000
    Total Energy =                       -232.2261797605225979
    Molecular point group: c1
  Basis Set: CC-PVTZ
  Basis Set:

  -Total Gradient:
     Atom            X                  Y                   Z
    ------   -----------------  -----------------  -----------------
       1        0.000040887859     0.000000776242    -0.000009449385
       2       -0.000019068757     0.000007085189     0.000113677654
       3        0.000005968521    -0.000002544515    -0.000062517661
       4       -0.000004600847    -0.000013348482    -0.000019553128
       5        0.000000115163     0.000010754007    -0.000022689444
       6        0.000155767596    -0.000005262980     0.000016601485
       7       -0.000055644504     0.000005724767     0.000005069981
       8       -0.000064440630    -0.000005300939     0.000009287316
       9       -0.000029594740    -0.000000245623    -0.000018812667
      10        0.000009634355    -0.000018413737     0.000011398378
      11       -0.000037640906    -0.000011746965    -0.000008094901
      12        0.000006705521     0.000007622847    -0.000005199353
      13        0.000010696467     0.000021806668     0.000015341349
      14       -0.000028818983     0.000010223635    -0.000006030861
      15        0.000010033882    -0.000007130113    -0.000019028764

  **** Optimization is complete! (in 1 steps) ****
    Final optimized geometry and variables:
    Molecular point group: c1

    Geometry (in Angstrom), charge = 0, multiplicity = 1:

    H           -2.698798927669    -0.000604633507     0.036017768234
    C           -1.694290927669    -0.000241633507     0.434278768234
    O           -0.828717927669    -0.000366633507    -0.655022231766
    H           -1.576854927669     0.881341366493     1.056503768234
    H           -1.576400927669    -0.881416633507     1.057000768234
    C            0.557893072331     0.000038366493    -0.420099231766
    C            1.032284072331     1.266546366493     0.283591768234
    C            1.032965072331    -1.265972633507     0.284010768234
    H            0.977963072331    -0.000012633507    -1.418177231766
    H            0.646349072331     2.144503366493    -0.219703231766
    H            2.115014072331     1.312866366493     0.266394768234
    H            0.720745072331     1.300240366493     1.321084768234
    H            0.647577072331    -2.144307633507    -0.219028231766
    H            2.115736072331    -1.311681633507     0.266939768234
    H            0.721352072331    -1.299520633507     1.321465768234

  Mulliken Charges: (a.u.)
   Center  Symbol    Alpha    Beta     Spin     Total
       1     H     0.44075  0.44075  0.00000  0.11849
       2     C     3.03890  3.03890  0.00000 -0.07781
       3     O     4.18305  4.18305  0.00000 -0.36609
       4     H     0.47039  0.47039  0.00000  0.05922
       5     H     0.47039  0.47039  0.00000  0.05922
       6     C     2.93319  2.93319  0.00000  0.13361
       7     C     3.15866  3.15866  0.00000 -0.31731
       8     C     3.15865  3.15865  0.00000 -0.31730
       9     H     0.44700  0.44700  0.00000  0.10599
      10     H     0.44386  0.44386  0.00000  0.11229
      11     H     0.44966  0.44966  0.00000  0.10067
      12     H     0.45599  0.45599  0.00000  0.08803
      13     H     0.44386  0.44386  0.00000  0.11229
      14     H     0.44967  0.44967  0.00000  0.10066
      15     H     0.45598  0.45598  0.00000  0.08803

   Total alpha = 21.00000, Total beta = 21.00000, Total charge =  0.00000
