  ==> Input File <==

--------------------------------------------------------------------------
set {
	reference rhf
	basis 6-31G*
}

set_num_threads( 1 )
memory 2 gb

molecule MOL {
0 1

H	 1.710016	 3.398547	 -2.443794
N	 0.947797	 2.750574	 -2.495736
C	 0.785316	 2.042806	 -1.233916
H	 1.164402	 2.107536	 -3.233581
C	 -0.434708	 1.129147	 -1.284147
H	 0.644857	 2.785961	 -0.454910
H	 1.664911	 1.457888	 -0.953589
C	 -0.679275	 0.379305	 0.025956
H	 -1.302633	 1.729754	 -1.540683
H	 -0.307531	 0.409850	 -2.092710
C	 -1.903357	 -0.536963	 -0.023547
H	 -0.803503	 1.097578	 0.834969
H	 0.199828	 -0.212357	 0.276873
C	 -3.225172	 0.228290	 0.028445
H	 -1.867824	 -1.134999	 -0.931459
H	 -1.860449	 -1.239604	 0.805977
H	 -3.313397	 0.915643	 -0.808262
H	 -4.073500	 -0.448134	 -0.008893
H	 -3.306061	 0.809945	 0.942516

	symmetry c1
}
set optking {
	frozen_dihedral = ("
		6 3 5 9,
		12 8 5 9,
		1 2 3 6
	")
}

ee = energy('scf')
oeprop('DIPOLE', 'QUADRUPOLE', 'MULLIKEN_CHARGES')
f=open( 'psi4out.xyz', 'w' )
f.write( "19  " )
f.write( str(ee) + "\n" )
f.write( MOL.save_string_xyz() )
f.close()
--------------------------------------------------------------------------

    Molecular point group: c1

    Geometry (in Angstrom), charge = 0, multiplicity = 1:

       Center              X                  Y                   Z               Mass
    ------------   -----------------  -----------------  -----------------  -----------------
           H          2.441947746876     2.374533426386    -1.588764084835     1.007825032070
           N          1.679728746876     1.726560426386    -1.640706084835    14.003074004780
           C          1.517247746876     1.018792426386    -0.378886084835    12.000000000000
           H          1.896333746876     1.083522426386    -2.378551084835     1.007825032070
           C          0.297223746876     0.105133426386    -0.429117084835    12.000000000000
           H          1.376788746876     1.761947426386     0.400119915165     1.007825032070
           H          2.396842746876     0.433874426386    -0.098559084835     1.007825032070
           C          0.052656746876    -0.644708573614     0.880985915165    12.000000000000
           H         -0.570701253124     0.705740426386    -0.685653084835     1.007825032070
           H          0.424400746876    -0.614163573614    -1.237680084835     1.007825032070
           C         -1.171425253124    -1.560976573614     0.831482915165    12.000000000000
           H         -0.071571253124     0.073564426386     1.689998915165     1.007825032070
           H          0.931759746876    -1.236370573614     1.131902915165     1.007825032070
           C         -2.493240253124    -0.795723573614     0.883474915165    12.000000000000
           H         -1.135892253124    -2.159012573614    -0.076429084835     1.007825032070
           H         -1.128517253124    -2.263617573614     1.661006915165     1.007825032070
           H         -2.581465253124    -0.108370573614     0.046767915165     1.007825032070
           H         -3.341568253124    -1.472147573614     0.846136915165     1.007825032070
           H         -2.574129253124    -0.214068573614     1.797545915165     1.007825032070

  Charge       = 0
  Multiplicity = 1
  Basis Set: 6-31G*
  Basis Set:

    Orbital Energies (a.u.)
    -----------------------

    Doubly Occupied:

       1A    -15.532483     2A    -11.239682     3A    -11.213551
       4A    -11.212349     5A    -11.209114     6A    -11.205847
       7A     -1.176591     8A     -1.073928     9A     -0.994645
      10A     -0.902346    11A     -0.820901    12A     -0.779900
      13A     -0.663730    14A     -0.639126    15A     -0.605691
      16A     -0.596554    17A     -0.586286    18A     -0.536063
      19A     -0.516453    20A     -0.511174    21A     -0.485331
      22A     -0.462722    23A     -0.454634    24A     -0.449079
      25A     -0.381093

  @DF-RHF Final Energy:  -251.34972766952600

   => Energetics <=

    Nuclear Repulsion Energy =            249.0973373913623448
    One-Electron Energy =                -832.3958937570598664
    Two-Electron Energy =                 331.9488286961715175
    DFT Exchange-Correlation Energy =       0.0000000000000000
    Empirical Dispersion Energy =           0.0000000000000000
    PCM Polarization Energy =               0.0000000000000000
    EFP Energy =                            0.0000000000000000
    Total Energy =                       -251.3497276695260325

  Mulliken Charges: (a.u.)
   Center  Symbol    Alpha    Beta     Spin     Total
       1     H     0.33250  0.33250  0.00000  0.33499
       2     N     3.92190  3.92190  0.00000 -0.84380
       3     C     3.05970  3.05970  0.00000 -0.11940
       4     H     0.33538  0.33538  0.00000  0.32923
       5     C     3.15377  3.15377  0.00000 -0.30754
       6     H     0.42087  0.42087  0.00000  0.15826
       7     H     0.43477  0.43477  0.00000  0.13045
       8     C     3.15713  3.15713  0.00000 -0.31427
       9     H     0.41142  0.41142  0.00000  0.17715
      10     H     0.42770  0.42770  0.00000  0.14460
      11     C     3.15261  3.15261  0.00000 -0.30522
      12     H     0.42355  0.42355  0.00000  0.15289
      13     H     0.42273  0.42273  0.00000  0.15455
      14     C     3.24120  3.24120  0.00000 -0.48240
      15     H     0.42308  0.42308  0.00000  0.15384
      16     H     0.42111  0.42111  0.00000  0.15778
      17     H     0.41893  0.41893  0.00000  0.16215
      18     H     0.41965  0.41965  0.00000  0.16071
      19     H     0.42198  0.42198  0.00000  0.15603

   Total alpha = 25.00000, Total beta = 25.00000, Total charge =  0.00000
