  ==> Input File <==

--------------------------------------------------------------------------
set {
	reference rhf
	basis 6-31G*
}

set_num_threads( 1 )
memory 2 gb

molecule MOL {
0 1

O	 -2.439739	 -0.935931	 -0.423848
C	 -1.921153	 0.064240	 -0.045697
C	 -2.624470	 1.379923	 0.150949
O	 -0.632575	 0.154573	 0.251549
H	 -2.168117	 2.136577	 -0.476876
H	 -3.669540	 1.273223	 -0.098610
H	 -2.519365	 1.700893	 1.180846
C	 0.160891	 -1.019931	 0.106212
C	 1.589627	 -0.672828	 0.480843
H	 0.089836	 -1.367806	 -0.916050
H	 -0.238459	 -1.792301	 0.749618
C	 1.910807	 -0.878572	 1.962367
H	 1.753777	 0.368900	 0.212907
H	 2.266426	 -1.263670	 -0.130801
C	 3.348522	 -0.494371	 2.309304
H	 1.223268	 -0.287035	 2.563595
H	 1.738024	 -1.916774	 2.226264
H	 3.551581	 -0.650018	 3.364090
H	 3.541773	 0.551149	 2.086099
H	 4.060385	 -1.089570	 1.744445

	symmetry c1
}
set optking {
	frozen_dihedral = ("
		16 12 9 8,
		2 4 8 10,
		1 2 4 8
	")
}

ee = energy('scf')
oeprop('DIPOLE', 'QUADRUPOLE', 'MULLIKEN_CHARGES')
f=open( 'psi4out.xyz', 'w' )
f.write( "20  " )
f.write( str(ee) + "\n" )
f.write( MOL.save_string_xyz() )
f.close()
--------------------------------------------------------------------------

    Molecular point group: c1

    Geometry (in Angstrom), charge = 0, multiplicity = 1:

       Center              X                  Y                   Z               Mass
    ------------   -----------------  -----------------  -----------------  -----------------
           O         -2.354750592893    -0.640360403985    -1.021823371576    15.994914619560
           C         -1.836164592893     0.359810596015    -0.643672371576    12.000000000000
           C         -2.539481592893     1.675493596015    -0.447026371576    12.000000000000
           O         -0.547586592893     0.450143596015    -0.346426371576    15.994914619560
           H         -2.083128592893     2.432147596015    -1.074851371576     1.007825032070
           H         -3.584551592893     1.568793596015    -0.696585371576     1.007825032070
           H         -2.434376592893     1.996463596015     0.582870628424     1.007825032070
           C          0.245879407107    -0.724360403985    -0.491763371576    12.000000000000
           C          1.674615407107    -0.377257403985    -0.117132371576    12.000000000000
           H          0.174824407107    -1.072235403985    -1.514025371576     1.007825032070
           H         -0.153470592893    -1.496730403985     0.151642628424     1.007825032070
           C          1.995795407107    -0.583001403985     1.364391628424    12.000000000000
           H          1.838765407107     0.664470596015    -0.385068371576     1.007825032070
           H          2.351414407107    -0.968099403985    -0.728776371576     1.007825032070
           C          3.433510407107    -0.198800403985     1.711328628424    12.000000000000
           H          1.308256407107     0.008535596015     1.965619628424     1.007825032070
           H          1.823012407107    -1.621203403985     1.628288628424     1.007825032070
           H          3.636569407107    -0.354447403985     2.766114628424     1.007825032070
           H          3.626761407107     0.846719596015     1.488123628424     1.007825032070
           H          4.145373407107    -0.793999403985     1.146469628424     1.007825032070

  Charge       = 0
  Multiplicity = 1
  Basis Set: 6-31G*
  Basis Set:

    Orbital Energies (a.u.)
    -----------------------

    Doubly Occupied:

       1A    -20.601494     2A    -20.543713     3A    -11.374066
       4A    -11.281409     5A    -11.233193     6A    -11.224096
       7A    -11.222721     8A    -11.214191     9A     -1.467593
      10A     -1.361856    11A     -1.086606    12A     -1.028752
      13A     -0.981147    14A     -0.880459    15A     -0.808333
      16A     -0.780501    17A     -0.689451    18A     -0.681316
      19A     -0.667046    20A     -0.631022    21A     -0.603288
      22A     -0.592542    23A     -0.571351    24A     -0.552273
      25A     -0.545100    26A     -0.526792    27A     -0.513759
      28A     -0.482287    29A     -0.478145    30A     -0.473819
      31A     -0.447391    32A     -0.437731

  @DF-RHF Final Energy:  -383.94278758057425

   => Energetics <=

    Nuclear Repulsion Energy =            382.7883317806111449
    One-Electron Energy =               -1281.4953225284875771
    Two-Electron Energy =                 514.7642031673027532
    DFT Exchange-Correlation Energy =       0.0000000000000000
    Empirical Dispersion Energy =           0.0000000000000000
    PCM Polarization Energy =               0.0000000000000000
    EFP Energy =                            0.0000000000000000
    Total Energy =                       -383.9427875805737358

  Mulliken Charges: (a.u.)
   Center  Symbol    Alpha    Beta     Spin     Total
       1     O     4.28340  4.28340  0.00000 -0.56680
       2     C     2.61957  2.61957  0.00000  0.76086
       3     C     3.28153  3.28153  0.00000 -0.56306
       4     O     4.30950  4.30950  0.00000 -0.61901
       5     H     0.40061  0.40061  0.00000  0.19879
       6     H     0.39693  0.39693  0.00000  0.20614
       7     H     0.40082  0.40082  0.00000  0.19836
       8     C     3.00235  3.00235  0.00000 -0.00471
       9     C     3.16667  3.16667  0.00000 -0.33335
      10     H     0.40812  0.40812  0.00000  0.18376
      11     H     0.41024  0.41024  0.00000  0.17953
      12     C     3.15643  3.15643  0.00000 -0.31286
      13     H     0.40961  0.40961  0.00000  0.18078
      14     H     0.41735  0.41735  0.00000  0.16530
      15     C     3.24071  3.24071  0.00000 -0.48142
      16     H     0.41658  0.41658  0.00000  0.16683
      17     H     0.42107  0.42107  0.00000  0.15786
      18     H     0.41738  0.41738  0.00000  0.16523
      19     H     0.41997  0.41997  0.00000  0.16006
      20     H     0.42115  0.42115  0.00000  0.15770

   Total alpha = 32.00000, Total beta = 32.00000, Total charge = -0.00000
