                              Psi4 1.0.54 Driver

  ==> Input File <==

--------------------------------------------------------------------------
set {
	reference rhf
	basis cc-pvtz
}

set_num_threads( 4 )
memory 2 gb

molecule MOL {
0 1

O	 1.935651	 1.509804	 -1.292641
C	 0.861016	 1.271388	 -0.820374
C	 -0.278841	 2.253216	 -0.998055
N	 0.622280	 0.144970	 -0.099307
H	 -0.650804	 2.602906	 -0.043222
H	 0.101181	 3.089750	 -1.560449
H	 -1.104475	 1.805817	 -1.537626
C	 1.664396	 -0.854993	 0.000772
C	 -0.693906	 -0.293367	 0.299777
H	 2.462727	 -0.615153	 -0.690869
H	 1.261798	 -1.821849	 -0.240651
H	 2.081615	 -0.891605	 1.003877
H	 -0.624452	 -0.809676	 1.248585
H	 -1.367855	 0.536024	 0.429383
H	 -1.129141	 -0.980762	 -0.422097

	symmetry c1
}
set optking {
	frozen_dihedral = ("
		2 4 8 10
	")
}

ee,wfn = optimize('scf', return_wfn=True)
oeprop( wfn, 'DIPOLE', 'QUADRUPOLE', 'MULLIKEN_CHARGES')
f=open( 'psi4out.xyz', 'w' )
f.write( "15  " )
f.write( str(ee) + "\n" )
f.write( MOL.save_string_xyz() )
f.close()
--------------------------------------------------------------------------

    Molecular point group: c1
  Charge       = 0
  Multiplicity = 1
  Basis Set: CC-PVTZ
  Basis Set:
  @DF-RHF Final Energy:  -286.13463352814159
    Total Energy =                       -286.1346335281418192
    Molecular point group: c1
  Basis Set: CC-PVTZ
  Basis Set:
  Basis Set: CC-PVTZ
  Basis Set:
  @DF-RHF Final Energy:  -286.13507394050691
    Total Energy =                       -286.1350739405069703
  Basis Set: CC-PVTZ
  Basis Set:
  Basis Set: CC-PVTZ
  Basis Set:
  @DF-RHF Final Energy:  -286.13472498280129
    Total Energy =                       -286.1347249828014583
  Basis Set: CC-PVTZ
  Basis Set:
  Basis Set: CC-PVTZ
  Basis Set:
  @DF-RHF Final Energy:  -286.13534733878998
    Total Energy =                       -286.1353473387899840
  Basis Set: CC-PVTZ
  Basis Set:
  @DF-RHF Final Energy:  -286.13540770124825
    Total Energy =                       -286.1354077012483117
  @DF-RHF Final Energy:  -286.13543387414143
    Total Energy =                       -286.1354338741413699
  @DF-RHF Final Energy:  -286.13545744392400
    Total Energy =                       -286.1354574439239968
  @DF-RHF Final Energy:  -286.13547259032168
    Total Energy =                       -286.1354725903216831
  @DF-RHF Final Energy:  -286.13550228131783
    Total Energy =                       -286.1355022813175992
  @DF-RHF Final Energy:  -286.13553840888369
    Total Energy =                       -286.1355384088836900
  @DF-RHF Final Energy:  -286.13555809124125
    Total Energy =                       -286.1355580912411369
  @DF-RHF Final Energy:  -286.13559202852321
    Total Energy =                       -286.1355920285230354
  @DF-RHF Final Energy:  -286.13559872856325
    Total Energy =                       -286.1355987285633091
  @DF-RHF Final Energy:  -286.13560040596155
    Total Energy =                       -286.1356004059616112
  @DF-RHF Final Energy:  -286.13560430987923
    Total Energy =                       -286.1356043098789996
  Basis Set: CC-PVTZ
  Basis Set:
  @DF-RHF Final Energy:  -286.13560791856082
    Total Energy =                       -286.1356079185611634
  Basis Set: CC-PVTZ
  Basis Set:
  Basis Set: CC-PVTZ
  Basis Set:
  @DF-RHF Final Energy:  -286.13561262463497
    Total Energy =                       -286.1356126246352005
  Basis Set: CC-PVTZ
  Basis Set:
  Basis Set: CC-PVTZ
  Basis Set:
  @DF-RHF Final Energy:  -286.13561511890663
    Total Energy =                       -286.1356151189066850
  Basis Set: CC-PVTZ
  Basis Set:
  Charge       = 0
  Multiplicity = 1
  Basis Set: CC-PVTZ
  Basis Set:

    Orbital Energies (a.u.)
    -----------------------

    Doubly Occupied:

       1A    -20.502570     2A    -15.578806     3A    -11.335342
       4A    -11.264123     5A    -11.246425     6A    -11.226437
       7A     -1.386630     8A     -1.246611     9A     -1.015101
      10A     -0.973415    11A     -0.921502    12A     -0.739387
      13A     -0.683389    14A     -0.662182    15A     -0.653861
      16A     -0.590707    17A     -0.577949    18A     -0.566842
      19A     -0.561437    20A     -0.548758    21A     -0.530492
      22A     -0.507706    23A     -0.413011    24A     -0.369854

  @DF-RHF Final Energy:  -286.13561759483810

   => Energetics <=

    Nuclear Repulsion Energy =            252.8124775791729633
    One-Electron Energy =                -889.6911167705861772
    Two-Electron Energy =                 350.7430215965750904
    DFT Exchange-Correlation Energy =       0.0000000000000000
    Empirical Dispersion Energy =           0.0000000000000000
    PCM Polarization Energy =               0.0000000000000000
    EFP Energy =                            0.0000000000000000
    Total Energy =                       -286.1356175948380951
    Molecular point group: c1
  Basis Set: CC-PVTZ
  Basis Set:

  -Total Gradient:
     Atom            X                  Y                   Z
    ------   -----------------  -----------------  -----------------
       1       -0.000008877673    -0.000005527709     0.000005077771
       2        0.000001044029     0.000002291125    -0.000108980852
       3       -0.000007425894    -0.000005988866    -0.000010358792
       4        0.000042671758     0.000046058217     0.000195168612
       5        0.000001171721    -0.000003946725     0.000010768264
       6        0.000001976757     0.000002842758    -0.000000788482
       7       -0.000004643800    -0.000001947448    -0.000001910751
       8       -0.000038780622    -0.000101973788    -0.000188451958
       9       -0.000003127002    -0.000000942049    -0.000016561270
      10        0.000035463321     0.000058926354     0.000109096844
      11        0.000000407645    -0.000002220804    -0.000001663347
      12       -0.000001124357     0.000004519779     0.000003463760
      13        0.000018184112     0.000008179573     0.000018264423
      14       -0.000026086022     0.000033270808    -0.000010348992
      15       -0.000010853968    -0.000033541222    -0.000002775233

  **** Optimization is complete! (in 19 steps) ****
    Final optimized geometry and variables:
    Molecular point group: c1

    Geometry (in Angstrom), charge = 0, multiplicity = 1:

    O            1.281672567209     0.901115935818    -0.711518222340
    C            0.185183844617     0.620711797645    -0.318150842436
    C           -0.933767207552     1.637799931884    -0.415545784925
    N           -0.105185581583    -0.595753571376     0.208511111919
    H           -1.341763656351     1.873424580119     0.559433745452
    H           -0.518693972831     2.530466188109    -0.852896319772
    H           -1.740820259686     1.276683869373    -1.040724638818
    C            0.952905726377    -1.566985061254     0.384599138478
    C           -1.366473965117    -0.949536554093     0.812671191619
    H            1.843281386130    -1.223138414788    -0.108868079411
    H            0.653981548805    -2.520478394690    -0.036316858563
    H            1.168571720057    -1.714582128149     1.439179478068
    H           -1.312522432967    -0.915835194488     1.897994866401
    H           -2.160894106357    -0.298532196773     0.492041047428
    H           -1.633188615976    -1.959683830413     0.525648199221

  Mulliken Charges: (a.u.)
   Center  Symbol    Alpha    Beta     Spin     Total
       1     O     4.22207  4.22207  0.00000 -0.44415
       2     C     2.84649  2.84649  0.00000  0.30701
       3     C     3.16044  3.16044  0.00000 -0.32089
       4     N     3.55924  3.55924  0.00000 -0.11849
       5     H     0.44948  0.44948  0.00000  0.10103
       6     H     0.42851  0.42851  0.00000  0.14298
       7     H     0.44932  0.44932  0.00000  0.10136
       8     C     3.10049  3.10049  0.00000 -0.20099
       9     C     3.09485  3.09485  0.00000 -0.18969
      10     H     0.42512  0.42512  0.00000  0.14975
      11     H     0.45636  0.45636  0.00000  0.08727
      12     H     0.45801  0.45801  0.00000  0.08398
      13     H     0.45400  0.45400  0.00000  0.09200
      14     H     0.44496  0.44496  0.00000  0.11008
      15     H     0.45064  0.45064  0.00000  0.09873

   Total alpha = 24.00000, Total beta = 24.00000, Total charge = -0.00000

*** Psi4 exiting successfully. Buy a developer a beer!
