  ==> Input File <==

--------------------------------------------------------------------------
set {
	reference rhf
	basis 6-31G*
}

set_num_threads( 1 )
memory 2 gb

molecule MOL {
0 1

H	 -4.031818	 -0.453427	 -0.000094
C	 -2.967712	 -0.297022	 -0.000064
C	 -2.458620	 0.992929	 0.000032
C	 -2.109895	 -1.385637	 -0.000122
H	 -3.124998	 1.836319	 0.000077
C	 -1.090278	 1.193236	 0.000070
H	 -2.506361	 -2.384847	 -0.000198
C	 -0.739812	 -1.187531	 -0.000085
H	 -0.678594	 2.184290	 0.000146
C	 -0.226438	 0.104061	 0.000012
H	 -0.072310	 -2.027032	 -0.000131
C	 1.239129	 0.373821	 0.000060
O	 1.674248	 0.877792	 -1.145055
O	 1.954831	 0.161943	 0.928358
C	 3.058589	 1.165186	 -1.232677
H	 3.341229	 1.895312	 -0.488482
H	 3.214309	 1.560534	 -2.224294
H	 3.641271	 0.266741	 -1.090559

	symmetry c1
}
set optking {
	frozen_dihedral = ("
		12 13 15 16,
		10 12 13 15
	")
}

ee = energy('scf')
oeprop('DIPOLE', 'QUADRUPOLE', 'MULLIKEN_CHARGES')
f=open( 'psi4out.xyz', 'w' )
f.write( "18  " )
f.write( str(ee) + "\n" )
f.write( MOL.save_string_xyz() )
f.close()
--------------------------------------------------------------------------

    Molecular point group: c1

    Geometry (in Angstrom), charge = 0, multiplicity = 1:

       Center              X                  Y                   Z               Mass
    ------------   -----------------  -----------------  -----------------  -----------------
           H         -3.989829720710    -0.681569917025     0.162289250917     1.007825032070
           C         -2.925723720710    -0.525164917025     0.162319250917    12.000000000000
           C         -2.416631720710     0.764786082975     0.162415250917    12.000000000000
           C         -2.067906720710    -1.613779917025     0.162261250917    12.000000000000
           H         -3.083009720710     1.608176082975     0.162460250917     1.007825032070
           C         -1.048289720710     0.965093082975     0.162453250917    12.000000000000
           H         -2.464372720710    -2.612989917025     0.162185250917     1.007825032070
           C         -0.697823720710    -1.415673917025     0.162298250917    12.000000000000
           H         -0.636605720710     1.956147082975     0.162529250917     1.007825032070
           C         -0.184449720710    -0.124081917025     0.162395250917    12.000000000000
           H         -0.030321720710    -2.255174917025     0.162252250917     1.007825032070
           C          1.281117279290     0.145678082975     0.162443250917    12.000000000000
           O          1.716236279290     0.649649082975    -0.982671749083    15.994914619560
           O          1.996819279290    -0.066199917025     1.090741250917    15.994914619560
           C          3.100577279290     0.937043082975    -1.070293749083    12.000000000000
           H          3.383217279290     1.667169082975    -0.326098749083     1.007825032070
           H          3.256297279290     1.332391082975    -2.061910749083     1.007825032070
           H          3.683259279290     0.038598082975    -0.928175749083     1.007825032070

  Charge       = 0
  Multiplicity = 1
  Basis Set: 6-31G*
  Basis Set:

    Orbital Energies (a.u.)
    -----------------------

    Doubly Occupied:

       1A    -20.609796     2A    -20.549377     3A    -11.380250
       4A    -11.283391     5A    -11.251611     6A    -11.245009
       7A    -11.244042     8A    -11.241445     9A    -11.240047
      10A    -11.239510    11A     -1.474649    12A     -1.365623
      13A     -1.166660    14A     -1.049546    15A     -1.026493
      16A     -0.979383    17A     -0.861195    18A     -0.838745
      19A     -0.779973    20A     -0.738132    21A     -0.686404
      22A     -0.679468    23A     -0.675693    24A     -0.631012
      25A     -0.629921    26A     -0.598411    27A     -0.591052
      28A     -0.547953    29A     -0.535928    30A     -0.517353
      31A     -0.508172    32A     -0.501768    33A     -0.458577
      34A     -0.444949    35A     -0.343379    36A     -0.341866

  @DF-RHF Final Energy:  -457.33929722702169

   => Energetics <=

    Nuclear Repulsion Energy =            491.7603866039980858
    One-Electron Energy =               -1597.6861926370929723
    Two-Electron Energy =                 648.5865088060735388
    DFT Exchange-Correlation Energy =       0.0000000000000000
    Empirical Dispersion Energy =           0.0000000000000000
    PCM Polarization Energy =               0.0000000000000000
    EFP Energy =                            0.0000000000000000
    Total Energy =                       -457.3392972270213477

  Mulliken Charges: (a.u.)
   Center  Symbol    Alpha    Beta     Spin     Total
       1     H     0.39647  0.39647  0.00000  0.20706
       2     C     3.09686  3.09686  0.00000 -0.19372
       3     C     3.09995  3.09995  0.00000 -0.19990
       4     C     3.10106  3.10106  0.00000 -0.20211
       5     H     0.39564  0.39564  0.00000  0.20871
       6     C     3.09555  3.09555  0.00000 -0.19111
       7     H     0.39523  0.39523  0.00000  0.20955
       8     C     3.09716  3.09716  0.00000 -0.19432
       9     H     0.39089  0.39089  0.00000  0.21822
      10     C     3.01223  3.01223  0.00000 -0.02446
      11     H     0.38915  0.38915  0.00000  0.22169
      12     C     2.63935  2.63935  0.00000  0.72129
      13     O     4.29684  4.29684  0.00000 -0.59367
      14     O     4.27703  4.27703  0.00000 -0.55405
      15     C     3.09379  3.09379  0.00000 -0.18757
      16     H     0.40829  0.40829  0.00000  0.18343
      17     H     0.40668  0.40668  0.00000  0.18664
      18     H     0.40784  0.40784  0.00000  0.18433

   Total alpha = 36.00000, Total beta = 36.00000, Total charge =  0.00000
