                              Psi4 1.0.54 Driver

  ==> Input File <==

--------------------------------------------------------------------------
set {
	reference rhf
	basis cc-pvtz
}

set_num_threads( 4 )
memory 2 gb

molecule MOL {
0 1

O	 0.619620	 1.342431	 0.111575
C	 0.485107	 0.171416	 -0.000134
C	 1.606966	 -0.836201	 0.000174
O	 -0.690034	 -0.416304	 -0.142307
C	 2.988788	 -0.202529	 -0.000115
H	 1.465110	 -1.474645	 -0.864821
H	 1.465209	 -1.474077	 0.865596
H	 3.131767	 0.419673	 -0.873407
H	 3.750876	 -0.972315	 0.000098
H	 3.131883	 0.420264	 0.872742
C	 -1.846158	 0.409121	 -0.160710
C	 -3.050320	 -0.486705	 -0.333851
H	 -1.760016	 1.119259	 -0.971038
H	 -1.896284	 0.967244	 0.763579
H	 -2.988584	 -1.041037	 -1.261901
H	 -3.952582	 0.113144	 -0.352207
H	 -3.125683	 -1.193874	 0.482607

	symmetry c1
}
set optking {
	frozen_dihedral = ("
		4 2 3 6
	")
}

ee,wfn = optimize('scf', return_wfn=True)
oeprop( wfn, 'DIPOLE', 'QUADRUPOLE', 'MULLIKEN_CHARGES')
f=open( 'psi4out.xyz', 'w' )
f.write( "17  " )
f.write( str(ee) + "\n" )
f.write( MOL.save_string_xyz() )
f.close()
--------------------------------------------------------------------------

    Molecular point group: c1
  Charge       = 0
  Multiplicity = 1
  Basis Set: CC-PVTZ
  Basis Set:
  @DF-RHF Final Energy:  -345.04058789218880
    Total Energy =                       -345.0405878921889098
    Molecular point group: c1
  Basis Set: CC-PVTZ
  Basis Set:
  Basis Set: CC-PVTZ
  Basis Set:
  @DF-RHF Final Energy:  -345.04058786333673
    Total Energy =                       -345.0405878633365546
  Basis Set: CC-PVTZ
  Basis Set:
  Basis Set: CC-PVTZ
  Basis Set:
  @DF-RHF Final Energy:  -345.04056581849113
    Total Energy =                       -345.0405658184910180
  Basis Set: CC-PVTZ
  Basis Set:
  Basis Set: CC-PVTZ
  Basis Set:
  @DF-RHF Final Energy:  -345.04060523299478
    Total Energy =                       -345.0406052329948920
  Basis Set: CC-PVTZ
  Basis Set:
  Charge       = 0
  Multiplicity = 1
  Basis Set: CC-PVTZ
  Basis Set:

    Orbital Energies (a.u.)
    -----------------------

    Doubly Occupied:

       1A    -20.593537     2A    -20.532791     3A    -11.363482
       4A    -11.282585     5A    -11.235849     6A    -11.220358
       7A    -11.213931     8A     -1.470513     9A     -1.364830
      10A     -1.070902    11A     -1.032575    12A     -0.911888
      13A     -0.847726    14A     -0.774911    15A     -0.698037
      16A     -0.692516    17A     -0.667861    18A     -0.630207
      19A     -0.584472    20A     -0.573957    21A     -0.558585
      22A     -0.524830    23A     -0.520414    24A     -0.514932
      25A     -0.505737    26A     -0.493759    27A     -0.456077
      28A     -0.439248

  @DF-RHF Final Energy:  -345.04060541042918

   => Energetics <=

    Nuclear Repulsion Energy =            315.2189882108958727
    One-Electron Energy =               -1094.9661694295298275
    Two-Electron Energy =                 434.7065758082047751
    DFT Exchange-Correlation Energy =       0.0000000000000000
    Empirical Dispersion Energy =           0.0000000000000000
    PCM Polarization Energy =               0.0000000000000000
    EFP Energy =                            0.0000000000000000
    Total Energy =                       -345.0406054104291798
    Molecular point group: c1
  Basis Set: CC-PVTZ
  Basis Set:

  -Total Gradient:
     Atom            X                  Y                   Z
    ------   -----------------  -----------------  -----------------
       1       -0.000004068091     0.000028657949    -0.000014939082
       2       -0.000074621925    -0.000135831680     0.000425593921
       3        0.000239367459     0.000274723401    -0.000296785746
       4        0.000047165381     0.000039173088    -0.000324837642
       5        0.000001722011     0.000003953386    -0.000022615924
       6       -0.000192021648    -0.000201345803     0.000189455408
       7       -0.000002589673    -0.000006092840     0.000000047228
       8        0.000002824344    -0.000001638439     0.000005572863
       9       -0.000005655270     0.000002591510     0.000000240355
      10       -0.000004784297    -0.000004800132    -0.000001407288
      11       -0.000015260235    -0.000002499564     0.000116851648
      12       -0.000000059005     0.000002582570    -0.000032504000
      13        0.000016557256    -0.000004399867    -0.000017719320
      14       -0.000008813961     0.000004518004    -0.000022044031
      15       -0.000009285932    -0.000007466732    -0.000000884132
      16        0.000000755544    -0.000001783209    -0.000003367491
      17        0.000008768041     0.000009658359    -0.000000656766

  **** Optimization is complete! (in 5 steps) ****
    Final optimized geometry and variables:
    Molecular point group: c1

    Geometry (in Angstrom), charge = 0, multiplicity = 1:

    O            0.618102274412     1.339620422513     0.174553984907
    C            0.482721453847     0.168366866171     0.065943849573
    C            1.604053744101    -0.839779818946     0.072273736329
    O           -0.693146853921    -0.419068406957    -0.070790061211
    C            2.986305207713    -0.207123571158     0.082138888455
    H            1.466926253637    -1.487512797255    -0.785596351152
    H            1.455747445557    -1.468997159738     0.943891004442
    H            3.139959723879     0.407365667792    -0.795214577305
    H            3.747761360225    -0.977354214028     0.096633790314
    H            3.119496725792     0.422960815508     0.950881043366
    C           -1.849777461192     0.405871695994    -0.074717241898
    C           -3.054874857642    -0.489463297619    -0.243962131874
    H           -1.770254265193     1.120979792213    -0.881284366237
    H           -1.892851408803     0.958296466543     0.853367649402
    H           -3.000237987496    -1.037943101452    -1.175925807519
    H           -3.957513756205     0.110032271269    -0.251460548826
    H           -3.123466531428    -1.201761493086     0.568613313853

  Mulliken Charges: (a.u.)
   Center  Symbol    Alpha    Beta     Spin     Total
       1     O     4.19702  4.19702  0.00000 -0.39404
       2     C     2.80938  2.80938  0.00000  0.38123
       3     C     3.09323  3.09323  0.00000 -0.18647
       4     O     4.15112  4.15112  0.00000 -0.30223
       5     C     3.13979  3.13979  0.00000 -0.27957
       6     H     0.44085  0.44085  0.00000  0.11830
       7     H     0.44256  0.44256  0.00000  0.11489
       8     H     0.44964  0.44964  0.00000  0.10071
       9     H     0.45054  0.45054  0.00000  0.09892
      10     H     0.44710  0.44710  0.00000  0.10579
      11     C     2.98032  2.98032  0.00000  0.03935
      12     C     3.13309  3.13309  0.00000 -0.26617
      13     H     0.45395  0.45395  0.00000  0.09210
      14     H     0.45411  0.45411  0.00000  0.09179
      15     H     0.45139  0.45139  0.00000  0.09722
      16     H     0.45445  0.45445  0.00000  0.09110
      17     H     0.45146  0.45146  0.00000  0.09708

   Total alpha = 28.00000, Total beta = 28.00000, Total charge = -0.00000

*** Psi4 exiting successfully. Buy a developer a beer!
