                              Psi4 1.0.54 Driver

  ==> Input File <==

--------------------------------------------------------------------------
set {
	reference rhf
	basis cc-pvtz
}

set_num_threads( 4 )
memory 2 gb

molecule MOL {
0 1

H	 -1.769398	 -0.959542	 0.086777
O	 -2.041679	 -0.058866	 0.103463
C	 -0.959304	 0.780994	 -0.094939
C	 0.354905	 0.037902	 -0.006215
H	 -0.985899	 1.279578	 -1.057596
H	 -0.969809	 1.529522	 0.682889
F	 0.412060	 -0.931028	 -0.902708
F	 1.359641	 0.856111	 -0.239961
F	 0.545380	 -0.506387	 1.171682

	symmetry c1
}
set optking {
	frozen_dihedral = ("
		1 2 3 5
	")
}

ee,wfn = optimize('scf', return_wfn=True)
oeprop( wfn, 'DIPOLE', 'QUADRUPOLE', 'MULLIKEN_CHARGES')
f=open( 'psi4out.xyz', 'w' )
f.write( "9  " )
f.write( str(ee) + "\n" )
f.write( MOL.save_string_xyz() )
f.close()
--------------------------------------------------------------------------

    Molecular point group: c1
  Charge       = 0
  Multiplicity = 1
  Basis Set: CC-PVTZ
  Basis Set:
  @DF-RHF Final Energy:  -450.84314022962559
    Total Energy =                       -450.8431402296255328
    Molecular point group: c1
  Basis Set: CC-PVTZ
  Basis Set:
  Basis Set: CC-PVTZ
  Basis Set:
  @DF-RHF Final Energy:  -450.84314950293742
    Total Energy =                       -450.8431495029373082
  Basis Set: CC-PVTZ
  Basis Set:
  Basis Set: CC-PVTZ
  Basis Set:
  @DF-RHF Final Energy:  -450.84361761796157
    Total Energy =                       -450.8436176179617405
  Basis Set: CC-PVTZ
  Basis Set:
  Basis Set: CC-PVTZ
  Basis Set:
  @DF-RHF Final Energy:  -450.84362742168491
    Total Energy =                       -450.8436274216848574
  Basis Set: CC-PVTZ
  Basis Set:
  Basis Set: CC-PVTZ
  Basis Set:
  @DF-RHF Final Energy:  -450.84362947630154
    Total Energy =                       -450.8436294763016576
  Basis Set: CC-PVTZ
  Basis Set:
  Charge       = 0
  Multiplicity = 1
  Basis Set: CC-PVTZ
  Basis Set:

    Orbital Energies (a.u.)
    -----------------------

    Doubly Occupied:

       1A    -26.346297     2A    -26.345694     3A    -26.343715
       4A    -20.580672     5A    -11.502056     6A    -11.309914
       7A     -1.755136     8A     -1.652532     9A     -1.649302
      10A     -1.403481    11A     -1.054219    12A     -0.935170
      13A     -0.844319    14A     -0.843717    15A     -0.822024
      16A     -0.727368    17A     -0.726177    18A     -0.685966
      19A     -0.678820    20A     -0.677341    21A     -0.656409
      22A     -0.646760    23A     -0.625999    24A     -0.528665
      25A     -0.481270

  @DF-RHF Final Energy:  -450.84362957322935

   => Energetics <=

    Nuclear Repulsion Energy =            277.9473067095722172
    One-Electron Energy =               -1177.9358261669790409
    Two-Electron Energy =                 449.1448898841774735
    DFT Exchange-Correlation Energy =       0.0000000000000000
    Empirical Dispersion Energy =           0.0000000000000000
    PCM Polarization Energy =               0.0000000000000000
    EFP Energy =                            0.0000000000000000
    Total Energy =                       -450.8436295732293502
    Molecular point group: c1
  Basis Set: CC-PVTZ
  Basis Set:

  -Total Gradient:
     Atom            X                  Y                   Z
    ------   -----------------  -----------------  -----------------
       1        0.000335414684    -0.000033780367     0.001712863597
       2       -0.000568718387     0.000387947229    -0.001981859599
       3        0.000868090953    -0.001540298853    -0.000385543804
       4       -0.000018480873    -0.000006399888     0.000001523220
       5       -0.000632684467     0.001186775441     0.000660461967
       6        0.000007194682     0.000008961171     0.000001614657
       7        0.000013879764    -0.000001083846    -0.000010663528
       8       -0.000010783336    -0.000013851473     0.000004083651
       9        0.000006086972     0.000011730587    -0.000002480155

  **** Optimization is complete! (in 6 steps) ****
    Final optimized geometry and variables:
    Molecular point group: c1

    Geometry (in Angstrom), charge = 0, multiplicity = 1:

    H           -1.904689973404    -0.792057946536     0.111245952547
    O           -2.053223192729     0.135457919562     0.154285560831
    C           -0.888140263710     0.862631782777    -0.052527740777
    C            0.357380857499     0.010655023323    -0.028000273074
    H           -0.917954900118     1.374424592181    -1.006578089854
    H           -0.783781797610     1.604096211001     0.728353952965
    F            0.308175156507    -0.944297351314    -0.938111594124
    F            1.420168549922     0.742654868620    -0.268504732356
    F            0.526840011249    -0.579983812667     1.136443933747

  Mulliken Charges: (a.u.)
   Center  Symbol    Alpha    Beta     Spin     Total
       1     H     0.38656  0.38656  0.00000  0.22689
       2     O     4.19557  4.19557  0.00000 -0.39114
       3     C     2.96925  2.96925  0.00000  0.06149
       4     C     2.68983  2.68983  0.00000  0.62034
       5     H     0.46406  0.46406  0.00000  0.07188
       6     H     0.46022  0.46022  0.00000  0.07955
       7     F     4.61536  4.61536  0.00000 -0.23072
       8     F     4.60743  4.60743  0.00000 -0.21487
       9     F     4.61172  4.61172  0.00000 -0.22343

   Total alpha = 25.00000, Total beta = 25.00000, Total charge = -0.00000

*** Psi4 exiting successfully. Buy a developer a beer!
