  ==> Input File <==

--------------------------------------------------------------------------
set {
	reference rhf
	basis 6-31G*
}

set_num_threads( 1 )
memory 2 gb

molecule MOL {
0 1

O	 0.997377	 1.025656	 0.761749
C	 1.122059	 0.121804	 -0.000188
C	 0.137069	 -0.260433	 -1.077955
O	 2.172624	 -0.688929	 0.000216
C	 -1.092917	 0.640949	 -1.122534
H	 0.670094	 -0.246184	 -2.024758
H	 -0.140723	 -1.297591	 -0.910950
C	 -2.073989	 0.231814	 -2.222295
H	 -0.778555	 1.668995	 -1.273534
H	 -1.590295	 0.616452	 -0.157900
C	 -3.309934	 1.128949	 -2.273206
H	 -1.570343	 0.257288	 -3.186540
H	 -2.383728	 -0.799799	 -2.067677
H	 -3.035636	 2.162946	 -2.460994
H	 -3.988658	 0.817758	 -3.061096
H	 -3.855156	 1.097823	 -1.334375
C	 3.452279	 -0.082609	 0.000533
H	 3.583069	 0.529321	 -0.880332
H	 4.163299	 -0.894027	 0.001117
H	 3.582335	 0.529955	 0.881077

	symmetry c1
}
set optking {
	frozen_dihedral = ("
		9 5 8 12,
		1 2 3 6,
		9 5 3 6
	")
}

ee = energy('scf')
oeprop('DIPOLE', 'QUADRUPOLE', 'MULLIKEN_CHARGES')
f=open( 'psi4out.xyz', 'w' )
f.write( "20  " )
f.write( str(ee) + "\n" )
f.write( MOL.save_string_xyz() )
f.close()
--------------------------------------------------------------------------

    Molecular point group: c1

    Geometry (in Angstrom), charge = 0, multiplicity = 1:

       Center              X                  Y                   Z               Mass
    ------------   -----------------  -----------------  -----------------  -----------------
           O          0.789487547088     0.756631987412     1.491955223452    15.994914619560
           C          0.914169547088    -0.147220012588     0.730018223452    12.000000000000
           C         -0.070820452912    -0.529457012588    -0.347748776548    12.000000000000
           O          1.964734547088    -0.957953012588     0.730422223452    15.994914619560
           C         -1.300806452912     0.371924987412    -0.392327776548    12.000000000000
           H          0.462204547088    -0.515208012588    -1.294551776548     1.007825032070
           H         -0.348612452912    -1.566615012588    -0.180743776548     1.007825032070
           C         -2.281878452912    -0.037210012588    -1.492088776548    12.000000000000
           H         -0.986444452912     1.399970987412    -0.543327776548     1.007825032070
           H         -1.798184452912     0.347427987412     0.572306223452     1.007825032070
           C         -3.517823452912     0.859924987412    -1.542999776548    12.000000000000
           H         -1.778232452912    -0.011736012588    -2.456333776548     1.007825032070
           H         -2.591617452912    -1.068823012588    -1.337470776548     1.007825032070
           H         -3.243525452912     1.893921987412    -1.730787776548     1.007825032070
           H         -4.196547452912     0.548733987412    -2.330889776548     1.007825032070
           H         -4.063045452912     0.828798987412    -0.604168776548     1.007825032070
           C          3.244389547088    -0.351633012588     0.730739223452    12.000000000000
           H          3.375179547088     0.260296987412    -0.150125776548     1.007825032070
           H          3.955409547088    -1.163051012588     0.731323223452     1.007825032070
           H          3.374445547088     0.260930987412     1.611283223452     1.007825032070

  Charge       = 0
  Multiplicity = 1
  Basis Set: 6-31G*
  Basis Set:

    Orbital Energies (a.u.)
    -----------------------

    Doubly Occupied:

       1A    -20.593157     2A    -20.550266     3A    -11.373243
       4A    -11.287344     5A    -11.236126     6A    -11.220619
       7A    -11.219333     8A    -11.210921     9A     -1.466260
      10A     -1.364312    11A     -1.088602    12A     -1.022462
      13A     -0.971716    14A     -0.889476    15A     -0.804894
      16A     -0.768126    17A     -0.696302    18A     -0.681415
      19A     -0.673164    20A     -0.644605    21A     -0.605750
      22A     -0.591819    23A     -0.583244    24A     -0.546950
      25A     -0.535742    26A     -0.515091    27A     -0.501029
      28A     -0.481188    29A     -0.476278    30A     -0.470417
      31A     -0.452624    32A     -0.433164

  @DF-RHF Final Energy:  -383.92967571085336

   => Energetics <=

    Nuclear Repulsion Energy =            381.4000535774801506
    One-Electron Energy =               -1278.7483152804625206
    Two-Electron Energy =                 513.4185859921283281
    DFT Exchange-Correlation Energy =       0.0000000000000000
    Empirical Dispersion Energy =           0.0000000000000000
    PCM Polarization Energy =               0.0000000000000000
    EFP Energy =                            0.0000000000000000
    Total Energy =                       -383.9296757108540987

  Mulliken Charges: (a.u.)
   Center  Symbol    Alpha    Beta     Spin     Total
       1     O     4.27307  4.27307  0.00000 -0.54615
       2     C     2.60656  2.60656  0.00000  0.78689
       3     C     3.21025  3.21025  0.00000 -0.42051
       4     O     4.31030  4.31030  0.00000 -0.62059
       5     C     3.15200  3.15200  0.00000 -0.30401
       6     H     0.40478  0.40478  0.00000  0.19045
       7     H     0.39923  0.39923  0.00000  0.20154
       8     C     3.15404  3.15404  0.00000 -0.30807
       9     H     0.41302  0.41302  0.00000  0.17397
      10     H     0.41119  0.41119  0.00000  0.17762
      11     C     3.23927  3.23927  0.00000 -0.47854
      12     H     0.42365  0.42365  0.00000  0.15270
      13     H     0.42265  0.42265  0.00000  0.15470
      14     H     0.42023  0.42023  0.00000  0.15955
      15     H     0.41878  0.41878  0.00000  0.16243
      16     H     0.41970  0.41970  0.00000  0.16061
      17     C     3.09506  3.09506  0.00000 -0.19012
      18     H     0.41828  0.41828  0.00000  0.16343
      19     H     0.40541  0.40541  0.00000  0.18917
      20     H     0.40253  0.40253  0.00000  0.19494

   Total alpha = 32.00000, Total beta = 32.00000, Total charge = -0.00000
