  ==> Input File <==

--------------------------------------------------------------------------
set {
	reference rhf
	basis 6-31G*
}

set_num_threads( 4 )
memory 2 gb

molecule MOL {
0 1

H	 2.465338	 -2.224223	 0.000000
O	 2.784187	 -1.332015	 0.000000
C	 1.765313	 -0.449364	 0.000000
C	 0.662572	 -0.746925	 -0.794584
C	 1.786834	 0.711645	 0.748151
H	 0.669876	 -1.655446	 -1.366768
C	 -0.411992	 0.117123	 -0.836980
H	 2.623230	 0.965861	 1.368911
C	 0.690924	 1.556888	 0.682102
H	 -1.259224	 -0.120421	 -1.453119
C	 -0.414377	 1.290252	 -0.094276
N	 0.718814	 2.783753	 1.475519
H	 -1.240435	 1.970343	 -0.116806
O	 1.688739	 2.991785	 2.140351
O	 -0.228335	 3.505742	 1.413033

	symmetry c1
}
set optking {
	frozen_dihedral = ("
		4 3 2 1
	")
}

ee = optimize('scf')
oeprop('DIPOLE', 'QUADRUPOLE', 'MULLIKEN_CHARGES')
f=open( 'psi4out.xyz', 'w' )
f.write( "15  " )
f.write( str(ee) + "\n" )
f.write( MOL.save_string_xyz() )
f.close()
--------------------------------------------------------------------------

    Molecular point group: c1
  Charge       = 0
  Multiplicity = 1
  Basis Set: 6-31G*
  Basis Set:
  @DF-RHF Final Energy:  -509.02317829170471
    Total Energy =                       -509.0231782917045393
    Molecular point group: c1
  Basis Set: 6-31G*
  Basis Set:
  Basis Set: 6-31G*
  Basis Set:
  @DF-RHF Final Energy:  -509.02508291427353
    Total Energy =                       -509.0250829142740940
  Basis Set: 6-31G*
  Basis Set:
  Basis Set: 6-31G*
  Basis Set:
  @DF-RHF Final Energy:  -509.00993305412635
    Total Energy =                       -509.0099330541263498
  Basis Set: 6-31G*
  Basis Set:
  Basis Set: 6-31G*
  Basis Set:
  @DF-RHF Final Energy:  -509.02478920417758
    Total Energy =                       -509.0247892041775231
  Basis Set: 6-31G*
  Basis Set:
  Basis Set: 6-31G*
  Basis Set:
  @DF-RHF Final Energy:  -509.02526405907537
    Total Energy =                       -509.0252640590745159
  Basis Set: 6-31G*
  Basis Set:
  Basis Set: 6-31G*
  Basis Set:
  @DF-RHF Final Energy:  -509.02527790128670
    Total Energy =                       -509.0252779012869269
  Basis Set: 6-31G*
  Basis Set:
  Charge       = 0
  Multiplicity = 1
  Basis Set: 6-31G*
  Basis Set:

    Orbital Energies (a.u.)
    -----------------------

    Doubly Occupied:

       1A    -20.609950     2A    -20.602465     3A    -20.602104
       4A    -15.856957     5A    -11.326909     6A    -11.309206
       7A    -11.268201     8A    -11.266258     9A    -11.264937
      10A    -11.264343    11A     -1.635876    12A     -1.429347
      13A     -1.419159    14A     -1.200069    15A     -1.094240
      16A     -1.047270    17A     -0.964087    18A     -0.864264
      19A     -0.843525    20A     -0.794485    21A     -0.734816
      22A     -0.732311    23A     -0.718319    24A     -0.710829
      25A     -0.678920    26A     -0.639261    27A     -0.623978
      28A     -0.577006    29A     -0.564153    30A     -0.534146
      31A     -0.514236    32A     -0.489481    33A     -0.487214
      34A     -0.452196    35A     -0.378111    36A     -0.347708

  @DF-RHF Final Energy:  -509.02528155337052

   => Energetics <=

    Nuclear Repulsion Energy =            503.1337123864051364
    One-Electron Energy =               -1692.6253129651320251
    Two-Electron Energy =                 680.4663190253565972
    DFT Exchange-Correlation Energy =       0.0000000000000000
    Empirical Dispersion Energy =           0.0000000000000000
    PCM Polarization Energy =               0.0000000000000000
    EFP Energy =                            0.0000000000000000
    Total Energy =                       -509.0252815533701778
    Molecular point group: c1
  Basis Set: 6-31G*
  Basis Set:

  -Total Gradient:
     Atom            X                  Y                   Z
    ------   -----------------  -----------------  -----------------
       1       -0.000127344268     0.000053664283     0.002153355622
       2        0.000502996993     0.000448535772    -0.003338664591
       3       -0.000843059019    -0.001068198863     0.002633489983
       4        0.000426150002     0.000858484642    -0.001316346119
       5        0.000117621009    -0.000233524337    -0.000053790347
       6        0.000000433817     0.000047355985     0.000029483518
       7        0.000040726227    -0.000151064484    -0.000042254723
       8        0.000024008262    -0.000016798005     0.000003608290
       9       -0.000215725515    -0.000001178802    -0.000119455752
      10       -0.000047846925     0.000046901400    -0.000008841081
      11        0.000112064256     0.000069498098     0.000097107105
      12        0.000083975737    -0.000016698072    -0.000021139679
      13       -0.000031549041    -0.000039052036    -0.000043637220
      14       -0.000056327722     0.000003710091    -0.000004230809
      15        0.000013876183    -0.000001635672     0.000031315800

  **** Optimization is complete! (in 7 steps) ****
    Final optimized geometry and variables:
    Molecular point group: c1

    Geometry (in Angstrom), charge = 0, multiplicity = 1:

    H            1.630008636983    -3.275891924974    -0.494883388110
    O            1.884589709403    -2.363516514825    -0.478787021993
    C            0.798061542023    -1.554201438848    -0.518522580508
    C           -0.298659873456    -1.831671730720    -1.321497797764
    C            0.835697774343    -0.390180094698     0.228716071014
    H           -0.308455826448    -2.728058067680    -1.916271262960
    C           -1.371851316603    -0.957233431888    -1.360835976022
    H            1.683670285931    -0.168429065510     0.842906303238
    C           -0.243845406667     0.468030144553     0.156619231459
    H           -2.219374744748    -1.183180985827    -1.980959240193
    C           -1.357345330846     0.211209616800    -0.620761578629
    N           -0.206626003023     1.697268711021     0.946856566995
    H           -2.174220610061     0.902272755209    -0.643747594690
    O            0.762038526263     1.899738696921     1.612888683023
    O           -1.149405685155     2.425986999164     0.879179118723

  Mulliken Charges: (a.u.)
   Center  Symbol    Alpha    Beta     Spin     Total
       1     H     0.26904  0.26904  0.00000  0.46192
       2     O     4.37776  4.37776  0.00000 -0.75553
       3     C     2.80546  2.80546  0.00000  0.38909
       4     C     3.11943  3.11943  0.00000 -0.23887
       5     C     3.11051  3.11051  0.00000 -0.22101
       6     H     0.39070  0.39070  0.00000  0.21860
       7     C     3.10170  3.10170  0.00000 -0.20340
       8     H     0.35759  0.35759  0.00000  0.28482
       9     C     2.91471  2.91471  0.00000  0.17059
      10     H     0.38686  0.38686  0.00000  0.22628
      11     C     3.09495  3.09495  0.00000 -0.18989
      12     N     3.24107  3.24107  0.00000  0.51787
      13     H     0.36480  0.36480  0.00000  0.27041
      14     O     4.23203  4.23203  0.00000 -0.46407
      15     O     4.23339  4.23339  0.00000 -0.46679

   Total alpha = 36.00000, Total beta = 36.00000, Total charge =  0.00000
