  ==> Input File <==

--------------------------------------------------------------------------
set {
	reference rhf
	basis cc-pvtz
}

set_num_threads( 4 )
memory 2 gb

molecule MOL {
0 1

H	 1.231000	 0.196000	 1.460000
C	 1.230000	 0.079000	 0.369000
C	 0.160000	 0.857000	 -0.355000
O	 2.036000	 -0.617000	 -0.158000
C	 -1.245000	 0.569000	 0.194000
H	 0.227000	 0.629000	 -1.412000
H	 0.386000	 1.914000	 -0.224000
C	 -1.714000	 -0.864000	 -0.067000
H	 -1.942000	 1.266000	 -0.262000
H	 -1.266000	 0.774000	 1.262000
H	 -1.732000	 -1.079000	 -1.130000
H	 -2.715000	 -1.019000	 0.323000
H	 -1.060000	 -1.593000	 0.404000

	symmetry c1
}
ee = optimize('scf')
oeprop('DIPOLE', 'QUADRUPOLE', 'MULLIKEN_CHARGES')
f=open( 'psi4out.xyz', 'w' )
f.write( "13  " )
f.write( str(ee) + "\n" )
f.write( MOL.save_string_xyz() )
f.close()
--------------------------------------------------------------------------

    Molecular point group: c1
  Charge       = 0
  Multiplicity = 1
  Basis Set: CC-PVTZ
  Basis Set:
  @DF-RHF Final Energy:  -231.07063632214164
    Total Energy =                       -231.0706363221416098
    Molecular point group: c1
  Basis Set: CC-PVTZ
  Basis Set:
  Basis Set: CC-PVTZ
  Basis Set:
  @DF-RHF Final Energy:  -231.07074597617461
    Total Energy =                       -231.0707459761747486
  Basis Set: CC-PVTZ
  Basis Set:
  Basis Set: CC-PVTZ
  Basis Set:
  @DF-RHF Final Energy:  -231.07036683109118
    Total Energy =                       -231.0703668310910928
  Basis Set: CC-PVTZ
  Basis Set:
  Basis Set: CC-PVTZ
  Basis Set:
  @DF-RHF Final Energy:  -231.07067183657679
    Total Energy =                       -231.0706718365768779
  Basis Set: CC-PVTZ
  Basis Set:
  Basis Set: CC-PVTZ
  Basis Set:
  @DF-RHF Final Energy:  -231.07075131843760
    Total Energy =                       -231.0707513184376296
  Basis Set: CC-PVTZ
  Basis Set:
  Basis Set: CC-PVTZ
  Basis Set:
  @DF-RHF Final Energy:  -231.07074614956244
    Total Energy =                       -231.0707461495624386
  Basis Set: CC-PVTZ
  Basis Set:
  Basis Set: CC-PVTZ
  Basis Set:
  @DF-RHF Final Energy:  -231.07075673985355
    Total Energy =                       -231.0707567398535502
  Basis Set: CC-PVTZ
  Basis Set:
  Charge       = 0
  Multiplicity = 1
  Basis Set: CC-PVTZ
  Basis Set:

    Orbital Energies (a.u.)
    -----------------------

    Doubly Occupied:

       1A    -20.552577     2A    -11.321959     3A    -11.236956
       4A    -11.234832     5A    -11.219520     6A     -1.407531
       7A     -1.088038     8A     -0.974154     9A     -0.848273
      10A     -0.789746    11A     -0.668600    12A     -0.651952
      13A     -0.629394    14A     -0.596090    15A     -0.560204
      16A     -0.536983    17A     -0.507770    18A     -0.493821
      19A     -0.483995    20A     -0.413035

  @DF-RHF Final Energy:  -231.07075686945547

   => Energetics <=

    Nuclear Repulsion Energy =            174.0953916299738466
    One-Electron Energy =                -657.9014356630489146
    Two-Electron Energy =                 252.7352871636195744
    DFT Exchange-Correlation Energy =       0.0000000000000000
    Empirical Dispersion Energy =           0.0000000000000000
    PCM Polarization Energy =               0.0000000000000000
    EFP Energy =                            0.0000000000000000
    Total Energy =                       -231.0707568694554936
    Molecular point group: c1
  Basis Set: CC-PVTZ
  Basis Set:

  -Total Gradient:
     Atom            X                  Y                   Z
    ------   -----------------  -----------------  -----------------
       1       -0.000010577633     0.000005520148     0.000010216768
       2        0.000015288789     0.000014568951    -0.000026620826
       3        0.000034804678     0.000025327700     0.000004546947
       4        0.000016909685    -0.000032935398    -0.000001233475
       5       -0.000016543608    -0.000008755272     0.000009328443
       6        0.000002256814    -0.000001521204     0.000005032203
       7       -0.000007334817     0.000007031178     0.000002966305
       8       -0.000013291338    -0.000004882425    -0.000000553872
       9       -0.000002802270    -0.000000456063    -0.000003867362
      10       -0.000010260338     0.000011097476     0.000005820178
      11       -0.000009338735    -0.000007162220    -0.000004281640
      12       -0.000001352982    -0.000008315832     0.000005131956
      13        0.000002241757     0.000000482960    -0.000006485624

  **** Optimization is complete! (in 8 steps) ****
    Final optimized geometry and variables:
    Molecular point group: c1

    Geometry (in Angstrom), charge = 0, multiplicity = 1:

    H            1.128311197276     0.207724091181     1.465118331728
    C            1.134565041581     0.093780967679     0.372499344142
    C            0.062553349399     0.862911736430    -0.350952870751
    O            1.948931662347    -0.587719735456    -0.146650748119
    C           -1.339253255936     0.577611782010     0.196911829734
    H            0.129769288014     0.637202811328    -1.407376942659
    H            0.290847787668     1.917988246591    -0.217653502514
    C           -1.813141825409    -0.849710095865    -0.061611244595
    H           -2.032833400009     1.276441022676    -0.256031174292
    H           -1.357249637611     0.782269017941     1.263793192205
    H           -1.839268127557    -1.063525233882    -1.124229823840
    H           -2.810118191421    -1.001929520751     0.334000472718
    H           -1.159274121263    -1.579979858265     0.402282185667

  Mulliken Charges: (a.u.)
   Center  Symbol    Alpha    Beta     Spin     Total
       1     H     0.46475  0.46475  0.00000  0.07050
       2     C     2.90591  2.90591  0.00000  0.18819
       3     C     3.08697  3.08697  0.00000 -0.17394
       4     O     4.16450  4.16450  0.00000 -0.32901
       5     C     3.10340  3.10340  0.00000 -0.20681
       6     H     0.44314  0.44314  0.00000  0.11372
       7     H     0.44279  0.44279  0.00000  0.11441
       8     C     3.14387  3.14387  0.00000 -0.28774
       9     H     0.44368  0.44368  0.00000  0.11263
      10     H     0.45133  0.45133  0.00000  0.09734
      11     H     0.45105  0.45105  0.00000  0.09791
      12     H     0.44671  0.44671  0.00000  0.10658
      13     H     0.45190  0.45190  0.00000  0.09621

   Total alpha = 20.00000, Total beta = 20.00000, Total charge = -0.00000
