  ==> Input File <==

--------------------------------------------------------------------------
set {
	reference rhf
	basis 6-31G*
}

set_num_threads( 4 )
memory 2 gb

molecule MOL {
0 1

O	 -1.819391	 -0.780955	 -0.071511
C	 -1.083277	 0.139568	 0.115197
C	 0.323299	 -0.082943	 0.642902
C	 -1.516086	 1.566724	 -0.137254
C	 1.355627	 -0.005344	 -0.493127
H	 0.396251	 -1.044647	 1.143147
H	 0.528637	 0.693580	 1.371677
C	 2.786168	 -0.195604	 0.007473
H	 1.132807	 -0.760304	 -1.243899
H	 1.259610	 0.958506	 -0.981915
H	 3.495561	 -0.130713	 -0.811210
H	 2.912696	 -1.165395	 0.480041
H	 3.049284	 0.565503	 0.735850
H	 -1.317575	 2.188753	 0.730698
H	 -2.569693	 1.596708	 -0.377565
H	 -0.945550	 1.980055	 -0.964811

	symmetry c1
}
set optking {
	frozen_dihedral = ("
		4 2 3 5
	")
}

ee = optimize('scf')
oeprop('DIPOLE', 'QUADRUPOLE', 'MULLIKEN_CHARGES')
f=open( 'psi4out.xyz', 'w' )
f.write( "16  " )
f.write( str(ee) + "\n" )
f.write( MOL.save_string_xyz() )
f.close()
--------------------------------------------------------------------------

    Molecular point group: c1
  Charge       = 0
  Multiplicity = 1
  Basis Set: 6-31G*
  Basis Set:
  @DF-RHF Final Energy:  -270.02915218362443
    Total Energy =                       -270.0291521836243192
    Molecular point group: c1
  Basis Set: 6-31G*
  Basis Set:
  Basis Set: 6-31G*
  Basis Set:
  @DF-RHF Final Energy:  -270.02844539912849
    Total Energy =                       -270.0284453991283726
  Basis Set: 6-31G*
  Basis Set:
  Basis Set: 6-31G*
  Basis Set:
  @DF-RHF Final Energy:  -270.02955616735284
    Total Energy =                       -270.0295561673529505
  Basis Set: 6-31G*
  Basis Set:
  Basis Set: 6-31G*
  Basis Set:
  @DF-RHF Final Energy:  -270.03001682334491
    Total Energy =                       -270.0300168233448517
  Basis Set: 6-31G*
  Basis Set:
  @DF-RHF Final Energy:  -270.03003856889995
    Total Energy =                       -270.0300385688998972
  Basis Set: 6-31G*
  Basis Set:
  @DF-RHF Final Energy:  -270.03006603371875
    Total Energy =                       -270.0300660337186400
  Basis Set: 6-31G*
  Basis Set:
  Basis Set: 6-31G*
  Basis Set:
  @DF-RHF Final Energy:  -270.03010527161706
    Total Energy =                       -270.0301052716171171
  Basis Set: 6-31G*
  Basis Set:
  Basis Set: 6-31G*
  Basis Set:
  @DF-RHF Final Energy:  -270.03011343251814
    Total Energy =                       -270.0301134325179646
  Basis Set: 6-31G*
  Basis Set:
  Charge       = 0
  Multiplicity = 1
  Basis Set: 6-31G*
  Basis Set:

    Orbital Energies (a.u.)
    -----------------------

    Doubly Occupied:

       1A    -20.548426     2A    -11.324743     3A    -11.235315
       4A    -11.230149     5A    -11.228019     6A    -11.220679
       7A     -1.393699     8A     -1.084136     9A     -1.011877
      10A     -0.950192    11A     -0.831274    12A     -0.735426
      13A     -0.659697    14A     -0.649044    15A     -0.612839
      16A     -0.608352    17A     -0.576824    18A     -0.556213
      19A     -0.534950    20A     -0.519722    21A     -0.505968
      22A     -0.485651    23A     -0.472967    24A     -0.398346

  @DF-RHF Final Energy:  -270.03011401746511

   => Energetics <=

    Nuclear Repulsion Energy =            236.9103445960558361
    One-Electron Energy =                -835.1318978232814061
    Two-Electron Energy =                 328.1914392097605742
    DFT Exchange-Correlation Energy =       0.0000000000000000
    Empirical Dispersion Energy =           0.0000000000000000
    PCM Polarization Energy =               0.0000000000000000
    EFP Energy =                            0.0000000000000000
    Total Energy =                       -270.0301140174649390
    Molecular point group: c1
  Basis Set: 6-31G*
  Basis Set:

  -Total Gradient:
     Atom            X                  Y                   Z
    ------   -----------------  -----------------  -----------------
       1        0.000052599574     0.000063140074     0.000027147710
       2       -0.000291046316     0.000303918019     0.000884126760
       3        0.000061713706    -0.000889224378    -0.000394783346
       4        0.000146355164    -0.000096229715    -0.000508790790
       5        0.000040696888     0.000615889132     0.000043643606
       6       -0.000016971688    -0.000016155420     0.000019818329
       7       -0.000010953800    -0.000021577129    -0.000015428970
       8       -0.000010612523     0.000020295642     0.000030857993
       9       -0.000021277287    -0.000013861706     0.000019631081
      10        0.000020763903     0.000026518426    -0.000024198422
      11       -0.000014001458     0.000014767793    -0.000004185431
      12       -0.000001215446    -0.000005708107    -0.000012983877
      13        0.000006959268    -0.000008998118     0.000015206845
      14       -0.000002213213     0.000024489504    -0.000014452251
      15        0.000008097808     0.000005071079    -0.000033349107
      16        0.000031105421    -0.000022335091    -0.000032260130

  **** Optimization is complete! (in 9 steps) ****
    Final optimized geometry and variables:
    Molecular point group: c1

    Geometry (in Angstrom), charge = 0, multiplicity = 1:

    O           -1.821918145985    -0.901141416153    -0.014190838544
    C           -1.098729080977     0.035814670297     0.137997557113
    C            0.327070274681    -0.144566219435     0.626641425381
    C           -1.564008844079     1.445764619841    -0.160018360127
    C            1.343945001099    -0.105015014818    -0.525731861436
    H            0.379008339985    -1.102854771832     1.129709953487
    H            0.569496136632     0.632212818031     1.348350850190
    C            2.773196383268    -0.342030803017    -0.040480282967
    H            1.076729088019    -0.862359993720    -1.257034134246
    H            1.292906687898     0.853381557172    -1.035265067328
    H            3.474095734462    -0.311800223845    -0.868380688259
    H            2.867029550870    -1.311403481371     0.439227073691
    H            3.074709757125     0.414802357632     0.677884446291
    H           -1.636743042529     2.008508500256     0.766991325719
    H           -2.534647586709     1.416481612964    -0.635172232871
    H           -0.859124110677     1.968112227273    -0.798415788060

  Mulliken Charges: (a.u.)
   Center  Symbol    Alpha    Beta     Spin     Total
       1     O     4.26027  4.26027  0.00000 -0.52054
       2     C     2.73714  2.73714  0.00000  0.52572
       3     C     3.20011  3.20011  0.00000 -0.40022
       4     C     3.28988  3.28988  0.00000 -0.57975
       5     C     3.16329  3.16329  0.00000 -0.32659
       6     H     0.40002  0.40002  0.00000  0.19996
       7     H     0.41634  0.41634  0.00000  0.16733
       8     C     3.23941  3.23941  0.00000 -0.47881
       9     H     0.40893  0.40893  0.00000  0.18215
      10     H     0.41921  0.41921  0.00000  0.16159
      11     H     0.41542  0.41542  0.00000  0.16915
      12     H     0.41686  0.41686  0.00000  0.16629
      13     H     0.42029  0.42029  0.00000  0.15942
      14     H     0.40700  0.40700  0.00000  0.18600
      15     H     0.39651  0.39651  0.00000  0.20697
      16     H     0.40933  0.40933  0.00000  0.18135

   Total alpha = 24.00000, Total beta = 24.00000, Total charge =  0.00000
