  ==> Input File <==

--------------------------------------------------------------------------
set {
	reference rhf
	basis 6-31G*
}

set_num_threads( 4 )
memory 2 gb

molecule MOL {
0 1

H	 3.089270	 -1.380733	 0.000000
O	 2.178328	 -1.639175	 0.000000
C	 1.368216	 -0.558384	 0.000000
C	 -0.002319	 -0.655652	 0.203658
C	 1.949925	 0.679233	 -0.212960
H	 -0.453023	 -1.619754	 0.369208
C	 -0.789535	 0.483590	 0.194246
H	 3.008429	 0.755766	 -0.370400
C	 1.154664	 1.814819	 -0.220850
H	 -1.848997	 0.395776	 0.353014
C	 -0.216613	 1.724525	 -0.017825
C	 1.773155	 3.147582	 -0.449062
H	 -0.826189	 2.610732	 -0.025540
O	 2.934121	 3.329764	 -0.632131
H	 1.072977	 3.988356	 -0.439189

	symmetry c1
}
set optking {
	frozen_dihedral = ("
		4 3 2 1
	")
}

ee = optimize('scf')
oeprop('DIPOLE', 'QUADRUPOLE', 'MULLIKEN_CHARGES')
f=open( 'psi4out.xyz', 'w' )
f.write( "15  " )
f.write( str(ee) + "\n" )
f.write( MOL.save_string_xyz() )
f.close()
--------------------------------------------------------------------------

    Molecular point group: c1
  Charge       = 0
  Multiplicity = 1
  Basis Set: 6-31G*
  Basis Set:
  @DF-RHF Final Energy:  -418.28523557558020
    Total Energy =                       -418.2852355755801455
    Molecular point group: c1
  Basis Set: 6-31G*
  Basis Set:
  Basis Set: 6-31G*
  Basis Set:
  @DF-RHF Final Energy:  -418.28730652810856
    Total Energy =                       -418.2873065281083882
  Basis Set: 6-31G*
  Basis Set:
  Basis Set: 6-31G*
  Basis Set:
  @DF-RHF Final Energy:  -418.28742490961537
    Total Energy =                       -418.2874249096155381
  Basis Set: 6-31G*
  Basis Set:
  Basis Set: 6-31G*
  Basis Set:
  @DF-RHF Final Energy:  -418.28498035460217
    Total Energy =                       -418.2849803546018848
  Basis Set: 6-31G*
  Basis Set:
  Basis Set: 6-31G*
  Basis Set:
  @DF-RHF Final Energy:  -418.28751734743850
    Total Energy =                       -418.2875173474388930
  Basis Set: 6-31G*
  Basis Set:
  Basis Set: 6-31G*
  Basis Set:
  @DF-RHF Final Energy:  -418.28752584119553
    Total Energy =                       -418.2875258411952473
  Basis Set: 6-31G*
  Basis Set:
  Charge       = 0
  Multiplicity = 1
  Basis Set: 6-31G*
  Basis Set:

    Orbital Energies (a.u.)
    -----------------------

    Doubly Occupied:

       1A    -20.601028     2A    -20.566964     3A    -11.335246
       4A    -11.312319     5A    -11.253456     6A    -11.251255
       7A    -11.247705     8A    -11.244728     9A    -11.244018
      10A     -1.420603    11A     -1.407473    12A     -1.169877
      13A     -1.049658    14A     -1.026081    15A     -0.901274
      16A     -0.853303    17A     -0.796829    18A     -0.754023
      19A     -0.700573    20A     -0.666906    21A     -0.661609
      22A     -0.628505    23A     -0.613797    24A     -0.602813
      25A     -0.573242    26A     -0.553140    27A     -0.535913
      28A     -0.518069    29A     -0.486100    30A     -0.426238
      31A     -0.353382    32A     -0.326959

  @DF-RHF Final Energy:  -418.28752653859340

   => Energetics <=

    Nuclear Repulsion Energy =            403.3148689992264053
    One-Electron Energy =               -1369.0386082153918323
    Two-Electron Energy =                 547.4362126775716888
    DFT Exchange-Correlation Energy =       0.0000000000000000
    Empirical Dispersion Energy =           0.0000000000000000
    PCM Polarization Energy =               0.0000000000000000
    EFP Energy =                            0.0000000000000000
    Total Energy =                       -418.2875265385937382
    Molecular point group: c1
  Basis Set: 6-31G*
  Basis Set:

  -Total Gradient:
     Atom            X                  Y                   Z
    ------   -----------------  -----------------  -----------------
       1        0.000010788039    -0.000001084850     0.001120415488
       2        0.000079502150     0.000031032259    -0.000994895993
       3       -0.000244081333    -0.000128950947    -0.000952417563
       4        0.000137765419     0.000082680853     0.000794000046
       5        0.000001101274     0.000022806977     0.000010982867
       6        0.000010442766    -0.000001950104    -0.000002256628
       7       -0.000000349421     0.000075683651     0.000019079443
       8       -0.000001845887     0.000004315711     0.000001666005
       9        0.000066437981    -0.000018449350     0.000014255945
      10       -0.000001814808    -0.000012373204     0.000001493365
      11       -0.000079037365    -0.000072266349    -0.000011210107
      12       -0.000018811674     0.000009665207     0.000005639227
      13        0.000016106181     0.000008775582     0.000000039809
      14        0.000016770784     0.000007877795    -0.000005688490
      15        0.000007025892    -0.000007763223    -0.000001103412

  **** Optimization is complete! (in 7 steps) ****
    Final optimized geometry and variables:
    Molecular point group: c1

    Geometry (in Angstrom), charge = 0, multiplicity = 1:

    H            1.826644647843    -2.411688423363     0.148060732555
    O            0.898256709167    -2.600103357271     0.145145034522
    C            0.176840107128    -1.457784399914     0.127280449388
    C           -1.196282924472    -1.569444913038     0.336257483388
    C            0.744550101911    -0.219012371765    -0.084586517386
    H           -1.614719367634    -2.544456132514     0.503462337933
    C           -1.989691020332    -0.441815321914     0.324296692092
    H            1.801712131619    -0.109917189664    -0.248494527347
    C           -0.062755730164     0.915590810037    -0.090250028178
    H           -3.048203443209    -0.536603901334     0.484954732029
    C           -1.427080709579     0.810874119217     0.111253057467
    C            0.548537548623     2.249868933294    -0.316540174108
    H           -2.046210127958     1.690505550434     0.104623493435
    O            1.710754182569     2.435757496560    -0.493974702094
    H           -0.154224786699     3.087985031901    -0.310971389672

  Mulliken Charges: (a.u.)
   Center  Symbol    Alpha    Beta     Spin     Total
       1     H     0.26905  0.26905  0.00000  0.46190
       2     O     4.37809  4.37809  0.00000 -0.75618
       3     C     2.79373  2.79373  0.00000  0.41255
       4     C     3.11289  3.11289  0.00000 -0.22577
       5     C     3.13544  3.13544  0.00000 -0.27089
       6     H     0.38566  0.38566  0.00000  0.22869
       7     C     3.09647  3.09647  0.00000 -0.19294
       8     H     0.38132  0.38132  0.00000  0.23736
       9     C     3.04600  3.04600  0.00000 -0.09199
      10     H     0.39260  0.39260  0.00000  0.21481
      11     C     3.11491  3.11491  0.00000 -0.22981
      12     C     2.83230  2.83230  0.00000  0.33540
      13     H     0.39295  0.39295  0.00000  0.21410
      14     O     4.24816  4.24816  0.00000 -0.49632
      15     H     0.42045  0.42045  0.00000  0.15910

   Total alpha = 32.00000, Total beta = 32.00000, Total charge =  0.00000
