                              Psi4 1.0.54 Driver

  ==> Input File <==

--------------------------------------------------------------------------
set {
	reference rhf
	basis cc-pvtz
}

set_num_threads( 4 )
memory 2 gb

molecule MOL {
0 1

O	 -2.817697	 1.304178	 0.001046
C	 -2.664672	 0.129869	 0.003507
C	 -3.797908	 -0.860100	 -0.001145
O	 -1.481217	 -0.452708	 0.001092
H	 -4.408836	 -0.679689	 -0.875387
H	 -3.443486	 -1.878443	 -0.002770
H	 -4.412123	 -0.683688	 0.871605
C	 -0.332055	 0.384012	 -0.000250
C	 0.892252	 -0.506059	 -0.000295
H	 -0.360822	 1.020205	 -0.874146
H	 -0.359817	 1.021310	 0.872861
C	 2.188199	 0.299473	 -0.001416
H	 0.857046	 -1.152781	 -0.871031
H	 0.857910	 -1.151798	 0.871202
C	 3.437151	 -0.577593	 -0.000991
H	 2.209565	 0.950707	 -0.871712
H	 2.210062	 0.952234	 0.867721
C	 3.150642	 -2.025271	 0.382607
H	 4.167485	 -0.160126	 0.686315
H	 3.894764	 -0.549253	 -0.985813
H	 2.723559	 -2.089346	 1.377766
H	 4.056588	 -2.619979	 0.373064
H	 2.448463	 -2.481388	 -0.307143

	symmetry c1
}
set optking {
	frozen_dihedral = ("
		19 15 12 16
	")
}

ee,wfn = optimize('scf', return_wfn=True)
oeprop( wfn, 'DIPOLE', 'QUADRUPOLE', 'MULLIKEN_CHARGES')
f=open( 'psi4out.xyz', 'w' )
f.write( "23  " )
f.write( str(ee) + "\n" )
f.write( MOL.save_string_xyz() )
f.close()
--------------------------------------------------------------------------

    Molecular point group: c1
  Charge       = 0
  Multiplicity = 1
  Basis Set: CC-PVTZ
  Basis Set:
  @DF-RHF Final Energy:  -423.12256559081584
    Total Energy =                       -423.1225655908160661
    Molecular point group: c1
  Basis Set: CC-PVTZ
  Basis Set:
  Basis Set: CC-PVTZ
  Basis Set:
  @DF-RHF Final Energy:  -422.93637887864890
    Total Energy =                       -422.9363788786491796
  Basis Set: CC-PVTZ
  Basis Set:
  Basis Set: CC-PVTZ
  Basis Set:
  @DF-RHF Final Energy:  -423.06480524328481
    Total Energy =                       -423.0648052432844679
  Basis Set: CC-PVTZ
  Basis Set:
  Basis Set: CC-PVTZ
  Basis Set:
  @DF-RHF Final Energy:  -423.12123183132593
    Total Energy =                       -423.1212318313264404
  Basis Set: CC-PVTZ
  Basis Set:
  @DF-RHF Final Energy:  -423.12557357647660
    Total Energy =                       -423.1255735764760857
  @DF-RHF Final Energy:  -423.12480409289566
    Total Energy =                       -423.1248040928958289
  Basis Set: CC-PVTZ
  Basis Set:
  @DF-RHF Final Energy:  -423.12602077893723
    Total Energy =                       -423.1260207789380274
  Basis Set: CC-PVTZ
  Basis Set:
  Basis Set: CC-PVTZ
  Basis Set:
  @DF-RHF Final Energy:  -423.12615616228720
    Total Energy =                       -423.1261561622872023
  Basis Set: CC-PVTZ
  Basis Set:
  Basis Set: CC-PVTZ
  Basis Set:
  @DF-RHF Final Energy:  -423.12616598276151
    Total Energy =                       -423.1261659827616768
  Basis Set: CC-PVTZ
  Basis Set:
  Charge       = 0
  Multiplicity = 1
  Basis Set: CC-PVTZ
  Basis Set:

    Orbital Energies (a.u.)
    -----------------------

    Doubly Occupied:

       1A    -20.595699     2A    -20.529298     3A    -11.366205
       4A    -11.279013     5A    -11.230534     6A    -11.222211
       7A    -11.221251     8A    -11.220246     9A    -11.210692
      10A     -1.470946    11A     -1.363753    12A     -1.092849
      13A     -1.040364    14A     -1.002128    15A     -0.931506
      16A     -0.858899    17A     -0.789889    18A     -0.769226
      19A     -0.694689    20A     -0.687438    21A     -0.673026
      22A     -0.645931    23A     -0.608772    24A     -0.603583
      25A     -0.575222    26A     -0.567872    27A     -0.550112
      28A     -0.537846    29A     -0.530632    30A     -0.506418
      31A     -0.501686    32A     -0.469554    33A     -0.467626
      34A     -0.459594    35A     -0.454973    36A     -0.438548

  @DF-RHF Final Energy:  -423.12616676126351

   => Energetics <=

    Nuclear Repulsion Energy =            455.9097490754346040
    One-Electron Energy =               -1479.7353660580897667
    Two-Electron Energy =                 600.6994502213915439
    DFT Exchange-Correlation Energy =       0.0000000000000000
    Empirical Dispersion Energy =           0.0000000000000000
    PCM Polarization Energy =               0.0000000000000000
    EFP Energy =                            0.0000000000000000
    Total Energy =                       -423.1261667612636757
    Molecular point group: c1
  Basis Set: CC-PVTZ
  Basis Set:

  -Total Gradient:
     Atom            X                  Y                   Z
    ------   -----------------  -----------------  -----------------
       1       -0.000036524377     0.000031218018    -0.000040624492
       2        0.000172649265    -0.000068722322     0.000053895311
       3       -0.000012885309    -0.000004859024    -0.000051295502
       4       -0.000140536247    -0.000003355238    -0.000042667055
       5       -0.000006118871     0.000019493135     0.000033450035
       6       -0.000009612793     0.000002112988     0.000000064184
       7        0.000008704116    -0.000011906173     0.000017493305
       8        0.000040117672     0.000055754331     0.000079418321
       9       -0.000004201287    -0.000019942321    -0.000011843844
      10       -0.000004462954    -0.000010731362    -0.000008272910
      11        0.000012335369    -0.000016189629    -0.000015219022
      12        0.000527482013     0.005137200491     0.003655325590
      13       -0.000000234764    -0.000002065221     0.000005036557
      14       -0.000013249238     0.000005826124    -0.000009084256
      15        0.002426576811     0.002189299634    -0.005435880894
      16       -0.000794138230    -0.004679620304    -0.002270048374
      17        0.000011276346    -0.000000243681     0.000002028201
      18       -0.000022017832    -0.000005769601     0.000013055810
      19       -0.002147024037    -0.002621784043     0.004036064984
      20       -0.000004244539     0.000008492155    -0.000004814793
      21        0.000007002007    -0.000006671916     0.000005652062
      22       -0.000000860530     0.000003933198    -0.000005596442
      23       -0.000010032590    -0.000001469242    -0.000006136775

  **** Optimization is complete! (in 10 steps) ****
    Final optimized geometry and variables:
    Molecular point group: c1

    Geometry (in Angstrom), charge = 0, multiplicity = 1:

    O           -2.788772179484     0.838520019454    -1.022105412926
    C           -2.429779855040    -0.250053008736    -0.724060915208
    C           -3.315713108019    -1.465396340893    -0.778481304507
    O           -1.209225181610    -0.528900328679    -0.309825167107
    H           -3.658486684390    -1.595152884652    -1.796349921510
    H           -2.802150000995    -2.353829833052    -0.447333984559
    H           -4.184164528668    -1.286538005613    -0.159023811082
    C           -0.279949716292     0.543120214741    -0.219746598502
    C            1.035692765595    -0.021960974808     0.272385725474
    H           -0.177297002759     1.002462904954    -1.193300156642
    H           -0.669418626352     1.290618604214     0.457802492632
    C            2.093650730286     1.076422465325     0.399306171870
    H            1.365781343570    -0.786993353315    -0.422157731244
    H            0.866826648004    -0.511675815490     1.223565858832
    C            3.502545537738     0.616342110726     0.845421982119
    H            2.180819305704     1.536748020421    -0.579730012480
    H            1.726050184329     1.837669748099     1.078815367186
    C            3.583823694259    -0.731187189729     1.564990825705
    H            3.897313041988     1.355385523035     1.533711667321
    H            4.164979419719     0.592048503458    -0.011823339148
    H            2.980738376091    -0.740879570328     2.466122173920
    H            4.608418115832    -0.929671843501     1.857903654349
    H            3.258882197450    -1.553210646586     0.939407798451

  Mulliken Charges: (a.u.)
   Center  Symbol    Alpha    Beta     Spin     Total
       1     O     4.20247  4.20247  0.00000 -0.40494
       2     C     2.81574  2.81574  0.00000  0.36852
       3     C     3.13992  3.13992  0.00000 -0.27984
       4     O     4.14413  4.14413  0.00000 -0.28827
       5     H     0.44230  0.44230  0.00000  0.11540
       6     H     0.44193  0.44193  0.00000  0.11613
       7     H     0.44197  0.44197  0.00000  0.11606
       8     C     2.98115  2.98115  0.00000  0.03770
       9     C     3.08377  3.08377  0.00000 -0.16754
      10     H     0.45352  0.45352  0.00000  0.09297
      11     H     0.45413  0.45413  0.00000  0.09175
      12     C     3.10745  3.10745  0.00000 -0.21491
      13     H     0.44959  0.44959  0.00000  0.10082
      14     H     0.44799  0.44799  0.00000  0.10402
      15     C     3.08710  3.08710  0.00000 -0.17420
      16     H     0.45005  0.45005  0.00000  0.09991
      17     H     0.44941  0.44941  0.00000  0.10117
      18     C     3.15813  3.15813  0.00000 -0.31626
      19     H     0.45020  0.45020  0.00000  0.09960
      20     H     0.45008  0.45008  0.00000  0.09984
      21     H     0.45299  0.45299  0.00000  0.09401
      22     H     0.44405  0.44405  0.00000  0.11190
      23     H     0.45193  0.45193  0.00000  0.09614

   Total alpha = 36.00000, Total beta = 36.00000, Total charge =  0.00000

*** Psi4 exiting successfully. Buy a developer a beer!
