  ==> Input File <==

--------------------------------------------------------------------------
set {
	reference rhf
	basis 6-31G*
}

set_num_threads( 4 )
memory 2 gb

molecule MOL {
0 1

H	 1.808456	 2.461584	 -0.024743
N	 0.974751	 1.914960	 -0.122981
C	 1.267428	 0.496480	 0.024474
H	 0.610062	 2.105062	 -1.037190
C	 -0.016086	 -0.325158	 -0.029487
H	 1.742272	 0.356489	 0.990890
H	 1.968592	 0.122695	 -0.725882
C	 -1.282277	 0.529072	 0.046735
H	 -0.012495	 -0.908639	 -0.945788
H	 -0.015903	 -1.041248	 0.791956
C	 -2.563920	 -0.301775	 -0.006060
H	 -1.284084	 1.244622	 -0.773004
H	 -1.271387	 1.115393	 0.963286
H	 -2.621848	 -0.873522	 -0.927727
H	 -3.445135	 0.329952	 0.047812
H	 -2.609542	 -1.004582	 0.821105

	symmetry c1
}
set optking {
	frozen_dihedral = ("
		6 3 5 9
	")
}

ee = optimize('scf')
oeprop('DIPOLE', 'QUADRUPOLE', 'MULLIKEN_CHARGES')
f=open( 'psi4out.xyz', 'w' )
f.write( "16  " )
f.write( str(ee) + "\n" )
f.write( MOL.save_string_xyz() )
f.close()
--------------------------------------------------------------------------

    Molecular point group: c1
  Charge       = 0
  Multiplicity = 1
  Basis Set: 6-31G*
  Basis Set:
  @DF-RHF Final Energy:  -212.30581260688507
    Total Energy =                       -212.3058126068851834
    Molecular point group: c1
  Basis Set: 6-31G*
  Basis Set:
  Basis Set: 6-31G*
  Basis Set:
  @DF-RHF Final Energy:  -212.30646817763724
    Total Energy =                       -212.3064681776371572
  Basis Set: 6-31G*
  Basis Set:
  Basis Set: 6-31G*
  Basis Set:
  @DF-RHF Final Energy:  -212.30873635843977
    Total Energy =                       -212.3087363584398304
  Basis Set: 6-31G*
  Basis Set:
  Basis Set: 6-31G*
  Basis Set:
  @DF-RHF Final Energy:  -212.30892457400620
    Total Energy =                       -212.3089245740060846
  Basis Set: 6-31G*
  Basis Set:
  Basis Set: 6-31G*
  Basis Set:
  @DF-RHF Final Energy:  -212.30893012789281
    Total Energy =                       -212.3089301278927223
  Basis Set: 6-31G*
  Basis Set:
  Basis Set: 6-31G*
  Basis Set:
  @DF-RHF Final Energy:  -212.30893597399623
    Total Energy =                       -212.3089359739964266
  Basis Set: 6-31G*
  Basis Set:
  Basis Set: 6-31G*
  Basis Set:
  @DF-RHF Final Energy:  -212.30894269248716
    Total Energy =                       -212.3089426924874488
  Basis Set: 6-31G*
  Basis Set:
  Charge       = 0
  Multiplicity = 1
  Basis Set: 6-31G*
  Basis Set:

    Orbital Energies (a.u.)
    -----------------------

    Doubly Occupied:

       1A    -15.533663     2A    -11.241228     3A    -11.210154
       4A    -11.206073     5A    -11.202696     6A     -1.176645
       7A     -1.050843     8A     -0.956271     9A     -0.849979
      10A     -0.776586    11A     -0.667369    12A     -0.628028
      13A     -0.607042    14A     -0.576163    15A     -0.557005
      16A     -0.522745    17A     -0.498080    18A     -0.467503
      19A     -0.462433    20A     -0.450718    21A     -0.378279

  @DF-RHF Final Energy:  -212.30894270315238

   => Energetics <=

    Nuclear Repulsion Energy =            189.0216198123810898
    One-Electron Energy =                -660.6221183587583710
    Two-Electron Energy =                 259.2915558432248986
    DFT Exchange-Correlation Energy =       0.0000000000000000
    Empirical Dispersion Energy =           0.0000000000000000
    PCM Polarization Energy =               0.0000000000000000
    EFP Energy =                            0.0000000000000000
    Total Energy =                       -212.3089427031523542
    Molecular point group: c1
  Basis Set: 6-31G*
  Basis Set:

  -Total Gradient:
     Atom            X                  Y                   Z
    ------   -----------------  -----------------  -----------------
       1        0.000005320039    -0.000000265043     0.000001926504
       2        0.000013383886    -0.000003301135     0.000003107714
       3       -0.002572695496     0.003893781273     0.002735245787
       4        0.000001396118    -0.000005922851    -0.000001002360
       5       -0.002031173009     0.003742642196    -0.003384568934
       6        0.002510582887    -0.003862486915    -0.001747903532
       7       -0.000002865778     0.000010908111     0.000002611552
       8       -0.000001996639    -0.000005063784     0.000001951199
       9        0.002080563086    -0.003758184120     0.002408044395
      10       -0.000005343481     0.000001832810    -0.000007314141
      11       -0.000001282924    -0.000009890898     0.000001376428
      12        0.000004996835    -0.000004015748    -0.000007268911
      13        0.000000142868    -0.000000288912    -0.000004429827
      14       -0.000006731073     0.000002905444    -0.000003390903
      15        0.000000061574     0.000000429536     0.000007665463
      16        0.000005641108    -0.000003079964    -0.000006050436

  **** Optimization is complete! (in 8 steps) ****
    Final optimized geometry and variables:
    Molecular point group: c1

    Geometry (in Angstrom), charge = 0, multiplicity = 1:

    H            2.267552955333     1.938951502837     0.054128196698
    N            1.403528123311     1.464914912932    -0.125697790265
    C            1.571295432983     0.031751048489     0.070354568345
    H            1.158670805649     1.666899547957    -1.076217736028
    C            0.252839970286    -0.771413485291    -0.031187221888
    H            2.011940888804    -0.124362473703     1.048855677631
    H            2.287227396352    -0.400072829639    -0.632044118829
    C           -1.041598926449     0.035673158734     0.081130475169
    H            0.251321494045    -1.358510267264    -0.947148294778
    H            0.257145499929    -1.515130576069     0.763191377378
    C           -2.278385025392    -0.862642245444     0.057329095354
    H           -1.106848877703     0.755152041624    -0.729136925156
    H           -1.025982787068     0.618223845032     0.995996454516
    H           -2.332109174298    -1.437207384150    -0.863685204938
    H           -3.189243538139    -0.276544456541     0.133531290643
    H           -2.269973615055    -1.567826702739     0.884045138657

  Mulliken Charges: (a.u.)
   Center  Symbol    Alpha    Beta     Spin     Total
       1     H     0.33133  0.33133  0.00000  0.33734
       2     N     3.92194  3.92194  0.00000 -0.84388
       3     C     3.06104  3.06104  0.00000 -0.12208
       4     H     0.33449  0.33449  0.00000  0.33101
       5     C     3.16674  3.16674  0.00000 -0.33349
       6     H     0.41941  0.41941  0.00000  0.16118
       7     H     0.43242  0.43242  0.00000  0.13517
       8     C     3.14101  3.14101  0.00000 -0.28203
       9     H     0.42375  0.42375  0.00000  0.15251
      10     H     0.42139  0.42139  0.00000  0.15722
      11     C     3.24098  3.24098  0.00000 -0.48196
      12     H     0.42495  0.42495  0.00000  0.15009
      13     H     0.41328  0.41328  0.00000  0.17344
      14     H     0.42426  0.42426  0.00000  0.15148
      15     H     0.41978  0.41978  0.00000  0.16044
      16     H     0.42323  0.42323  0.00000  0.15355

   Total alpha = 21.00000, Total beta = 21.00000, Total charge = -0.00000
