  ==> Input File <==

--------------------------------------------------------------------------
set {
	reference rhf
	basis 6-31G*
}

set_num_threads( 4 )
memory 2 gb

molecule MOL {
0 1

H	 0.116373	 -0.026154	 0.154513
N	 -0.626943	 -0.667432	 -0.000092
C	 -1.979713	 -0.158776	 0.000050
C	 -0.320752	 -1.971961	 -0.201629
H	 -2.520245	 -0.492427	 -0.879443
H	 -1.934741	 0.918111	 -0.004428
H	 -2.517790	 -0.485056	 0.883818
C	 1.161731	 -2.284238	 -0.160278
O	 -1.148152	 -2.818945	 -0.397185
H	 1.581548	 -2.020838	 0.805500
H	 1.301054	 -3.340699	 -0.333993
H	 1.693270	 -1.721938	 -0.921607

	symmetry c1
}
set optking {
	frozen_dihedral = ("
		4 2 3 5
	")
}

ee = optimize('scf')
oeprop('DIPOLE', 'QUADRUPOLE', 'MULLIKEN_CHARGES')
f=open( 'psi4out.xyz', 'w' )
f.write( "12  " )
f.write( str(ee) + "\n" )
f.write( MOL.save_string_xyz() )
f.close()
--------------------------------------------------------------------------

    Molecular point group: c1
  Charge       = 0
  Multiplicity = 1
  Basis Set: 6-31G*
  Basis Set:
  @DF-RHF Final Energy:  -247.00539861225101
    Total Energy =                       -247.0053986122511560
    Molecular point group: c1
  Basis Set: 6-31G*
  Basis Set:
  Basis Set: 6-31G*
  Basis Set:
  @DF-RHF Final Energy:  -247.00563587666986
    Total Energy =                       -247.0056358766697713
  Basis Set: 6-31G*
  Basis Set:
  Basis Set: 6-31G*
  Basis Set:
  @DF-RHF Final Energy:  -247.00564568721788
    Total Energy =                       -247.0056456872180206
  Basis Set: 6-31G*
  Basis Set:
  Basis Set: 6-31G*
  Basis Set:
  @DF-RHF Final Energy:  -247.00563047885939
    Total Energy =                       -247.0056304788597572
  Basis Set: 6-31G*
  Basis Set:
  @DF-RHF Final Energy:  -247.00566695538245
    Total Energy =                       -247.0056669553824804
  @DF-RHF Final Energy:  -247.00567611612485
    Total Energy =                       -247.0056761161248460
  @DF-RHF Final Energy:  -247.00570265076539
    Total Energy =                       -247.0057026507654427
  @DF-RHF Final Energy:  -247.00570751240502
    Total Energy =                       -247.0057075124051380
  @DF-RHF Final Energy:  -247.00571311226761
    Total Energy =                       -247.0057131122675855
  @DF-RHF Final Energy:  -247.00571989028708
    Total Energy =                       -247.0057198902870823
  @DF-RHF Final Energy:  -247.00574653259224
    Total Energy =                       -247.0057465325921839
  @DF-RHF Final Energy:  -247.00578739919749
    Total Energy =                       -247.0057873991975725
  @DF-RHF Final Energy:  -247.00580063228776
    Total Energy =                       -247.0058006322878441
  @DF-RHF Final Energy:  -247.00580807902523
    Total Energy =                       -247.0058080790255417
  @DF-RHF Final Energy:  -247.00580960048129
    Total Energy =                       -247.0058096004813706
  @DF-RHF Final Energy:  -247.00581364247637
    Total Energy =                       -247.0058136424761983
  @DF-RHF Final Energy:  -247.00581725077092
    Total Energy =                       -247.0058172507708036
  @DF-RHF Final Energy:  -247.00582046279456
    Total Energy =                       -247.0058204627945884
  @DF-RHF Final Energy:  -247.00582330754796
    Total Energy =                       -247.0058233075481553
  Basis Set: 6-31G*
  Basis Set:
  @DF-RHF Final Energy:  -247.00582578910650
    Total Energy =                       -247.0058257891064386
  Basis Set: 6-31G*
  Basis Set:
  Basis Set: 6-31G*
  Basis Set:
  @DF-RHF Final Energy:  -247.00582791188327
    Total Energy =                       -247.0058279118834434
  Basis Set: 6-31G*
  Basis Set:
  Basis Set: 6-31G*
  Basis Set:
  @DF-RHF Final Energy:  -247.00582968203923
    Total Energy =                       -247.0058296820392343
  Basis Set: 6-31G*
  Basis Set:
  Charge       = 0
  Multiplicity = 1
  Basis Set: 6-31G*
  Basis Set:

    Orbital Energies (a.u.)
    -----------------------

    Doubly Occupied:

       1A    -20.514682     2A    -15.582180     3A    -11.341539
       4A    -11.255131     5A    -11.230080     6A     -1.383857
       7A     -1.228121     8A     -1.015116     9A     -0.932329
      10A     -0.787803    11A     -0.688944    12A     -0.647820
      13A     -0.632926    14A     -0.584391    15A     -0.579460
      16A     -0.555737    17A     -0.546606    18A     -0.502539
      19A     -0.412578    20A     -0.385710

  @DF-RHF Final Energy:  -247.00583007168214

   => Energetics <=

    Nuclear Repulsion Energy =            181.5216383196849108
    One-Electron Energy =                -695.4398372158132133
    Two-Electron Energy =                 266.9123688244460482
    DFT Exchange-Correlation Energy =       0.0000000000000000
    Empirical Dispersion Energy =           0.0000000000000000
    PCM Polarization Energy =               0.0000000000000000
    EFP Energy =                            0.0000000000000000
    Total Energy =                       -247.0058300716822259
    Molecular point group: c1
  Basis Set: 6-31G*
  Basis Set:

  -Total Gradient:
     Atom            X                  Y                   Z
    ------   -----------------  -----------------  -----------------
       1        0.000000600959     0.000000164929     0.000003275148
       2       -0.000001137607     0.000001945952    -0.000024602343
       3       -0.000006810576    -0.000023260046     0.000033804226
       4        0.000004086144     0.000005401069     0.000022491216
       5        0.000005398731     0.000018098010    -0.000015985473
       6        0.000000097040     0.000000162047    -0.000000916192
       7        0.000000714707     0.000000552263     0.000000021767
       8       -0.000001301703    -0.000002599442    -0.000002239054
       9       -0.000001765008    -0.000002862050    -0.000018675146
      10        0.000003947008     0.000014049763     0.000002587799
      11       -0.000002320506    -0.000006834926     0.000011556679
      12       -0.000001509189    -0.000004817569    -0.000011318627

  **** Optimization is complete! (in 23 steps) ****
    Final optimized geometry and variables:
    Molecular point group: c1

    Geometry (in Angstrom), charge = 0, multiplicity = 1:

    H            0.713664698597     1.584031265416     0.107980175996
    N           -0.022473804349     0.927225732878    -0.003229080702
    C           -1.388330430201     1.391827645433     0.102342471217
    C            0.274754942054    -0.391769145648    -0.036103503921
    H           -2.002604699324     0.897664526136    -0.636396597585
    H           -1.408283989402     2.458363096174    -0.079644850107
    H           -1.807988000519     1.193512873175     1.082732824078
    C            1.750358704668    -0.732369252466    -0.024007474391
    O           -0.573116706959    -1.241599215508    -0.057326425507
    H            2.061184777311    -0.912333982996     1.000399867307
    H            1.901660618023    -1.643224902741    -0.585875159506
    H            2.368334877017     0.056538562580    -0.437361459373

  Mulliken Charges: (a.u.)
   Center  Symbol    Alpha    Beta     Spin     Total
       1     H     0.30954  0.30954  0.00000  0.38093
       2     N     3.89250  3.89250  0.00000 -0.78499
       3     C     3.13508  3.13508  0.00000 -0.27016
       4     C     2.63054  2.63054  0.00000  0.73893
       5     H     0.39867  0.39867  0.00000  0.20267
       6     H     0.41776  0.41776  0.00000  0.16449
       7     H     0.41148  0.41148  0.00000  0.17703
       8     C     3.29154  3.29154  0.00000 -0.58308
       9     O     4.30272  4.30272  0.00000 -0.60544
      10     H     0.40065  0.40065  0.00000  0.19870
      11     H     0.39372  0.39372  0.00000  0.21257
      12     H     0.41582  0.41582  0.00000  0.16835

   Total alpha = 20.00000, Total beta = 20.00000, Total charge = -0.00000
