  ==> Input File <==

--------------------------------------------------------------------------
set {
	reference rhf
	basis cc-pvtz
}

set_num_threads( 4 )
memory 2 gb

molecule MOL {
0 1

H	 -2.171709	 0.882708	 0.500286
C	 -2.016894	 0.001719	 -0.114152
O	 -0.775228	 0.000056	 -0.739966
H	 -2.760846	 0.003757	 -0.898169
H	 -2.174774	 -0.879864	 0.498643
C	 -0.406308	 1.077637	 -1.577819
C	 0.992398	 0.707228	 -2.058759
C	 -1.353220	 1.195796	 -2.773660
C	 -0.356713	 2.392257	 -0.796851
H	 0.966758	 -0.235438	 -2.590573
H	 1.661086	 0.599305	 -1.214181
H	 1.389653	 1.467750	 -2.720397
H	 -1.434828	 0.243714	 -3.284099
H	 -0.975960	 1.928435	 -3.477084
H	 -2.345853	 1.511526	 -2.477762
H	 0.263290	 2.282756	 0.084793
H	 0.064125	 3.176968	 -1.414104
H	 -1.341037	 2.718083	 -0.484585

	symmetry c1
}
set optking {
	frozen_dihedral = ("
		6 3 2 5
	")
}

ee = optimize('scf')
oeprop('DIPOLE', 'QUADRUPOLE', 'MULLIKEN_CHARGES')
f=open( 'psi4out.xyz', 'w' )
f.write( "18  " )
f.write( str(ee) + "\n" )
f.write( MOL.save_string_xyz() )
f.close()
--------------------------------------------------------------------------

    Molecular point group: c1
  Charge       = 0
  Multiplicity = 1
  Basis Set: CC-PVTZ
  Basis Set:
  @DF-RHF Final Energy:  -271.27425577357252
    Total Energy =                       -271.2742557735730315
    Molecular point group: c1
  Basis Set: CC-PVTZ
  Basis Set:
  Basis Set: CC-PVTZ
  Basis Set:
  @DF-RHF Final Energy:  -271.27630168008477
    Total Energy =                       -271.2763016800846572
  Basis Set: CC-PVTZ
  Basis Set:
  Basis Set: CC-PVTZ
  Basis Set:
  @DF-RHF Final Energy:  -271.27674726274898
    Total Energy =                       -271.2767472627489269
  Basis Set: CC-PVTZ
  Basis Set:
  Basis Set: CC-PVTZ
  Basis Set:
  @DF-RHF Final Energy:  -271.27673275113381
    Total Energy =                       -271.2767327511336930
  Basis Set: CC-PVTZ
  Basis Set:
  Basis Set: CC-PVTZ
  Basis Set:
  @DF-RHF Final Energy:  -271.27675480369106
    Total Energy =                       -271.2767548036914604
  Basis Set: CC-PVTZ
  Basis Set:
  Basis Set: CC-PVTZ
  Basis Set:
  @DF-RHF Final Energy:  -271.27675699637280
    Total Energy =                       -271.2767569963730239
  Basis Set: CC-PVTZ
  Basis Set:
  Charge       = 0
  Multiplicity = 1
  Basis Set: CC-PVTZ
  Basis Set:

    Orbital Energies (a.u.)
    -----------------------

    Doubly Occupied:

       1A    -20.540657     2A    -11.280119     3A    -11.258043
       4A    -11.207080     5A    -11.207062     6A    -11.201798
       7A     -1.373656     8A     -1.074666     9A     -0.946713
      10A     -0.940847    11A     -0.913186    12A     -0.753501
      13A     -0.656641    14A     -0.646649    15A     -0.639398
      16A     -0.593902    17A     -0.575984    18A     -0.553302
      19A     -0.534329    20A     -0.524852    21A     -0.515064
      22A     -0.488138    23A     -0.488072    24A     -0.440773
      25A     -0.407741

  @DF-RHF Final Energy:  -271.27675698709288

   => Energetics <=

    Nuclear Repulsion Energy =            272.6655666372889755
    One-Electron Energy =                -908.3602919178099455
    Two-Electron Energy =                 364.4179682934280891
    DFT Exchange-Correlation Energy =       0.0000000000000000
    Empirical Dispersion Energy =           0.0000000000000000
    PCM Polarization Energy =               0.0000000000000000
    EFP Energy =                            0.0000000000000000
    Total Energy =                       -271.2767569870928810
    Molecular point group: c1
  Basis Set: CC-PVTZ
  Basis Set:

  -Total Gradient:
     Atom            X                  Y                   Z
    ------   -----------------  -----------------  -----------------
       1       -0.000010886020    -0.000015297157     0.000001615400
       2       -0.000003452802     0.000002502496    -0.000002119897
       3        0.000009527676    -0.000002090409    -0.000011884208
       4       -0.000013512146     0.000005402569    -0.000002338981
       5       -0.000009539011     0.000001743316     0.000001507009
       6        0.000023892438    -0.000000701881     0.000028700833
       7        0.000007220174     0.000010517773    -0.000013065903
       8       -0.000006584092    -0.000011890042     0.000014644844
       9        0.000004349447     0.000007990305    -0.000012702990
      10       -0.000001247877     0.000000338217    -0.000000965811
      11       -0.000007040182     0.000000102122    -0.000001888825
      12        0.000006434165    -0.000000331628    -0.000005009529
      13        0.000005645936     0.000000360367     0.000000852691
      14       -0.000000150519     0.000002887078     0.000003442969
      15       -0.000011709932    -0.000006385724     0.000006204930
      16       -0.000000977062     0.000000593357     0.000001913509
      17        0.000002079539     0.000001010303    -0.000000024166
      18        0.000005950267     0.000003248936    -0.000008881875

  **** Optimization is complete! (in 7 steps) ****
    Final optimized geometry and variables:
    Molecular point group: c1

    Geometry (in Angstrom), charge = 0, multiplicity = 1:

    H           -1.486541248866    -0.037270715882     1.881062683445
    C           -1.359487312733    -0.879184563677     1.208270709131
    O           -0.112710260278    -0.885836541412     0.592601846920
    H           -2.176132492512    -0.877535499058     0.493631047315
    H           -1.424217028672    -1.787440775465     1.790521171546
    C            0.265545860726     0.188080164174    -0.245831684558
    C            1.666103148530    -0.188498482944    -0.716532847134
    C           -0.673021405129     0.306336181892    -1.448196495811
    C            0.314625481800     1.504638787362     0.531910117347
    H            1.640536540989    -1.132098060942    -1.246683486860
    H            2.328590938401    -0.297283431192     0.132796882640
    H            2.070749213386     0.569215362919    -1.376911187768
    H           -0.754034906384    -0.646617594499    -1.957100431654
    H           -0.288889190142     1.036282976019    -2.150687554738
    H           -1.666671030137     0.625652470908    -1.159648703704
    H            0.927861972226     1.395104469158     1.418256019931
    H            0.742894127197     2.286063451789    -0.084398863441
    H           -0.670625712896     1.835108215809     0.836243278660

  Mulliken Charges: (a.u.)
   Center  Symbol    Alpha    Beta     Spin     Total
       1     H     0.46981  0.46981  0.00000  0.06038
       2     C     3.04424  3.04424  0.00000 -0.08848
       3     O     4.18982  4.18982  0.00000 -0.37964
       4     H     0.46980  0.46980  0.00000  0.06039
       5     H     0.44022  0.44022  0.00000  0.11956
       6     C     2.87275  2.87275  0.00000  0.25450
       7     C     3.14153  3.14153  0.00000 -0.28307
       8     C     3.16450  3.16450  0.00000 -0.32900
       9     C     3.16447  3.16447  0.00000 -0.32894
      10     H     0.44882  0.44882  0.00000  0.10236
      11     H     0.44881  0.44881  0.00000  0.10238
      12     H     0.45938  0.45938  0.00000  0.08124
      13     H     0.44511  0.44511  0.00000  0.10978
      14     H     0.44838  0.44838  0.00000  0.10323
      15     H     0.44943  0.44943  0.00000  0.10113
      16     H     0.44510  0.44510  0.00000  0.10979
      17     H     0.44839  0.44839  0.00000  0.10322
      18     H     0.44943  0.44943  0.00000  0.10114

   Total alpha = 25.00000, Total beta = 25.00000, Total charge = -0.00000
