  ==> Input File <==

--------------------------------------------------------------------------
set {
	reference rhf
	basis 6-31G*
}

set_num_threads( 4 )
memory 2 gb

molecule MOL {
0 1

O	 2.257823	 0.547558	 -0.958059
C	 1.705091	 0.115954	 0.001797
C	 0.381791	 -0.609817	 0.001258
O	 2.197465	 0.216794	 1.230021
C	 -0.823008	 0.326187	 0.001381
H	 0.371250	 -1.265087	 -0.865474
H	 0.370908	 -1.265746	 0.867490
C	 -2.149452	 -0.435131	 -0.000098
H	 -0.770201	 0.977095	 -0.865636
H	 -0.771220	 0.975655	 0.869608
C	 -3.368779	 0.488503	 -0.000883
H	 -2.193746	 -1.087250	 -0.871175
H	 -2.195311	 -1.087803	 0.870418
C	 -4.693822	 -0.272754	 -0.001129
H	 -3.325798	 1.139422	 -0.871284
H	 -3.326423	 1.139959	 0.869145
H	 -4.781274	 -0.907928	 -0.878124
H	 -5.538651	 0.408946	 -0.001420
H	 -4.781694	 -0.907783	 0.875984
C	 3.441797	 0.877575	 1.371309
H	 4.210619	 0.363616	 0.812484
H	 3.668841	 0.856952	 2.425777
H	 3.371913	 1.898078	 1.023175

	symmetry c1
}
set optking {
	frozen_dihedral = ("
		1 2 3 6
	")
}

ee = optimize('scf')
oeprop('DIPOLE', 'QUADRUPOLE', 'MULLIKEN_CHARGES')
f=open( 'psi4out.xyz', 'w' )
f.write( "23  " )
f.write( str(ee) + "\n" )
f.write( MOL.save_string_xyz() )
f.close()
--------------------------------------------------------------------------

    Molecular point group: c1
  Charge       = 0
  Multiplicity = 1
  Basis Set: 6-31G*
  Basis Set:
  @DF-RHF Final Energy:  -422.97403754546724
    Total Energy =                       -422.9740375454668992
    Molecular point group: c1
  Basis Set: 6-31G*
  Basis Set:
  Basis Set: 6-31G*
  Basis Set:
  @DF-RHF Final Energy:  -422.97359678412693
    Total Energy =                       -422.9735967841280626
  Basis Set: 6-31G*
  Basis Set:
  Basis Set: 6-31G*
  Basis Set:
  @DF-RHF Final Energy:  -422.97461684186459
    Total Energy =                       -422.9746168418648722
  Basis Set: 6-31G*
  Basis Set:
  Basis Set: 6-31G*
  Basis Set:
  @DF-RHF Final Energy:  -422.97479912361808
    Total Energy =                       -422.9747991236188227
  Basis Set: 6-31G*
  Basis Set:
  Basis Set: 6-31G*
  Basis Set:
  @DF-RHF Final Energy:  -422.97480047064732
    Total Energy =                       -422.9748004706477786
  Basis Set: 6-31G*
  Basis Set:
  Charge       = 0
  Multiplicity = 1
  Basis Set: 6-31G*
  Basis Set:

    Orbital Energies (a.u.)
    -----------------------

    Doubly Occupied:

       1A    -20.604918     2A    -20.542013     3A    -11.370580
       4A    -11.280440     5A    -11.233345     6A    -11.229179
       7A    -11.221650     8A    -11.219757     9A    -11.211880
      10A     -1.468681    11A     -1.360772    12A     -1.096758
      13A     -1.045071    14A     -0.985564    15A     -0.934327
      16A     -0.845992    17A     -0.798386    18A     -0.772577
      19A     -0.694283    20A     -0.679810    21A     -0.672517
      22A     -0.653388    23A     -0.606965    24A     -0.596648
      25A     -0.578311    26A     -0.571571    27A     -0.540375
      28A     -0.535528    29A     -0.523702    30A     -0.506381
      31A     -0.491227    32A     -0.475652    33A     -0.470233
      34A     -0.465656    35A     -0.452894    36A     -0.428533

  @DF-RHF Final Energy:  -422.97480111889087

   => Energetics <=

    Nuclear Repulsion Energy =            454.0525426645764924
    One-Electron Energy =               -1475.7235525277474153
    Two-Electron Energy =                 598.6962087442798293
    DFT Exchange-Correlation Energy =       0.0000000000000000
    Empirical Dispersion Energy =           0.0000000000000000
    PCM Polarization Energy =               0.0000000000000000
    EFP Energy =                            0.0000000000000000
    Total Energy =                       -422.9748011188910368
    Molecular point group: c1
  Basis Set: 6-31G*
  Basis Set:

  -Total Gradient:
     Atom            X                  Y                   Z
    ------   -----------------  -----------------  -----------------
       1       -0.000146473075     0.000262639205     0.000146523775
       2        0.000223425650    -0.000456967162    -0.000142695706
       3       -0.000259947072     0.000408959047    -0.000116591011
       4        0.000022734530     0.000012852103    -0.000032184544
       5       -0.000020347824     0.000010866025     0.000002621014
       6        0.000138467366    -0.000223099645     0.000161074174
       7        0.000005756354    -0.000015934376    -0.000010929450
       8        0.000013802129    -0.000016138630    -0.000008912323
       9       -0.000004180372    -0.000017188928    -0.000003129633
      10       -0.000006043135     0.000002570209    -0.000009427374
      11        0.000008714140     0.000022908294     0.000005563580
      12        0.000013701826     0.000006159038    -0.000009034725
      13        0.000017883654    -0.000010930751    -0.000006350376
      14        0.000008559916    -0.000002036555     0.000010759599
      15       -0.000009926322    -0.000001148674    -0.000002576846
      16       -0.000005248797     0.000011263183    -0.000002059943
      17        0.000002230808     0.000001814218    -0.000001654017
      18        0.000005372111     0.000001728882     0.000002468094
      19       -0.000001595723    -0.000002888283     0.000001780268
      20       -0.000032768968    -0.000000198559     0.000016207397
      21        0.000003467312    -0.000005054060    -0.000005150106
      22        0.000017791649     0.000008550705     0.000002395419
      23        0.000004623836     0.000001274711     0.000001302737

  **** Optimization is complete! (in 6 steps) ****
    Final optimized geometry and variables:
    Molecular point group: c1

    Geometry (in Angstrom), charge = 0, multiplicity = 1:

    O            2.269967714182     0.422305097540    -1.145124828849
    C            1.777831483054    -0.063641241505    -0.177219054118
    C            0.475305273470    -0.823972477713    -0.173580749286
    O            2.303194414005     0.043085945572     1.035680782862
    C           -0.718602254834     0.142674323464    -0.168777151810
    H            0.452978863265    -1.434301981023    -1.068733326076
    H            0.437215835846    -1.474455101208     0.691432859063
    C           -2.060215623387    -0.590120768755    -0.196507651219
    H           -0.640379888032     0.801088724918    -1.028796132430
    H           -0.665908337161     0.771572676102     0.716759085749
    C           -3.260034217018     0.358815333966    -0.190860174098
    H           -2.105957097408    -1.222643307814    -1.081186305806
    H           -2.125193023980    -1.257485558709     0.661026485542
    C           -4.599791002283    -0.375808384092    -0.218510040065
    H           -3.195561095428     1.024945670234    -1.048259531465
    H           -3.213791127571     0.992153138154     0.692375572810
    H           -4.690938951341    -0.991787131987    -1.108618047834
    H           -5.430610475999     0.322729976030    -0.213542865688
    H           -4.708834660181    -1.025657479300     0.645178918637
    C            3.505550309748     0.782434534171     1.150694131066
    H            4.285837162815     0.332571410285     0.553969195175
    H            3.770553257848     0.754578147486     2.196142434318
    H            3.355988349068     1.802949279992     0.828687943537

  Mulliken Charges: (a.u.)
   Center  Symbol    Alpha    Beta     Spin     Total
       1     O     4.28645  4.28645  0.00000 -0.57291
       2     C     2.61564  2.61564  0.00000  0.76873
       3     C     3.19502  3.19502  0.00000 -0.39004
       4     O     4.30267  4.30267  0.00000 -0.60535
       5     C     3.16576  3.16576  0.00000 -0.33151
       6     H     0.40091  0.40091  0.00000  0.19819
       7     H     0.40302  0.40302  0.00000  0.19397
       8     C     3.15196  3.15196  0.00000 -0.30392
       9     H     0.40695  0.40695  0.00000  0.18610
      10     H     0.41407  0.41407  0.00000  0.17186
      11     C     3.15253  3.15253  0.00000 -0.30506
      12     H     0.42096  0.42096  0.00000  0.15808
      13     H     0.42200  0.42200  0.00000  0.15600
      14     C     3.23986  3.23986  0.00000 -0.47972
      15     H     0.42072  0.42072  0.00000  0.15855
      16     H     0.42193  0.42193  0.00000  0.15615
      17     H     0.42091  0.42091  0.00000  0.15818
      18     H     0.41809  0.41809  0.00000  0.16381
      19     H     0.42138  0.42138  0.00000  0.15724
      20     C     3.09306  3.09306  0.00000 -0.18612
      21     H     0.40840  0.40840  0.00000  0.18321
      22     H     0.40870  0.40870  0.00000  0.18260
      23     H     0.40903  0.40903  0.00000  0.18195

   Total alpha = 36.00000, Total beta = 36.00000, Total charge = -0.00000
