                              Psi4 1.0.54 Driver

  ==> Input File <==

--------------------------------------------------------------------------
set {
	reference rhf
	basis cc-pvtz
}

set_num_threads( 4 )
memory 2 gb

molecule MOL {
0 1

H	 -1.888943	 -1.175414	 1.427236
N	 -1.106201	 -0.558282	 1.382114
C	 -0.561396	 -0.500007	 0.035200
H	 -0.424769	 -0.898894	 2.027846
C	 0.575129	 0.507849	 -0.048832
H	 -1.359507	 -0.193803	 -0.632988
H	 -0.207911	 -1.468106	 -0.322916
C	 1.951750	 -0.141983	 0.035101
H	 0.478254	 1.061643	 -0.975981
H	 0.467676	 1.231891	 0.755499
H	 2.101550	 -0.848142	 -0.774949
H	 2.738260	 0.600794	 -0.026526
H	 2.078939	 -0.679792	 0.968824

	symmetry c1
}
set optking {
	frozen_dihedral = ("
		6 3 5 9
	")
}

ee,wfn = optimize('scf', return_wfn=True)
oeprop( wfn, 'DIPOLE', 'QUADRUPOLE', 'MULLIKEN_CHARGES')
f=open( 'psi4out.xyz', 'w' )
f.write( "13  " )
f.write( str(ee) + "\n" )
f.write( MOL.save_string_xyz() )
f.close()
--------------------------------------------------------------------------

    Molecular point group: c1
  Charge       = 0
  Multiplicity = 1
  Basis Set: CC-PVTZ
  Basis Set:
  @DF-RHF Final Energy:  -173.34757539879286
    Total Energy =                       -173.3475753987928556
    Molecular point group: c1
  Basis Set: CC-PVTZ
  Basis Set:
  Basis Set: CC-PVTZ
  Basis Set:
  @DF-RHF Final Energy:  -173.34793008794881
    Total Energy =                       -173.3479300879486971
  Basis Set: CC-PVTZ
  Basis Set:
  Basis Set: CC-PVTZ
  Basis Set:
  @DF-RHF Final Energy:  -173.34809132976193
    Total Energy =                       -173.3480913297618713
  Basis Set: CC-PVTZ
  Basis Set:
  Basis Set: CC-PVTZ
  Basis Set:
  @DF-RHF Final Energy:  -173.34809445813488
    Total Energy =                       -173.3480944581348808
  Basis Set: CC-PVTZ
  Basis Set:
  Charge       = 0
  Multiplicity = 1
  Basis Set: CC-PVTZ
  Basis Set:

    Orbital Energies (a.u.)
    -----------------------

    Doubly Occupied:

       1A    -15.527365     2A    -11.238414     3A    -11.210319
       4A    -11.208553     5A     -1.178178     6A     -1.033805
       7A     -0.904398     8A     -0.796369     9A     -0.667721
      10A     -0.632770    11A     -0.586304    12A     -0.563599
      13A     -0.554970    14A     -0.485946    15A     -0.478172
      16A     -0.466582    17A     -0.383292

  @DF-RHF Final Energy:  -173.34809497073172

   => Energetics <=

    Nuclear Repulsion Energy =            132.8391516031178980
    One-Electron Energy =                -496.5409794379465893
    Two-Electron Energy =                 190.3537328640970543
    DFT Exchange-Correlation Energy =       0.0000000000000000
    Empirical Dispersion Energy =           0.0000000000000000
    PCM Polarization Energy =               0.0000000000000000
    EFP Energy =                            0.0000000000000000
    Total Energy =                       -173.3480949707316370
    Molecular point group: c1
  Basis Set: CC-PVTZ
  Basis Set:

  -Total Gradient:
     Atom            X                  Y                   Z
    ------   -----------------  -----------------  -----------------
       1       -0.000045443201    -0.000013919825     0.000015827180
       2        0.000023038806     0.000022180069    -0.000024867160
       3       -0.002287762311     0.003319761338     0.004526080605
       4        0.000015566736    -0.000012745472     0.000019701177
       5        0.003001601077    -0.004025868805    -0.003472888947
       6        0.001471512275    -0.002108525651    -0.003251229200
       7       -0.000002306743    -0.000032714815    -0.000010306669
       8       -0.000035777684    -0.000008932405     0.000021127185
       9       -0.002143601897     0.002824443547     0.002157350475
      10       -0.000000672848     0.000024479189     0.000019690879
      11       -0.000006180185     0.000007934244    -0.000004057005
      12       -0.000003296682     0.000005807850     0.000003437491
      13        0.000013322657    -0.000001899263     0.000000133985

  **** Optimization is complete! (in 5 steps) ****
    Final optimized geometry and variables:
    Molecular point group: c1

    Geometry (in Angstrom), charge = 0, multiplicity = 1:

    H           -2.059915968351    -1.016146743367     1.079859026602
    N           -1.284709056194    -0.388472180583     1.039291962235
    C           -0.807517812473    -0.241482832215    -0.327878399711
    H           -0.571870198395    -0.770032009137     1.625939957563
    C            0.385268422550     0.717652212790    -0.412594752554
    H           -1.620992166237     0.130671869539    -0.938684582814
    H           -0.522467184205    -1.195767364597    -0.774603577289
    C            1.743865213808     0.025117344244    -0.386376950258
    H            0.294447549237     1.333362297925    -1.300998614113
    H            0.311788480412     1.407191200722     0.421762831439
    H            1.869875687379    -0.624930898693    -1.245474547116
    H            2.551779790575     0.747610040178    -0.396119799978
    H            1.861298428592    -0.583124999870     0.505243874290

  Mulliken Charges: (a.u.)
   Center  Symbol    Alpha    Beta     Spin     Total
       1     H     0.42966  0.42966  0.00000  0.14067
       2     N     3.68745  3.68745  0.00000 -0.37491
       3     C     3.02796  3.02796  0.00000 -0.05592
       4     H     0.43108  0.43108  0.00000  0.13784
       5     C     3.09260  3.09260  0.00000 -0.18520
       6     H     0.45324  0.45324  0.00000  0.09352
       7     H     0.47043  0.47043  0.00000  0.05914
       8     C     3.14517  3.14517  0.00000 -0.29035
       9     H     0.45098  0.45098  0.00000  0.09805
      10     H     0.44886  0.44886  0.00000  0.10228
      11     H     0.45538  0.45538  0.00000  0.08924
      12     H     0.44843  0.44843  0.00000  0.10314
      13     H     0.45875  0.45875  0.00000  0.08250

   Total alpha = 17.00000, Total beta = 17.00000, Total charge = -0.00000

*** Psi4 exiting successfully. Buy a developer a beer!
