  ==> Input File <==

--------------------------------------------------------------------------
set {
	reference rhf
	basis 6-31G*
}

set_num_threads( 4 )
memory 2 gb

molecule MOL {
0 1

O	 2.862325	 1.357334	 0.000267
C	 2.843464	 0.164689	 -0.000222
C	 1.546494	 -0.624492	 -0.000609
C	 4.124123	 -0.644674	 -0.000428
C	 0.291004	 0.242674	 0.000989
H	 1.557904	 -1.283758	 -0.867573
H	 1.558622	 -1.285963	 0.864672
C	 -0.994322	 -0.586602	 0.000262
H	 0.309117	 0.896430	 -0.865270
H	 0.309661	 0.894078	 0.869017
C	 -2.259874	 0.272531	 0.000494
H	 -1.004862	 -1.240012	 -0.870939
H	 -1.005220	 -1.241071	 0.870675
C	 -2.546046	 0.929186	 -1.351144
H	 -2.170216	 1.044338	 0.762921
H	 -3.111160	 -0.341633	 0.288784
C	 -3.811620	 1.785888	 -1.342909
H	 -1.696282	 1.544321	 -1.639818
H	 -2.637377	 0.158581	 -2.113827
H	 -3.737667	 2.587331	 -0.613272
H	 -3.987333	 2.238182	 -2.314123
H	 -4.685610	 1.191564	 -1.091783
H	 4.165367	 -1.288615	 -0.874074
H	 4.976217	 0.020734	 -0.001915
H	 4.166763	 -1.286207	 0.874930

	symmetry c1
}
set optking {
	frozen_dihedral = ("
		15 11 8 12
	")
}

ee = optimize('scf')
oeprop('DIPOLE', 'QUADRUPOLE', 'MULLIKEN_CHARGES')
f=open( 'psi4out.xyz', 'w' )
f.write( "25  " )
f.write( str(ee) + "\n" )
f.write( MOL.save_string_xyz() )
f.close()
--------------------------------------------------------------------------

    Molecular point group: c1
  Charge       = 0
  Multiplicity = 1
  Basis Set: 6-31G*
  Basis Set:
  @DF-RHF Final Energy:  -387.13447132155875
    Total Energy =                       -387.1344713215586353
    Molecular point group: c1
  Basis Set: 6-31G*
  Basis Set:
  Basis Set: 6-31G*
  Basis Set:
  @DF-RHF Final Energy:  -387.13460627185634
    Total Energy =                       -387.1346062718570238
  Basis Set: 6-31G*
  Basis Set:
  Basis Set: 6-31G*
  Basis Set:
  @DF-RHF Final Energy:  -387.13469446194625
    Total Energy =                       -387.1346944619464239
  Basis Set: 6-31G*
  Basis Set:
  Basis Set: 6-31G*
  Basis Set:
  @DF-RHF Final Energy:  -387.13469662930856
    Total Energy =                       -387.1346966293086780
  Basis Set: 6-31G*
  Basis Set:
  Basis Set: 6-31G*
  Basis Set:
  @DF-RHF Final Energy:  -387.13468220862751
    Total Energy =                       -387.1346822086277371
  Basis Set: 6-31G*
  Basis Set:
  Basis Set: 6-31G*
  Basis Set:
  @DF-RHF Final Energy:  -387.13469706118406
    Total Energy =                       -387.1346970611838287
  Basis Set: 6-31G*
  Basis Set:
  Charge       = 0
  Multiplicity = 1
  Basis Set: 6-31G*
  Basis Set:

    Orbital Energies (a.u.)
    -----------------------

    Doubly Occupied:

       1A    -20.550566     2A    -11.326395     3A    -11.231898
       4A    -11.228403     5A    -11.217195     6A    -11.216326
       7A    -11.214112     8A    -11.213522     9A    -11.207355
      10A     -1.395855    11A     -1.093354    12A     -1.054855
      13A     -1.013433    14A     -0.968896    15A     -0.889220
      16A     -0.826166    17A     -0.779513    18A     -0.730853
      19A     -0.654089    20A     -0.650364    21A     -0.636576
      22A     -0.619090    23A     -0.603470    24A     -0.580535
      25A     -0.567566    26A     -0.562510    27A     -0.546621
      28A     -0.523200    29A     -0.503188    30A     -0.496280
      31A     -0.487768    32A     -0.477778    33A     -0.461940
      34A     -0.456780    35A     -0.447525    36A     -0.399913

  @DF-RHF Final Energy:  -387.13469713404794

   => Energetics <=

    Nuclear Repulsion Energy =            444.0613267731891369
    One-Electron Energy =               -1404.7258262597085832
    Two-Electron Energy =                 573.5298023524716200
    DFT Exchange-Correlation Energy =       0.0000000000000000
    Empirical Dispersion Energy =           0.0000000000000000
    PCM Polarization Energy =               0.0000000000000000
    EFP Energy =                            0.0000000000000000
    Total Energy =                       -387.1346971340477694
    Molecular point group: c1
  Basis Set: 6-31G*
  Basis Set:

  -Total Gradient:
     Atom            X                  Y                   Z
    ------   -----------------  -----------------  -----------------
       1       -0.000001909162     0.000000220653     0.000013650149
       2        0.000001572686    -0.000001833132    -0.000053527277
       3        0.000007479415     0.000003178068    -0.000007202946
       4       -0.000001359150    -0.000000206613     0.000043422130
       5        0.000005181846    -0.000001565766     0.000015554701
       6       -0.000000123340    -0.000002931143     0.000005600310
       7       -0.000002622041     0.000005432749     0.000006554715
       8       -0.000662961113    -0.001000255510     0.000689706526
       9       -0.000001499248     0.000004075014    -0.000004895223
      10        0.000003214604    -0.000005181004    -0.000002451811
      11       -0.000554005418    -0.000834030041     0.000961848328
      12        0.000647907955     0.000971857740    -0.000723093882
      13       -0.000000051821    -0.000002745487    -0.000000138279
      14        0.000000979373     0.000009431102     0.000003908854
      15        0.000560834831     0.000846634698    -0.000931239811
      16       -0.000004813737     0.000003215623     0.000004703339
      17       -0.000003562839     0.000000429395    -0.000006600890
      18        0.000004096488     0.000002432474     0.000000526745
      19        0.000001141344     0.000002216310     0.000002426839
      20        0.000002110355     0.000002231440    -0.000000928110
      21       -0.000003728142    -0.000001395093     0.000000053629
      22        0.000002352082    -0.000000813606     0.000001826667
      23       -0.000004004185     0.000007972846    -0.000009062736
      24       -0.000000821314     0.000000447726    -0.000002386830
      25        0.000004590532    -0.000008818443    -0.000008255138

  **** Optimization is complete! (in 7 steps) ****
    Final optimized geometry and variables:
    Molecular point group: c1

    Geometry (in Angstrom), charge = 0, multiplicity = 1:

    O            2.669114678661     1.007541063900     0.291773154030
    C            2.635379396676    -0.184659633771     0.311059575933
    C            1.328772951184    -0.957765802989     0.305436740895
    C            3.905715885661    -1.009492163287     0.342272047362
    C            0.084388772782    -0.074609302420     0.288450858170
    H            1.340138657612    -1.623384940690    -0.556746408548
    H            1.324550516690    -1.613116947500     1.175405550800
    C           -1.209100642446    -0.894727689901     0.284326082127
    H            0.127670901352     0.574558624580    -0.578706784085
    H            0.100837590902     0.578972180592     1.155111723492
    C           -2.486376020557    -0.044880263643     0.289596918960
    H           -1.216647174117    -1.546659883818    -0.588040621512
    H           -1.214808973993    -1.546360382903     1.155640638690
    C           -2.808623481360     0.618614442089    -1.052837677068
    H           -2.401202621861     0.726387270124     1.053083754790
    H           -3.327333015916    -0.672144563312     0.576881548758
    C           -4.100736770837     1.434163615079    -1.011758700887
    H           -1.989936527581     1.265908270295    -1.354731961677
    H           -2.891610085355    -0.148987942690    -1.819748965707
    H           -4.036927806289     2.232410176278    -0.277696056140
    H           -4.310406161054     1.887891666075    -1.975476445431
    H           -4.950322732028     0.810542222464    -0.747648217324
    H            3.949113037607    -1.671482737274    -0.517675690146
    H            4.766033824304    -0.354777106281     0.337647929533
    H            3.930064578278    -1.633615076934     1.230815225545

  Mulliken Charges: (a.u.)
   Center  Symbol    Alpha    Beta     Spin     Total
       1     O     4.26127  4.26127  0.00000 -0.52254
       2     C     2.73566  2.73566  0.00000  0.52867
       3     C     3.21047  3.21047  0.00000 -0.42094
       4     C     3.28672  3.28672  0.00000 -0.57344
       5     C     3.14979  3.14979  0.00000 -0.29958
       6     H     0.40987  0.40987  0.00000  0.18027
       7     H     0.41023  0.41023  0.00000  0.17955
       8     C     3.15574  3.15574  0.00000 -0.31148
       9     H     0.41027  0.41027  0.00000  0.17946
      10     H     0.41269  0.41269  0.00000  0.17462
      11     C     3.15241  3.15241  0.00000 -0.30482
      12     H     0.42492  0.42492  0.00000  0.15015
      13     H     0.42282  0.42282  0.00000  0.15436
      14     C     3.15373  3.15373  0.00000 -0.30747
      15     H     0.42230  0.42230  0.00000  0.15540
      16     H     0.42188  0.42188  0.00000  0.15624
      17     C     3.23928  3.23928  0.00000 -0.47856
      18     H     0.41933  0.41933  0.00000  0.16133
      19     H     0.42419  0.42419  0.00000  0.15161
      20     H     0.42095  0.42095  0.00000  0.15810
      21     H     0.41918  0.41918  0.00000  0.16164
      22     H     0.42243  0.42243  0.00000  0.15515
      23     H     0.40878  0.40878  0.00000  0.18244
      24     H     0.39647  0.39647  0.00000  0.20707
      25     H     0.40861  0.40861  0.00000  0.18278

   Total alpha = 36.00000, Total beta = 36.00000, Total charge = -0.00000
