                              Psi4 1.0.54 Driver

  ==> Input File <==

--------------------------------------------------------------------------
set {
	reference rhf
	basis cc-pvtz
}

set_num_threads( 4 )
memory 2 gb

molecule MOL {
0 1

H	 -3.436473	 1.252944	 -1.023892
O	 -3.458596	 0.315260	 -0.960865
C	 -3.176635	 -0.080824	 0.355601
C	 -1.763371	 0.265266	 0.799691
H	 -3.321825	 -1.153438	 0.379502
H	 -3.895468	 0.357385	 1.043382
C	 -0.673390	 -0.426948	 -0.013392
H	 -1.631049	 1.344913	 0.747560
H	 -1.664587	 -0.001624	 1.849167
C	 0.737842	 -0.043159	 0.423759
H	 -0.806103	 -0.190518	 -1.063345
H	 -0.797221	 -1.503753	 0.074146
C	 1.180423	 -0.757303	 1.699364
H	 1.429022	 -0.264300	 -0.383865
H	 0.787117	 1.032256	 0.581594
C	 2.557386	 -0.345499	 2.223041
H	 1.168652	 -1.831725	 1.531052
H	 0.445677	 -0.565716	 2.476580
C	 3.725621	 -0.730213	 1.318405
H	 2.705722	 -0.804820	 3.195562
H	 2.570547	 0.728292	 2.391025
H	 3.734630	 -1.798703	 1.127814
H	 4.671292	 -0.470301	 1.780351
H	 3.681844	 -0.224178	 0.361526

	symmetry c1
}
set optking {
	frozen_dihedral = ("
		13 10 7 11
	")
}

ee,wfn = optimize('scf', return_wfn=True)
oeprop( wfn, 'DIPOLE', 'QUADRUPOLE', 'MULLIKEN_CHARGES')
f=open( 'psi4out.xyz', 'w' )
f.write( "24  " )
f.write( str(ee) + "\n" )
f.write( MOL.save_string_xyz() )
f.close()
--------------------------------------------------------------------------

    Molecular point group: c1
  Charge       = 0
  Multiplicity = 1
  Basis Set: CC-PVTZ
  Basis Set:
  @DF-RHF Final Energy:  -349.37790668713626
    Total Energy =                       -349.3779066871363739
    Molecular point group: c1
  Basis Set: CC-PVTZ
  Basis Set:
  Basis Set: CC-PVTZ
  Basis Set:
  @DF-RHF Final Energy:  -349.37815147794987
    Total Energy =                       -349.3781514779499844
  Basis Set: CC-PVTZ
  Basis Set:
  Basis Set: CC-PVTZ
  Basis Set:
  @DF-RHF Final Energy:  -349.37818441362674
    Total Energy =                       -349.3781844136271957
  Basis Set: CC-PVTZ
  Basis Set:
  Basis Set: CC-PVTZ
  Basis Set:
  @DF-RHF Final Energy:  -349.37818069324214
    Total Energy =                       -349.3781806932419158
  Basis Set: CC-PVTZ
  Basis Set:
  Basis Set: CC-PVTZ
  Basis Set:
  @DF-RHF Final Energy:  -349.37818779208845
    Total Energy =                       -349.3781877920885677
  Basis Set: CC-PVTZ
  Basis Set:
  Charge       = 0
  Multiplicity = 1
  Basis Set: CC-PVTZ
  Basis Set:

    Orbital Energies (a.u.)
    -----------------------

    Doubly Occupied:

       1A    -20.546170     2A    -11.265494     3A    -11.214908
       4A    -11.212826     5A    -11.210633     6A    -11.210016
       7A    -11.209144     8A    -11.205371     9A     -1.364048
      10A     -1.089819    11A     -1.048315    12A     -0.985623
      13A     -0.917118    14A     -0.854124    15A     -0.805078
      16A     -0.772666    17A     -0.682525    18A     -0.644271
      19A     -0.631058    20A     -0.619880    21A     -0.597837
      22A     -0.588005    23A     -0.564089    24A     -0.542030
      25A     -0.518925    26A     -0.510428    27A     -0.496338
      28A     -0.482555    29A     -0.467679    30A     -0.458433
      31A     -0.457332    32A     -0.438296    33A     -0.425924

  @DF-RHF Final Energy:  -349.37818785430676

   => Energetics <=

    Nuclear Repulsion Energy =            387.1471224378515785
    One-Electron Energy =               -1240.9766947697501109
    Two-Electron Energy =                 504.4513844775921143
    DFT Exchange-Correlation Energy =       0.0000000000000000
    Empirical Dispersion Energy =           0.0000000000000000
    PCM Polarization Energy =               0.0000000000000000
    EFP Energy =                            0.0000000000000000
    Total Energy =                       -349.3781878543064749
    Molecular point group: c1
  Basis Set: CC-PVTZ
  Basis Set:

  -Total Gradient:
     Atom            X                  Y                   Z
    ------   -----------------  -----------------  -----------------
       1       -0.000003550754     0.000006713292    -0.000009558063
       2       -0.000011250245     0.000029657714     0.000009743793
       3        0.000003135101    -0.000048760158     0.000011901422
       4       -0.000003402060     0.000022688682    -0.000028996277
       5        0.000000532484    -0.000004877445     0.000010104363
       6       -0.000003788079     0.000002117549    -0.000010085275
       7       -0.000458183172     0.001506535047     0.000232378736
       8        0.000004308261     0.000004716089     0.000002876632
       9       -0.000000966445    -0.000000595522    -0.000003117573
      10       -0.000509616771     0.000927273555     0.000844141000
      11        0.000513394955    -0.001530001658    -0.000401898828
      12       -0.000005713672    -0.000004463637    -0.000001976145
      13        0.000458472302    -0.000902255621    -0.000678079074
      14        0.000018543588     0.000004065769    -0.000001254480
      15        0.000002433729    -0.000005219741     0.000005017788
      16       -0.000001392084    -0.000015319935     0.000015015598
      17       -0.000001783498     0.000001810922     0.000003869892
      18       -0.000002157646     0.000004895572    -0.000000761824
      19        0.000000098432     0.000001589679    -0.000002886768
      20        0.000011387036    -0.000000962702     0.000005417889
      21       -0.000002056566    -0.000002193974    -0.000000724616
      22       -0.000000135281    -0.000000664500     0.000002379040
      23       -0.000003102469     0.000002158127     0.000000398301
      24       -0.000005207152     0.000001092897    -0.000003905533

  **** Optimization is complete! (in 6 steps) ****
    Final optimized geometry and variables:
    Molecular point group: c1

    Geometry (in Angstrom), charge = 0, multiplicity = 1:

    H           -3.261202179164     1.456243732226    -1.769081489898
    O           -3.283068595055     0.518717385910    -1.703820017707
    C           -3.032316389368     0.127174561042    -0.379848882961
    C           -1.631611509564     0.478761457517     0.099600329769
    H           -3.174829678074    -0.945813437101    -0.356714729395
    H           -3.769503352800     0.564926611039     0.288549132876
    C           -0.522184384890    -0.206356632733    -0.695202161796
    H           -1.501644371326     1.558844403183     0.048885122970
    H           -1.564807861649     0.214055663743     1.150704714341
    C            0.897042966604     0.158701362327    -0.248271296831
    H           -0.640457288505     0.033886205225    -1.744728989463
    H           -0.650481027278    -1.284349730702    -0.624760086318
    C            1.351131375590    -0.548140955182     1.029357921659
    H            1.581151890680    -0.090783987722    -1.051660041628
    H            0.969258834871     1.235810684435    -0.113366649687
    C            2.735072444947    -0.132872655282     1.532958537892
    H            1.340302630703    -1.622550615578     0.860595163137
    H            0.633245520394    -0.359469334306     1.821565860595
    C            3.891512696071    -0.508553239131     0.609473523372
    H            2.900338361797    -0.595432033385     2.501285589149
    H            2.746160574111     0.940257153149     1.705277175159
    H            3.899726355906    -1.575477986247     0.410268220757
    H            4.842631045831    -0.250831441096     1.061324400777
    H            3.834701334464     0.004878235086    -0.342594876761

  Mulliken Charges: (a.u.)
   Center  Symbol    Alpha    Beta     Spin     Total
       1     H     0.39523  0.39523  0.00000  0.20955
       2     O     4.20378  4.20378  0.00000 -0.40756
       3     C     2.97651  2.97651  0.00000  0.04699
       4     C     3.09991  3.09991  0.00000 -0.19982
       5     H     0.45834  0.45834  0.00000  0.08332
       6     H     0.46023  0.46023  0.00000  0.07955
       7     C     3.09703  3.09703  0.00000 -0.19406
       8     H     0.45919  0.45919  0.00000  0.08162
       9     H     0.45346  0.45346  0.00000  0.09308
      10     C     3.10312  3.10312  0.00000 -0.20625
      11     H     0.43992  0.43992  0.00000  0.12016
      12     H     0.45491  0.45491  0.00000  0.09017
      13     C     3.09410  3.09410  0.00000 -0.18820
      14     H     0.44435  0.44435  0.00000  0.11130
      15     H     0.45538  0.45538  0.00000  0.08924
      16     C     3.08941  3.08941  0.00000 -0.17883
      17     H     0.45407  0.45407  0.00000  0.09187
      18     H     0.44938  0.44938  0.00000  0.10124
      19     C     3.15270  3.15270  0.00000 -0.30539
      20     H     0.44898  0.44898  0.00000  0.10205
      21     H     0.45491  0.45491  0.00000  0.09018
      22     H     0.45478  0.45478  0.00000  0.09044
      23     H     0.44673  0.44673  0.00000  0.10654
      24     H     0.45359  0.45359  0.00000  0.09282

   Total alpha = 33.00000, Total beta = 33.00000, Total charge = -0.00000

*** Psi4 exiting successfully. Buy a developer a beer!
