  ==> Input File <==

--------------------------------------------------------------------------
set {
	reference rhf
	basis cc-pvtz
}

set_num_threads( 4 )
memory 2 gb

molecule MOL {
0 1

H	 0.928126	 -1.060654	 0.292402
C	 0.862491	 -0.391462	 -0.576341
C	 0.062554	 0.862911	 -0.350953
O	 1.404630	 -0.678616	 -1.586678
C	 -1.339253	 0.577611	 0.196911
H	 0.020918	 1.416730	 -1.279955
H	 0.614381	 1.459933	 0.371631
C	 -1.813142	 -0.849710	 -0.061612
H	 -2.032833	 1.276441	 -0.256032
H	 -1.357249	 0.782269	 1.263793
H	 -1.839268	 -1.063526	 -1.124230
H	 -2.810118	 -1.001930	 0.334000
H	 -1.159274	 -1.579980	 0.402282

	symmetry c1
}
set optking {
	frozen_dihedral = ("
		6 3 5 9
	")
}

ee = optimize('scf')
oeprop('DIPOLE', 'QUADRUPOLE', 'MULLIKEN_CHARGES')
f=open( 'psi4out.xyz', 'w' )
f.write( "13  " )
f.write( str(ee) + "\n" )
f.write( MOL.save_string_xyz() )
f.close()
--------------------------------------------------------------------------

    Molecular point group: c1
  Charge       = 0
  Multiplicity = 1
  Basis Set: CC-PVTZ
  Basis Set:
  @DF-RHF Final Energy:  -231.06233605464143
    Total Energy =                       -231.0623360546415483
    Molecular point group: c1
  Basis Set: CC-PVTZ
  Basis Set:
  Basis Set: CC-PVTZ
  Basis Set:
  @DF-RHF Final Energy:  -231.06288092532458
    Total Energy =                       -231.0628809253248050
  Basis Set: CC-PVTZ
  Basis Set:
  Basis Set: CC-PVTZ
  Basis Set:
  @DF-RHF Final Energy:  -231.06417561965512
    Total Energy =                       -231.0641756196549750
  Basis Set: CC-PVTZ
  Basis Set:
  Basis Set: CC-PVTZ
  Basis Set:
  @DF-RHF Final Energy:  -231.06431478876837
    Total Energy =                       -231.0643147887682858
  Basis Set: CC-PVTZ
  Basis Set:
  Basis Set: CC-PVTZ
  Basis Set:
  @DF-RHF Final Energy:  -231.06440348096436
    Total Energy =                       -231.0644034809642164
  Basis Set: CC-PVTZ
  Basis Set:
  Basis Set: CC-PVTZ
  Basis Set:
  @DF-RHF Final Energy:  -231.06442772134838
    Total Energy =                       -231.0644277213484372
  Basis Set: CC-PVTZ
  Basis Set:
  Basis Set: CC-PVTZ
  Basis Set:
  @DF-RHF Final Energy:  -231.06442897917913
    Total Energy =                       -231.0644289791791266
  Basis Set: CC-PVTZ
  Basis Set:
  Charge       = 0
  Multiplicity = 1
  Basis Set: CC-PVTZ
  Basis Set:

    Orbital Energies (a.u.)
    -----------------------

    Doubly Occupied:

       1A    -20.551497     2A    -11.321641     3A    -11.237274
       4A    -11.234436     5A    -11.220839     6A     -1.406422
       7A     -1.083831     8A     -0.974182     9A     -0.855849
      10A     -0.781393    11A     -0.672771    12A     -0.641317
      13A     -0.633532    14A     -0.603132    15A     -0.557606
      16A     -0.531409    17A     -0.514615    18A     -0.488862
      19A     -0.480446    20A     -0.412086

  @DF-RHF Final Energy:  -231.06442877226630

   => Energetics <=

    Nuclear Repulsion Energy =            174.4366094763055344
    One-Electron Energy =                -658.5958000293535406
    Two-Electron Energy =                 253.0947617807817664
    DFT Exchange-Correlation Energy =       0.0000000000000000
    Empirical Dispersion Energy =           0.0000000000000000
    PCM Polarization Energy =               0.0000000000000000
    EFP Energy =                            0.0000000000000000
    Total Energy =                       -231.0644287722662398
    Molecular point group: c1
  Basis Set: CC-PVTZ
  Basis Set:

  -Total Gradient:
     Atom            X                  Y                   Z
    ------   -----------------  -----------------  -----------------
       1        0.000002692496    -0.000040554637    -0.000061290177
       2        0.000063099526    -0.000002583767     0.000161120396
       3       -0.000607642315    -0.006642633663    -0.004433151314
       4        0.000020609419    -0.000012934493    -0.000005950620
       5        0.001342348641     0.005462147317     0.005466224907
       6        0.000158261706     0.004864113886     0.002874288475
       7       -0.000004209974    -0.000075417554    -0.000033901887
       8       -0.000063603912    -0.000149054382     0.000014249642
       9       -0.000966128072    -0.003461963414    -0.003937410824
      10        0.000096144700     0.000086570898    -0.000008572158
      11        0.000018664085    -0.000044228603     0.000001400293
      12       -0.000009066891    -0.000010173582    -0.000057752141
      13       -0.000051169408     0.000026711994     0.000020745407

  **** Optimization is complete! (in 8 steps) ****
    Final optimized geometry and variables:
    Molecular point group: c1

    Geometry (in Angstrom), charge = 0, multiplicity = 1:

    H            1.291010773125    -0.847530705582     0.814098304762
    C            1.098088624019    -0.249388487966    -0.084758096374
    C            0.225274194614     0.956993407627     0.118456849818
    O            1.586253959230    -0.560637573924    -1.115808917176
    C           -1.175132171764     0.668624814524     0.710310434785
    H            0.153287591753     1.510039828613    -0.807748391239
    H            0.766024684568     1.601899601657     0.808259858879
    C           -1.721815695535    -0.731083265208     0.416840427571
    H           -1.865973259801     1.374389480478     0.266479839803
    H           -1.174444919348     0.839410026943     1.779374320343
    H           -1.719496154692    -0.938081304315    -0.647524897731
    H           -2.742942834066    -0.815718729970     0.768276924713
    H           -1.146059736959    -1.508331536990     0.905443775763

  Mulliken Charges: (a.u.)
   Center  Symbol    Alpha    Beta     Spin     Total
       1     H     0.46197  0.46197  0.00000  0.07606
       2     C     2.90375  2.90375  0.00000  0.19250
       3     C     3.08972  3.08972  0.00000 -0.17943
       4     O     4.16683  4.16683  0.00000 -0.33367
       5     C     3.09709  3.09709  0.00000 -0.19417
       6     H     0.44106  0.44106  0.00000  0.11788
       7     H     0.44757  0.44757  0.00000  0.10486
       8     C     3.15206  3.15206  0.00000 -0.30412
       9     H     0.44598  0.44598  0.00000  0.10804
      10     H     0.44737  0.44737  0.00000  0.10527
      11     H     0.44539  0.44539  0.00000  0.10922
      12     H     0.44612  0.44612  0.00000  0.10777
      13     H     0.45511  0.45511  0.00000  0.08979

   Total alpha = 20.00000, Total beta = 20.00000, Total charge = -0.00000
