  ==> Input File <==

--------------------------------------------------------------------------
set {
	reference rhf
	basis 6-31G*
}

set_num_threads( 4 )
memory 2 gb

molecule MOL {
0 1

O	 -0.291628	 1.323815	 -0.000732
C	 -0.449655	 0.146360	 0.000961
C	 -1.783294	 -0.549321	 -0.000296
O	 0.550821	 -0.724572	 0.000672
H	 -1.863538	 -1.185371	 -0.874187
H	 -2.574672	 0.185258	 -0.002793
H	 -1.866414	 -1.182381	 0.875436
C	 0.218097	 -2.084146	 -0.216432
H	 -0.450283	 -2.439087	 0.554698
H	 1.150782	 -2.625093	 -0.181427
H	 -0.252496	 -2.210209	 -1.180793

	symmetry c1
}
set optking {
	frozen_dihedral = ("
		8 4 2 1
	")
}

ee = optimize('scf')
oeprop('DIPOLE', 'QUADRUPOLE', 'MULLIKEN_CHARGES')
f=open( 'psi4out.xyz', 'w' )
f.write( "11  " )
f.write( str(ee) + "\n" )
f.write( MOL.save_string_xyz() )
f.close()
--------------------------------------------------------------------------

    Molecular point group: c1
  Charge       = 0
  Multiplicity = 1
  Basis Set: 6-31G*
  Basis Set:
  @DF-RHF Final Energy:  -266.81046506896223
    Total Energy =                       -266.8104650689621167
    Molecular point group: c1
  Basis Set: 6-31G*
  Basis Set:
  Basis Set: 6-31G*
  Basis Set:
  @DF-RHF Final Energy:  -266.80899730299950
    Total Energy =                       -266.8089973029995008
  Basis Set: 6-31G*
  Basis Set:
  Basis Set: 6-31G*
  Basis Set:
  @DF-RHF Final Energy:  -266.81828190315707
    Total Energy =                       -266.8182819031572421
  Basis Set: 6-31G*
  Basis Set:
  Basis Set: 6-31G*
  Basis Set:
  @DF-RHF Final Energy:  -266.82054454192064
    Total Energy =                       -266.8205445419208104
  Basis Set: 6-31G*
  Basis Set:
  @DF-RHF Final Energy:  -266.81990248139607
    Total Energy =                       -266.8199024813961842
  @DF-RHF Final Energy:  -266.82085179176744
    Total Energy =                       -266.8208517917673248
  Basis Set: 6-31G*
  Basis Set:
  @DF-RHF Final Energy:  -266.82127360144335
    Total Energy =                       -266.8212736014432949
  Basis Set: 6-31G*
  Basis Set:
  Basis Set: 6-31G*
  Basis Set:
  @DF-RHF Final Energy:  -266.82127646128242
    Total Energy =                       -266.8212764612823094
  Basis Set: 6-31G*
  Basis Set:
  Basis Set: 6-31G*
  Basis Set:
  @DF-RHF Final Energy:  -266.82127873374213
    Total Energy =                       -266.8212787337421332
  Basis Set: 6-31G*
  Basis Set:
  Charge       = 0
  Multiplicity = 1
  Basis Set: 6-31G*
  Basis Set:

    Orbital Energies (a.u.)
    -----------------------

    Doubly Occupied:

       1A    -20.604698     2A    -20.540753     3A    -11.378259
       4A    -11.298777     5A    -11.244931     6A     -1.465583
       7A     -1.367088     8A     -1.022998     9A     -0.986031
      10A     -0.784810    11A     -0.699218    12A     -0.687147
      13A     -0.678543    14A     -0.601796    15A     -0.595731
      16A     -0.577955    17A     -0.546952    18A     -0.516775
      19A     -0.448393    20A     -0.436047

  @DF-RHF Final Energy:  -266.82127883831697

   => Energetics <=

    Nuclear Repulsion Energy =            182.8373969624476842
    One-Electron Energy =                -726.3523773542580102
    Two-Electron Energy =                 276.6937015534933266
    DFT Exchange-Correlation Energy =       0.0000000000000000
    Empirical Dispersion Energy =           0.0000000000000000
    PCM Polarization Energy =               0.0000000000000000
    EFP Energy =                            0.0000000000000000
    Total Energy =                       -266.8212788383170277
    Molecular point group: c1
  Basis Set: 6-31G*
  Basis Set:

  -Total Gradient:
     Atom            X                  Y                   Z
    ------   -----------------  -----------------  -----------------
       1       -0.000028988997     0.000028128953    -0.001064010064
       2        0.000093629443     0.000055371772     0.001002823455
       3        0.000004599227     0.000005046908    -0.000019102254
       4       -0.000179788771    -0.000195235574     0.000991985084
       5        0.000003448119     0.000000928410     0.000011978281
       6       -0.000004934634     0.000000346277     0.000002410390
       7        0.000005319085     0.000002311068     0.000006737342
       8        0.000112412793     0.000121188380    -0.000932118599
       9       -0.000000464311     0.000003536875    -0.000003064863
      10       -0.000004619546    -0.000012650094     0.000000841545
      11       -0.000000612407    -0.000008972973     0.000001519681

  **** Optimization is complete! (in 10 steps) ****
    Final optimized geometry and variables:
    Molecular point group: c1

    Geometry (in Angstrom), charge = 0, multiplicity = 1:

    O            0.090119022499     1.685933696140     0.046413989791
    C           -0.138183346249     0.524967401135     0.042212026283
    C           -1.544080240027    -0.031114284292     0.058393675083
    O            0.877997303553    -0.340993689344     0.038312960137
    H           -1.741841147681    -0.635239002514    -0.819823006629
    H           -2.231173760709     0.800549271689     0.080039307086
    H           -1.704051401361    -0.652143556806     0.932934541056
    C            0.697905708064    -1.721089629570    -0.172645879964
    H            0.081927724396    -2.169851150299     0.596436783694
    H            1.684179879662    -2.155881706511    -0.130392252960
    H            0.266830685863    -1.920112850910    -1.146103487506

  Mulliken Charges: (a.u.)
   Center  Symbol    Alpha    Beta     Spin     Total
       1     O     4.26428  4.26428  0.00000 -0.52855
       2     C     2.61500  2.61500  0.00000  0.77001
       3     C     3.30917  3.30917  0.00000 -0.61834
       4     O     4.29521  4.29521  0.00000 -0.59042
       5     H     0.40359  0.40359  0.00000  0.19282
       6     H     0.38684  0.38684  0.00000  0.22632
       7     H     0.40201  0.40201  0.00000  0.19599
       8     C     3.09338  3.09338  0.00000 -0.18676
       9     H     0.41719  0.41719  0.00000  0.16561
      10     H     0.39731  0.39731  0.00000  0.20537
      11     H     0.41602  0.41602  0.00000  0.16796

   Total alpha = 20.00000, Total beta = 20.00000, Total charge =  0.00000
