  ==> Input File <==

--------------------------------------------------------------------------
set {
	reference rhf
	basis 6-31G*
}

set_num_threads( 4 )
memory 2 gb

molecule MOL {
0 1

H	 -2.698709	 -0.000305	 0.034435
C	 -1.693833	 0.000034	 0.434417
O	 -0.828952	 -0.000968	 -0.659236
H	 -1.574200	 0.882896	 1.055746
H	 -1.574147	 -0.881698	 1.057355
C	 0.500948	 0.422226	 -0.467465
C	 0.594627	 1.891197	 -0.059709
C	 1.276101	 -0.493275	 0.478027
H	 0.935586	 0.323715	 -1.455096
H	 -0.007152	 2.504477	 -0.721751
H	 1.624070	 2.229294	 -0.124308
H	 0.260438	 2.056911	 0.959615
H	 1.145423	 -1.530405	 0.188647
H	 2.335248	 -0.258947	 0.436043
H	 0.958411	 -0.382374	 1.509828

	symmetry c1
}
set optking {
	frozen_dihedral = ("
		6 3 2 1
	")
}

ee = optimize('scf')
oeprop('DIPOLE', 'QUADRUPOLE', 'MULLIKEN_CHARGES')
f=open( 'psi4out.xyz', 'w' )
f.write( "15  " )
f.write( str(ee) + "\n" )
f.write( MOL.save_string_xyz() )
f.close()
--------------------------------------------------------------------------

    Molecular point group: c1
  Charge       = 0
  Multiplicity = 1
  Basis Set: 6-31G*
  Basis Set:
  @DF-RHF Final Energy:  -232.13703769107437
    Total Energy =                       -232.1370376910742834
    Molecular point group: c1
  Basis Set: 6-31G*
  Basis Set:
  Basis Set: 6-31G*
  Basis Set:
  @DF-RHF Final Energy:  -232.13683969270102
    Total Energy =                       -232.1368396927007893
  Basis Set: 6-31G*
  Basis Set:
  Basis Set: 6-31G*
  Basis Set:
  @DF-RHF Final Energy:  -232.13731098243929
    Total Energy =                       -232.1373109824389758
  Basis Set: 6-31G*
  Basis Set:
  Basis Set: 6-31G*
  Basis Set:
  @DF-RHF Final Energy:  -232.13732323802111
    Total Energy =                       -232.1373232380211675
  Basis Set: 6-31G*
  Basis Set:
  Basis Set: 6-31G*
  Basis Set:
  @DF-RHF Final Energy:  -232.13732965608082
    Total Energy =                       -232.1373296560810218
  Basis Set: 6-31G*
  Basis Set:
  Charge       = 0
  Multiplicity = 1
  Basis Set: 6-31G*
  Basis Set:

    Orbital Energies (a.u.)
    -----------------------

    Doubly Occupied:

       1A    -20.547770     2A    -11.274450     3A    -11.261326
       4A    -11.211468     5A    -11.209639     6A     -1.369956
       7A     -1.050252     8A     -0.940203     9A     -0.930799
      10A     -0.781358    11A     -0.674842    12A     -0.640386
      13A     -0.632763    14A     -0.571457    15A     -0.564289
      16A     -0.552772    17A     -0.535404    18A     -0.499126
      19A     -0.497005    20A     -0.442939    21A     -0.405528

  @DF-RHF Final Energy:  -232.13733032370880

   => Energetics <=

    Nuclear Repulsion Energy =            198.8156307662818563
    One-Electron Energy =                -708.7184558786879052
    Two-Electron Energy =                 277.7654947886972536
    DFT Exchange-Correlation Energy =       0.0000000000000000
    Empirical Dispersion Energy =           0.0000000000000000
    PCM Polarization Energy =               0.0000000000000000
    EFP Energy =                            0.0000000000000000
    Total Energy =                       -232.1373303237087953
    Molecular point group: c1
  Basis Set: 6-31G*
  Basis Set:

  -Total Gradient:
     Atom            X                  Y                   Z
    ------   -----------------  -----------------  -----------------
       1        0.000024270890     0.001397462778     0.000159900933
       2       -0.000201697905    -0.001209398929    -0.000259729097
       3        0.000443952715    -0.001349219679     0.000204506773
       4        0.000017109590     0.000014172428     0.000018469615
       5       -0.000030983276     0.000026419220    -0.000008815104
       6       -0.000330704266     0.001106930578    -0.000103504997
       7        0.000020898135    -0.000013424467    -0.000025557392
       8        0.000041485090     0.000009401731     0.000011251814
       9        0.000036714276     0.000026888807     0.000005154623
      10       -0.000016507077     0.000007058151     0.000015021722
      11       -0.000001999888     0.000009903761    -0.000007739515
      12       -0.000005457170    -0.000018207590    -0.000011659394
      13       -0.000001974863     0.000000473410     0.000000674855
      14       -0.000013883802    -0.000009856520     0.000000694604
      15        0.000018777553     0.000001396320     0.000001330562

  **** Optimization is complete! (in 6 steps) ****
    Final optimized geometry and variables:
    Molecular point group: c1

    Geometry (in Angstrom), charge = 0, multiplicity = 1:

    H           -2.643391552958    -0.364442111365     0.134062288891
    C           -1.623622590508    -0.420424479952     0.491288490653
    O           -0.792954172446    -0.315586579780    -0.624978498449
    H           -1.474964940239     0.387599522994     1.200968253869
    H           -1.485106945110    -1.364617318699     1.010392130814
    C            0.549111676126     0.066128897399    -0.430797863950
    C            0.676730453030     1.539615795246    -0.048914718711
    C            1.288541371348    -0.855051293718     0.536853018151
    H            0.989071780168    -0.059437400988    -1.412998428107
    H            0.109909129500     2.153885859030    -0.739701560563
    H            1.717003470327     1.847506327813    -0.092172486357
    H            0.319996867571     1.737764203744     0.956613165814
    H            1.154086194193    -1.892201997783     0.248774557959
    H            2.351162763655    -0.634066411227     0.524427323260
    H            0.940853828826    -0.735858074651     1.558447791764

  Mulliken Charges: (a.u.)
   Center  Symbol    Alpha    Beta     Spin     Total
       1     H     0.41336  0.41336  0.00000  0.17328
       2     C     3.08105  3.08105  0.00000 -0.16211
       3     O     4.31258  4.31258  0.00000 -0.62517
       4     H     0.43084  0.43084  0.00000  0.13833
       5     H     0.42708  0.42708  0.00000  0.14584
       6     C     2.90970  2.90970  0.00000  0.18060
       7     C     3.25014  3.25014  0.00000 -0.50028
       8     C     3.25460  3.25460  0.00000 -0.50920
       9     H     0.41544  0.41544  0.00000  0.16913
      10     H     0.41130  0.41130  0.00000  0.17741
      11     H     0.42059  0.42059  0.00000  0.15882
      12     H     0.42189  0.42189  0.00000  0.15622
      13     H     0.41174  0.41174  0.00000  0.17651
      14     H     0.41855  0.41855  0.00000  0.16290
      15     H     0.42114  0.42114  0.00000  0.15772

   Total alpha = 21.00000, Total beta = 21.00000, Total charge =  0.00000
