                              Psi4 1.0.54 Driver

  ==> Input File <==

--------------------------------------------------------------------------
set {
	reference rhf
	basis cc-pvtz
}

set_num_threads( 4 )
memory 2 gb

molecule MOL {
0 1

H	 -3.840641	 -2.092644	 0.607901
C	 -2.771392	 -2.001640	 0.632396
C	 -2.024409	 -2.853106	 1.426539
C	 -2.144899	 -1.033870	 -0.129780
H	 -2.511372	 -3.604041	 2.017864
C	 -0.650467	 -2.735553	 1.457490
H	 -2.725089	 -0.374043	 -0.745312
C	 -0.769235	 -0.914911	 -0.099858
H	 -0.056855	 -3.386390	 2.066665
C	 -0.017808	 -1.766227	 0.694579
H	 -0.280937	 -0.166504	 -0.688910
C	 1.469073	 -1.679962	 0.762854
O	 1.968286	 -0.725612	 -0.000027
O	 2.140903	 -2.391905	 1.431406
C	 3.373556	 -0.568203	 0.000011
H	 3.695416	 -0.031588	 -0.879663
H	 3.782700	 -1.565294	 -0.000152
H	 3.695405	 -0.031851	 0.879862

	symmetry c1
}
set optking {
	frozen_dihedral = ("
		12 13 15 16
	")
}

ee,wfn = optimize('scf', return_wfn=True)
oeprop( wfn, 'DIPOLE', 'QUADRUPOLE', 'MULLIKEN_CHARGES')
f=open( 'psi4out.xyz', 'w' )
f.write( "18  " )
f.write( str(ee) + "\n" )
f.write( MOL.save_string_xyz() )
f.close()
--------------------------------------------------------------------------

    Molecular point group: c1
  Charge       = 0
  Multiplicity = 1
  Basis Set: CC-PVTZ
  Basis Set:
  @DF-RHF Final Energy:  -457.50798866394808
    Total Energy =                       -457.5079886639480264
    Molecular point group: c1
  Basis Set: CC-PVTZ
  Basis Set:
  Basis Set: CC-PVTZ
  Basis Set:
  @DF-RHF Final Energy:  -457.50567538675972
    Total Energy =                       -457.5056753867595489
  Basis Set: CC-PVTZ
  Basis Set:
  Basis Set: CC-PVTZ
  Basis Set:
  @DF-RHF Final Energy:  -457.50956260699974
    Total Energy =                       -457.5095626069994523
  Basis Set: CC-PVTZ
  Basis Set:
  Basis Set: CC-PVTZ
  Basis Set:
  @DF-RHF Final Energy:  -457.50959846336826
    Total Energy =                       -457.5095984633678654
  Basis Set: CC-PVTZ
  Basis Set:
  Basis Set: CC-PVTZ
  Basis Set:
  @DF-RHF Final Energy:  -457.50913389919270
    Total Energy =                       -457.5091338991925340
  Basis Set: CC-PVTZ
  Basis Set:
  Basis Set: CC-PVTZ
  Basis Set:
  @DF-RHF Final Energy:  -457.50963671785854
    Total Energy =                       -457.5096367178584842
  Basis Set: CC-PVTZ
  Basis Set:
  Charge       = 0
  Multiplicity = 1
  Basis Set: CC-PVTZ
  Basis Set:

    Orbital Energies (a.u.)
    -----------------------

    Doubly Occupied:

       1A    -20.600734     2A    -20.534262     3A    -11.372118
       4A    -11.280933     5A    -11.244840     6A    -11.243406
       7A    -11.242567     8A    -11.239927     9A    -11.235960
      10A    -11.235199    11A     -1.476354    12A     -1.368703
      13A     -1.170697    14A     -1.051808    15A     -1.028970
      16A     -0.980903    17A     -0.863140    18A     -0.838377
      19A     -0.781124    20A     -0.745036    21A     -0.688019
      22A     -0.681329    23A     -0.676297    24A     -0.634112
      25A     -0.629996    26A     -0.601227    27A     -0.587644
      28A     -0.566823    29A     -0.530075    30A     -0.520225
      31A     -0.509655    32A     -0.502053    33A     -0.463580
      34A     -0.449378    35A     -0.350157    36A     -0.346162

  @DF-RHF Final Energy:  -457.50963771298359

   => Energetics <=

    Nuclear Repulsion Energy =            493.9339767807362023
    One-Electron Energy =               -1602.3436525689367045
    Two-Electron Energy =                 650.9000380752165711
    DFT Exchange-Correlation Energy =       0.0000000000000000
    Empirical Dispersion Energy =           0.0000000000000000
    PCM Polarization Energy =               0.0000000000000000
    EFP Energy =                            0.0000000000000000
    Total Energy =                       -457.5096377129839311
    Molecular point group: c1
  Basis Set: CC-PVTZ
  Basis Set:

  -Total Gradient:
     Atom            X                  Y                   Z
    ------   -----------------  -----------------  -----------------
       1        0.000006316578     0.000003195855    -0.000002095724
       2        0.000029124884     0.000010853416    -0.000001654843
       3       -0.000006112734     0.000007708854    -0.000001884843
       4        0.000002330549    -0.000012895189     0.000005517214
       5        0.000015656584     0.000017498993    -0.000008514355
       6        0.000038235121     0.000013884630    -0.000009923664
       7        0.000010822809    -0.000007968034     0.000006227190
       8        0.000021677458    -0.000000734165     0.000001255775
       9       -0.000002994685     0.000004103333    -0.000003066885
      10        0.000037710658    -0.000012097989    -0.000012365012
      11        0.000002095863    -0.000005899487     0.000004293159
      12        0.000075199220    -0.000653673058    -0.001158332286
      13       -0.000089493760     0.000768929721     0.001482972621
      14       -0.000065040733    -0.000053666800     0.000010568334
      15       -0.000136593826     0.001096542368     0.000692641710
      16        0.000112156407    -0.001204164762    -0.000984914570
      17       -0.000021620323     0.000045482429     0.000005692860
      18       -0.000029470067    -0.000017100118    -0.000026416678

  **** Optimization is complete! (in 7 steps) ****
    Final optimized geometry and variables:
    Molecular point group: c1

    Geometry (in Angstrom), charge = 0, multiplicity = 1:

    H           -4.004492863814    -0.597595691961     0.041379043974
    C           -2.938652372162    -0.470505987246     0.049869088804
    C           -2.135619611275    -1.417667858848     0.659675337539
    C           -2.372451748532     0.639125896717    -0.548379358892
    H           -2.575699818007    -2.278739528354     1.124044209936
    C           -0.766178739225    -1.253655309041     0.670337181436
    H           -2.995844986573     1.373262069845    -1.020956621572
    C           -1.001210096250     0.804718829137    -0.538638592079
    H           -0.129856475145    -1.977099152896     1.138133827281
    C           -0.193904297452    -0.142146763450     0.071150033478
    H           -0.559794331328     1.663182734301    -1.000947585172
    C            1.291289521210    -0.011923953560     0.109707537799
    O            1.727744187941     1.083203558625    -0.483920446409
    O            2.007912035581    -0.805840799352     0.620542430924
    C            3.125104726607     1.293429056639    -0.538135288055
    H            3.291251564063     2.001760315229    -1.333622334677
    H            3.642049714229     0.371834611112    -0.750752437935
    H            3.479207385575     1.692911523594     0.401399036665

  Mulliken Charges: (a.u.)
   Center  Symbol    Alpha    Beta     Spin     Total
       1     H     0.42031  0.42031  0.00000  0.15938
       2     C     3.06975  3.06975  0.00000 -0.13950
       3     C     3.07553  3.07553  0.00000 -0.15106
       4     C     3.07494  3.07494  0.00000 -0.14987
       5     H     0.42040  0.42040  0.00000  0.15919
       6     C     3.07588  3.07588  0.00000 -0.15177
       7     H     0.42191  0.42191  0.00000  0.15618
       8     C     3.08211  3.08211  0.00000 -0.16422
       9     H     0.40658  0.40658  0.00000  0.18684
      10     C     3.01457  3.01457  0.00000 -0.02914
      11     H     0.41107  0.41107  0.00000  0.17787
      12     C     2.77980  2.77980  0.00000  0.44040
      13     O     4.14891  4.14891  0.00000 -0.29782
      14     O     4.21142  4.21142  0.00000 -0.42284
      15     C     3.03727  3.03727  0.00000 -0.07453
      16     H     0.44645  0.44645  0.00000  0.10709
      17     H     0.44809  0.44809  0.00000  0.10381
      18     H     0.45500  0.45500  0.00000  0.08999

   Total alpha = 36.00000, Total beta = 36.00000, Total charge = -0.00000

*** Psi4 exiting successfully. Buy a developer a beer!
