  ==> Input File <==

--------------------------------------------------------------------------
set {
	reference rhf
	basis 6-31G*
}

set_num_threads( 1 )
memory 2 gb

molecule MOL {
0 1

H	 5.299487	 0.881095	 0.136015
C	 4.632753	 0.552130	 -0.655042
C	 3.217450	 0.324618	 -0.125579
H	 4.640602	 1.311505	 -1.431333
H	 5.046256	 -0.359114	 -1.078658
C	 2.252072	 -0.147094	 -1.215233
H	 2.846430	 1.245496	 0.312518
H	 3.247035	 -0.414627	 0.673380
C	 0.831196	 -0.400700	 -0.711186
H	 2.217200	 0.586660	 -2.012750
H	 2.630276	 -1.069654	 -1.649842
C	 0.059721	 0.860217	 -0.350414
H	 0.252931	 -0.907854	 -1.482013
H	 0.836237	 -1.074035	 0.143081
C	 -1.181045	 0.701995	 0.511084
O	 0.400658	 1.935853	 -0.741790
C	 -2.285934	 -0.139295	 -0.145128
H	 -1.546971	 1.698890	 0.725591
H	 -0.890966	 0.242826	 1.454324
C	 -3.651768	 0.085446	 0.506485
H	 -2.346596	 0.110469	 -1.202272
H	 -2.034737	 -1.195320	 -0.088721
C	 -4.759797	 -0.746382	 -0.137905
H	 -3.908762	 1.140117	 0.445781
H	 -3.588286	 -0.154158	 1.565709
H	 -4.868882	 -0.505166	 -1.191300
H	 -4.548009	 -1.809175	 -0.062213
H	 -5.715422	 -0.564821	 0.343442

	symmetry c1
}
set optking {
	frozen_dihedral = ("
		10 6 3 2,
		16 12 15 17
	")
}

ee = energy('scf')
oeprop('DIPOLE', 'QUADRUPOLE', 'MULLIKEN_CHARGES')
f=open( 'psi4out.xyz', 'w' )
f.write( "28  " )
f.write( str(ee) + "\n" )
f.write( MOL.save_string_xyz() )
f.close()
--------------------------------------------------------------------------

    Molecular point group: c1

    Geometry (in Angstrom), charge = 0, multiplicity = 1:

       Center              X                  Y                   Z               Mass
    ------------   -----------------  -----------------  -----------------  -----------------
           H          5.346392452348     0.577078562702     0.446799333647     1.007825032070
           C          4.679658452348     0.248113562702    -0.344257666353    12.000000000000
           C          3.264355452348     0.020601562702     0.185205333647    12.000000000000
           H          4.687507452348     1.007488562702    -1.120548666353     1.007825032070
           H          5.093161452348    -0.663130437298    -0.767873666353     1.007825032070
           C          2.298977452348    -0.451110437298    -0.904448666353    12.000000000000
           H          2.893335452348     0.941479562702     0.623302333647     1.007825032070
           H          3.293940452348    -0.718643437298     0.984164333647     1.007825032070
           C          0.878101452348    -0.704716437298    -0.400401666353    12.000000000000
           H          2.264105452348     0.282643562702    -1.701965666353     1.007825032070
           H          2.677181452348    -1.373670437298    -1.339057666353     1.007825032070
           C          0.106626452348     0.556200562702    -0.039629666353    12.000000000000
           H          0.299836452348    -1.211870437298    -1.171228666353     1.007825032070
           H          0.883142452348    -1.378051437298     0.453865333647     1.007825032070
           C         -1.134139547652     0.397978562702     0.821868333647    12.000000000000
           O          0.447563452348     1.631836562702    -0.431005666353    15.994914619560
           C         -2.239028547652    -0.443311437298     0.165656333647    12.000000000000
           H         -1.500065547652     1.394873562702     1.036375333647     1.007825032070
           H         -0.844060547652    -0.061190437298     1.765108333647     1.007825032070
           C         -3.604862547652    -0.218570437298     0.817269333647    12.000000000000
           H         -2.299690547652    -0.193547437298    -0.891487666353     1.007825032070
           H         -1.987831547652    -1.499336437298     0.222063333647     1.007825032070
           C         -4.712891547652    -1.050398437298     0.172879333647    12.000000000000
           H         -3.861856547652     0.836100562702     0.756565333647     1.007825032070
           H         -3.541380547652    -0.458174437298     1.876493333647     1.007825032070
           H         -4.821976547652    -0.809182437298    -0.880515666353     1.007825032070
           H         -4.501103547652    -2.113191437298     0.248571333647     1.007825032070
           H         -5.668516547652    -0.868837437298     0.654226333647     1.007825032070

  Charge       = 0
  Multiplicity = 1
  Basis Set: 6-31G*
  Basis Set:

    Orbital Energies (a.u.)
    -----------------------

    Doubly Occupied:

       1A    -20.547975     2A    -11.322101     3A    -11.232422
       4A    -11.229859     5A    -11.228429     6A    -11.225923
       7A    -11.216449     8A    -11.216017     9A    -11.212359
      10A    -11.205737    11A     -1.393125    12A     -1.095027
      13A     -1.077384    14A     -1.022499    15A     -0.990618
      16A     -0.907253    17A     -0.872967    18A     -0.809171
      19A     -0.799709    20A     -0.723230    21A     -0.670275
      22A     -0.650386    23A     -0.628018    24A     -0.619790
      25A     -0.609375    26A     -0.587271    27A     -0.578745
      28A     -0.574866    29A     -0.541612    30A     -0.531224
      31A     -0.521312    32A     -0.506337    33A     -0.501538
      34A     -0.483172    35A     -0.479615    36A     -0.473901
      37A     -0.471580    38A     -0.465014    39A     -0.455501
      40A     -0.392227

  @DF-RHF Final Energy:  -426.16838621689249

   => Energetics <=

    Nuclear Repulsion Energy =            531.1145392568425905
    One-Electron Energy =               -1630.4257620208888966
    Two-Electron Energy =                 673.1428365471545021
    DFT Exchange-Correlation Energy =       0.0000000000000000
    Empirical Dispersion Energy =           0.0000000000000000
    PCM Polarization Energy =               0.0000000000000000
    EFP Energy =                            0.0000000000000000
    Total Energy =                       -426.1683862168918040

  Mulliken Charges: (a.u.)
   Center  Symbol    Alpha    Beta     Spin     Total
       1     H     0.41935  0.41935  0.00000  0.16130
       2     C     3.24011  3.24011  0.00000 -0.48023
       3     C     3.15638  3.15638  0.00000 -0.31276
       4     H     0.41830  0.41830  0.00000  0.16340
       5     H     0.42361  0.42361  0.00000  0.15277
       6     C     3.14933  3.14933  0.00000 -0.29865
       7     H     0.41047  0.41047  0.00000  0.17907
       8     H     0.42770  0.42770  0.00000  0.14461
       9     C     3.21146  3.21146  0.00000 -0.42292
      10     H     0.40662  0.40662  0.00000  0.18675
      11     H     0.42191  0.42191  0.00000  0.15618
      12     C     2.73272  2.73272  0.00000  0.53457
      13     H     0.40274  0.40274  0.00000  0.19453
      14     H     0.41324  0.41324  0.00000  0.17353
      15     C     3.20124  3.20124  0.00000 -0.40249
      16     O     4.26694  4.26694  0.00000 -0.53389
      17     C     3.16303  3.16303  0.00000 -0.32607
      18     H     0.39977  0.39977  0.00000  0.20045
      19     H     0.41216  0.41216  0.00000  0.17568
      20     C     3.15243  3.15243  0.00000 -0.30485
      21     H     0.41516  0.41516  0.00000  0.16968
      22     H     0.41838  0.41838  0.00000  0.16324
      23     C     3.24050  3.24050  0.00000 -0.48100
      24     H     0.41765  0.41765  0.00000  0.16470
      25     H     0.42104  0.42104  0.00000  0.15792
      26     H     0.41968  0.41968  0.00000  0.16064
      27     H     0.42126  0.42126  0.00000  0.15748
      28     H     0.41682  0.41682  0.00000  0.16636

   Total alpha = 40.00000, Total beta = 40.00000, Total charge = -0.00000
