  ==> Input File <==

--------------------------------------------------------------------------
set {
	reference rhf
	basis cc-pvtz
}

set_num_threads( 4 )
memory 2 gb

molecule MOL {
0 1

H	 -3.268214	 -0.875720	 0.463107
C	 -2.806015	 0.000007	 0.024886
N	 -1.391133	 0.000016	 0.301321
H	 -3.029448	 0.000055	 -1.045738
H	 -3.268126	 0.875758	 0.463150
C	 -0.628726	 0.669147	 -0.730461
C	 -0.876976	 -1.331264	 0.539788
H	 -0.737108	 0.166240	 -1.695960
H	 -1.003692	 1.679381	 -0.844089
C	 0.842373	 0.720180	 -0.362661
H	 -1.433165	 -1.781411	 1.353489
H	 -1.002277	 -1.970536	 -0.339120
C	 0.594123	 -1.280231	 0.907588
H	 1.398563	 1.170327	 -1.176363
H	 0.967675	 1.359452	 0.516246
N	 1.356531	 -0.611100	 -0.124195
H	 0.969090	 -2.290466	 1.021215
H	 0.702506	 -0.777324	 1.873086
C	 2.771413	 -0.611091	 0.152240
H	 3.308876	 -0.157606	 -0.671196
H	 3.126349	 -1.628154	 0.262532
H	 3.025838	 -0.063621	 1.064217

	symmetry c1
}
set optking {
	frozen_dihedral = ("
		6 3 2 4
	")
}

ee = optimize('scf')
oeprop('DIPOLE', 'QUADRUPOLE', 'MULLIKEN_CHARGES')
f=open( 'psi4out.xyz', 'w' )
f.write( "22  " )
f.write( str(ee) + "\n" )
f.write( MOL.save_string_xyz() )
f.close()
--------------------------------------------------------------------------

    Molecular point group: c1
  Charge       = 0
  Multiplicity = 1
  Basis Set: CC-PVTZ
  Basis Set:
  @DF-RHF Final Energy:  -344.34690762244571
    Total Energy =                       -344.3469076224455421
    Molecular point group: c1
  Basis Set: CC-PVTZ
  Basis Set:
  Basis Set: CC-PVTZ
  Basis Set:
  @DF-RHF Final Energy:  -344.34713450488152
    Total Energy =                       -344.3471345048819785
  Basis Set: CC-PVTZ
  Basis Set:
  Basis Set: CC-PVTZ
  Basis Set:
  @DF-RHF Final Energy:  -344.34717510094873
    Total Energy =                       -344.3471751009484478
  Basis Set: CC-PVTZ
  Basis Set:
  Charge       = 0
  Multiplicity = 1
  Basis Set: CC-PVTZ
  Basis Set:

    Orbital Energies (a.u.)
    -----------------------

    Doubly Occupied:

       1A    -15.537284     2A    -15.537137     3A    -11.237442
       4A    -11.237365     5A    -11.236713     6A    -11.236615
       7A    -11.234096     8A    -11.234050     9A     -1.256388
      10A     -1.205072    11A     -1.025350    12A     -0.992408
      13A     -0.912401    14A     -0.867393    15A     -0.836671
      16A     -0.755975    17A     -0.666443    18A     -0.636733
      19A     -0.631845    20A     -0.626227    21A     -0.621642
      22A     -0.581596    23A     -0.551621    24A     -0.547611
      25A     -0.541905    26A     -0.518827    27A     -0.498335
      28A     -0.489196    29A     -0.465261    30A     -0.456277
      31A     -0.351944    32A     -0.347425

  @DF-RHF Final Energy:  -344.34717665852270

   => Energetics <=

    Nuclear Repulsion Energy =            421.7554298696379647
    One-Electron Energy =               -1302.4547191061767535
    Two-Electron Energy =                 536.3521125780160901
    DFT Exchange-Correlation Energy =       0.0000000000000000
    Empirical Dispersion Energy =           0.0000000000000000
    PCM Polarization Energy =               0.0000000000000000
    EFP Energy =                            0.0000000000000000
    Total Energy =                       -344.3471766585226987
    Molecular point group: c1
  Basis Set: CC-PVTZ
  Basis Set:

  -Total Gradient:
     Atom            X                  Y                   Z
    ------   -----------------  -----------------  -----------------
       1       -0.000009591769    -0.000008078618     0.000001112254
       2        0.000115260075    -0.007744717985    -0.000697484560
       3       -0.000496518493     0.005884051323     0.002481294443
       4        0.000025151885     0.005062821972     0.000005609726
       5       -0.000005412756     0.000025390364     0.000001455641
       6        0.000306265203    -0.003361319352    -0.001751641517
       7       -0.000037327690     0.000149905975     0.000012021735
       8       -0.000009202617     0.000004491360    -0.000022848124
       9        0.000001446560    -0.000006788545    -0.000001723512
      10        0.000039946720     0.000032301853    -0.000001510159
      11       -0.000003294397     0.000007191692    -0.000013564432
      12        0.000010228781    -0.000004381245     0.000002225291
      13        0.000041912261    -0.000030480201     0.000007799647
      14        0.000022849404    -0.000004262673    -0.000001558050
      15        0.000006655763    -0.000000671416     0.000000644221
      16       -0.000001245549    -0.000005260002    -0.000013950092
      17        0.000035811782    -0.000012528334     0.000003063163
      18       -0.000008329533    -0.000000127487    -0.000017474688
      19       -0.000014161182     0.000011117546     0.000012978451
      20       -0.000008120169     0.000002258384    -0.000004508959
      21       -0.000012760558    -0.000000147251    -0.000001305706
      22        0.000000436280    -0.000000767356    -0.000000634772

  **** Optimization is complete! (in 4 steps) ****
    Final optimized geometry and variables:
    Molecular point group: c1

    Geometry (in Angstrom), charge = 0, multiplicity = 1:

    H           -3.287307875330    -0.534740419547     0.397426497671
    C           -2.798067217009     0.314833624297    -0.058384216380
    N           -1.375636665619     0.301983132376     0.221090235378
    H           -3.013900498056     0.315349384977    -1.126934729994
    H           -3.249734585542     1.214002273376     0.348124075522
    C           -0.613573217443     0.964775513384    -0.816308673327
    C           -0.855636500153    -1.032924885371     0.442614704864
    H           -0.723701473886     0.451654348716    -1.775568402579
    H           -0.991457082525     1.973428273208    -0.940776848259
    C            0.857814454006     1.025619541488    -0.452453762620
    H           -1.405251739256    -1.493791495797     1.254139687591
    H           -0.976530261157    -1.665721906582    -0.441438989407
    C            0.615344796167    -0.978421463142     0.811735890308
    H            1.409249392486     1.477767280926    -1.268541980812
    H            0.981984730672     1.666983353080     0.425111055684
    N            1.378755573839    -0.302754340367    -0.214643246510
    H            0.993274655350    -1.988101626122     0.922354688877
    H            0.719107695144    -0.479196675032     1.779774854884
    C            2.792242957818    -0.296206350262     0.067110201462
    H            3.330439374391     0.162749428921    -0.752925399581
    H            3.152202865215    -1.311774982108     0.175626253353
    H            3.040611647844     0.249779899244     0.981753025196

  Mulliken Charges: (a.u.)
   Center  Symbol    Alpha    Beta     Spin     Total
       1     H     0.45485  0.45485  0.00000  0.09031
       2     C     3.09634  3.09634  0.00000 -0.19267
       3     N     3.61566  3.61566  0.00000 -0.23131
       4     H     0.46639  0.46639  0.00000  0.06723
       5     H     0.44991  0.44991  0.00000  0.10019
       6     C     3.03652  3.03652  0.00000 -0.07305
       7     C     3.03425  3.03425  0.00000 -0.06851
       8     H     0.46707  0.46707  0.00000  0.06587
       9     H     0.45352  0.45352  0.00000  0.09295
      10     C     3.03665  3.03665  0.00000 -0.07330
      11     H     0.45391  0.45391  0.00000  0.09218
      12     H     0.46871  0.46871  0.00000  0.06258
      13     C     3.03657  3.03657  0.00000 -0.07315
      14     H     0.45392  0.45392  0.00000  0.09217
      15     H     0.46812  0.46812  0.00000  0.06376
      16     N     3.61284  3.61284  0.00000 -0.22567
      17     H     0.45394  0.45394  0.00000  0.09211
      18     H     0.46835  0.46835  0.00000  0.06330
      19     C     3.09850  3.09850  0.00000 -0.19699
      20     H     0.45200  0.45200  0.00000  0.09600
      21     H     0.45199  0.45199  0.00000  0.09602
      22     H     0.47000  0.47000  0.00000  0.06000

   Total alpha = 32.00000, Total beta = 32.00000, Total charge = -0.00000
