                              Psi4 1.0.54 Driver

  ==> Input File <==

--------------------------------------------------------------------------
set {
	reference rhf
	basis cc-pvtz
}

set_num_threads( 4 )
memory 2 gb

molecule MOL {
0 1

O	 1.206815	 1.293105	 -0.171126
C	 1.121787	 0.124983	 0.000110
C	 -0.157806	 -0.633184	 0.243604
O	 2.167739	 -0.685178	 -0.000678
C	 -1.399284	 0.246871	 0.256258
H	 -0.227051	 -1.399532	 -0.521508
H	 -0.042483	 -1.163677	 1.183146
C	 -2.675477	 -0.551924	 0.504384
H	 -1.473966	 0.774385	 -0.688036
H	 -1.289598	 1.010022	 1.018566
C	 -3.926204	 0.320096	 0.516827
H	 -2.778158	 -1.317093	 -0.260609
H	 -2.594668	 -1.078382	 1.451775
H	 -4.053789	 0.833515	 -0.430120
H	 -4.815832	 -0.272854	 0.694726
H	 -3.869053	 1.073864	 1.294740
C	 3.449556	 -0.089977	 -0.000570
H	 3.585694	 0.522473	 -0.879546
H	 4.155805	 -0.904274	 -0.001389
H	 3.586173	 0.521118	 0.879272

	symmetry c1
}
set optking {
	frozen_dihedral = ("
		1 2 4 17
	")
}

ee,wfn = optimize('scf', return_wfn=True)
oeprop( wfn, 'DIPOLE', 'QUADRUPOLE', 'MULLIKEN_CHARGES')
f=open( 'psi4out.xyz', 'w' )
f.write( "20  " )
f.write( str(ee) + "\n" )
f.write( MOL.save_string_xyz() )
f.close()
--------------------------------------------------------------------------

    Molecular point group: c1
  Charge       = 0
  Multiplicity = 1
  Basis Set: CC-PVTZ
  Basis Set:
  @DF-RHF Final Energy:  -384.08265315897864
    Total Energy =                       -384.0826531589788146
    Molecular point group: c1
  Basis Set: CC-PVTZ
  Basis Set:
  Basis Set: CC-PVTZ
  Basis Set:
  @DF-RHF Final Energy:  -384.08130945999750
    Total Energy =                       -384.0813094599975557
  Basis Set: CC-PVTZ
  Basis Set:
  Basis Set: CC-PVTZ
  Basis Set:
  @DF-RHF Final Energy:  -384.08272708447055
    Total Energy =                       -384.0827270844712302
  Basis Set: CC-PVTZ
  Basis Set:
  Basis Set: CC-PVTZ
  Basis Set:
  @DF-RHF Final Energy:  -384.08273626162202
    Total Energy =                       -384.0827362616217897
  Basis Set: CC-PVTZ
  Basis Set:
  Basis Set: CC-PVTZ
  Basis Set:
  @DF-RHF Final Energy:  -384.08273948043632
    Total Energy =                       -384.0827394804365440
  Basis Set: CC-PVTZ
  Basis Set:
  Basis Set: CC-PVTZ
  Basis Set:
  @DF-RHF Final Energy:  -384.08274153643362
    Total Energy =                       -384.0827415364335593
  Basis Set: CC-PVTZ
  Basis Set:
  Charge       = 0
  Multiplicity = 1
  Basis Set: CC-PVTZ
  Basis Set:

    Orbital Energies (a.u.)
    -----------------------

    Doubly Occupied:

       1A    -20.595948     2A    -20.534496     3A    -11.364814
       4A    -11.278802     5A    -11.234012     6A    -11.218480
       7A    -11.217344     8A    -11.208784     9A     -1.471966
      10A     -1.365987    11A     -1.090038    12A     -1.025428
      13A     -0.969946    14A     -0.886642    15A     -0.804662
      16A     -0.769516    17A     -0.699029    18A     -0.686565
      19A     -0.675923    20A     -0.647041    21A     -0.599321
      22A     -0.592653    23A     -0.580283    24A     -0.541320
      25A     -0.537949    26A     -0.524130    27A     -0.501377
      28A     -0.479087    29A     -0.475086    30A     -0.471557
      31A     -0.459232    32A     -0.440005

  @DF-RHF Final Energy:  -384.08274169920941

   => Energetics <=

    Nuclear Repulsion Energy =            381.6879142129976685
    One-Electron Energy =               -1279.6464629377460369
    Two-Electron Energy =                 513.8758070255383927
    DFT Exchange-Correlation Energy =       0.0000000000000000
    Empirical Dispersion Energy =           0.0000000000000000
    PCM Polarization Energy =               0.0000000000000000
    EFP Energy =                            0.0000000000000000
    Total Energy =                       -384.0827416992100325
    Molecular point group: c1
  Basis Set: CC-PVTZ
  Basis Set:

  -Total Gradient:
     Atom            X                  Y                   Z
    ------   -----------------  -----------------  -----------------
       1       -0.000453675472    -0.000328769903    -0.003392942143
       2        0.000691015348     0.000467446335     0.006498157209
       3       -0.000009547576    -0.000006103659    -0.000126514560
       4       -0.000311178903    -0.000028922903    -0.005522663494
       5        0.000004059583    -0.000008253300    -0.000005318242
       6       -0.000004014005     0.000011667151    -0.000003436642
       7        0.000006547206    -0.000003635529     0.000006600270
       8       -0.000004203883    -0.000000989296    -0.000014939690
       9        0.000000557538    -0.000002353938    -0.000004498259
      10        0.000000588139     0.000002596601    -0.000000357287
      11        0.000004545483    -0.000003678972     0.000013657571
      12       -0.000000900565     0.000000527368    -0.000004143562
      13        0.000000916716    -0.000000367160    -0.000002169664
      14        0.000002690289    -0.000003560666    -0.000001363577
      15        0.000002162565     0.000000639607     0.000003878866
      16       -0.000001501190     0.000006526626     0.000000609248
      17        0.000067952935    -0.000121198925     0.002569934814
      18        0.000009894085     0.000008176079    -0.000003623622
      19       -0.000006817588     0.000006523266    -0.000004315885
      20        0.000000909294     0.000003731216    -0.000006551348

  **** Optimization is complete! (in 7 steps) ****
    Final optimized geometry and variables:
    Molecular point group: c1

    Geometry (in Angstrom), charge = 0, multiplicity = 1:

    O            1.209513292089     1.291609423764    -0.242394082473
    C            1.116992115064     0.118196915222    -0.119240653010
    C           -0.166774593846    -0.640303115198     0.098965741532
    O            2.154284781549    -0.701353410514    -0.187874401097
    C           -1.409599550483     0.237655210698     0.078558486283
    H           -0.217446825145    -1.414174569013    -0.659441866880
    H           -0.071185035551    -1.161371258831     1.046508931739
    C           -2.689372690510    -0.560896430332     0.308430187088
    H           -1.466317378667     0.755873165487    -0.872347780306
    H           -1.316150618071     1.008261959269     0.835246727830
    C           -3.941090912443     0.309625869272     0.291051542085
    H           -2.776870579360    -1.331956659331    -0.452499428758
    H           -2.625660192018    -1.080097469017     1.261136546055
    H           -4.051998247729     0.815210377160    -0.662192839228
    H           -4.833158913222    -0.282973940374     0.457489869214
    H           -3.898973325883     1.069748655388     1.063724587066
    C            3.441758468242    -0.118565171185    -0.202163980035
    H            3.578978338370     0.487762350771    -1.084976759801
    H            4.140390191010    -0.939396142171    -0.202697003172
    H            3.589624994149     0.495802165353     0.673955176400

  Mulliken Charges: (a.u.)
   Center  Symbol    Alpha    Beta     Spin     Total
       1     O     4.19617  4.19617  0.00000 -0.39233
       2     C     2.80647  2.80647  0.00000  0.38706
       3     C     3.10029  3.10029  0.00000 -0.20057
       4     O     4.14704  4.14704  0.00000 -0.29409
       5     C     3.08135  3.08135  0.00000 -0.16271
       6     H     0.43923  0.43923  0.00000  0.12154
       7     H     0.44152  0.44152  0.00000  0.11697
       8     C     3.08684  3.08684  0.00000 -0.17368
       9     H     0.44733  0.44733  0.00000  0.10535
      10     H     0.44621  0.44621  0.00000  0.10759
      11     C     3.14922  3.14922  0.00000 -0.29845
      12     H     0.45517  0.45517  0.00000  0.08966
      13     H     0.45533  0.45533  0.00000  0.08935
      14     H     0.45387  0.45387  0.00000  0.09226
      15     H     0.44837  0.44837  0.00000  0.10325
      16     H     0.45386  0.45386  0.00000  0.09228
      17     C     3.03760  3.03760  0.00000 -0.07520
      18     H     0.45250  0.45250  0.00000  0.09500
      19     H     0.44532  0.44532  0.00000  0.10936
      20     H     0.45632  0.45632  0.00000  0.08736

   Total alpha = 32.00000, Total beta = 32.00000, Total charge = -0.00000

*** Psi4 exiting successfully. Buy a developer a beer!
