  ==> Input File <==

--------------------------------------------------------------------------
set {
	reference rhf
	basis cc-pvtz
}

set_num_threads( 4 )
memory 2 gb

molecule MOL {
0 1

H	 2.992060	 0.258191	 1.668512
C	 2.293826	 -0.209644	 0.982667
C	 0.995215	 0.583762	 0.931498
H	 2.102788	 -1.220141	 1.322258
H	 2.776644	 -0.269456	 0.015173
N	 0.000297	 0.000045	 0.046090
H	 0.584548	 0.618052	 1.931145
H	 1.204250	 1.620932	 0.654886
C	 -1.359159	 0.315706	 0.454404
C	 0.247313	 0.316452	 -1.351549
C	 -2.416729	 -0.286720	 -0.460525
H	 -1.478729	 1.390261	 0.442008
H	 -1.539692	 0.003361	 1.486761
C	 -0.286914	 -0.739059	 -2.310161
H	 1.315374	 0.394204	 -1.500745
H	 -0.165995	 1.295499	 -1.609534
H	 -2.285276	 0.073129	 -1.473515
H	 -2.371743	 -1.368476	 -0.483209
H	 -3.408658	 -0.007405	 -0.121593
H	 0.171013	 -1.698680	 -2.104404
H	 -1.360345	 -0.858961	 -2.231763
H	 -0.062430	 -0.462699	 -3.334878

	symmetry c1
}
set optking {
	frozen_dihedral = ("
		3 6 9 11
	")
}

ee = optimize('scf')
oeprop('DIPOLE', 'QUADRUPOLE', 'MULLIKEN_CHARGES')
f=open( 'psi4out.xyz', 'w' )
f.write( "22  " )
f.write( str(ee) + "\n" )
f.write( MOL.save_string_xyz() )
f.close()
--------------------------------------------------------------------------

    Molecular point group: c1
  Charge       = 0
  Multiplicity = 1
  Basis Set: CC-PVTZ
  Basis Set:
  @DF-RHF Final Energy:  -290.45607078663858
    Total Energy =                       -290.4560707866384064
    Molecular point group: c1
  Basis Set: CC-PVTZ
  Basis Set:
  Basis Set: CC-PVTZ
  Basis Set:
  @DF-RHF Final Energy:  -290.46897229389708
    Total Energy =                       -290.4689722938973659
  Basis Set: CC-PVTZ
  Basis Set:
  Basis Set: CC-PVTZ
  Basis Set:
  @DF-RHF Final Energy:  -290.47207211785678
    Total Energy =                       -290.4720721178567828
  Basis Set: CC-PVTZ
  Basis Set:
  Basis Set: CC-PVTZ
  Basis Set:
  @DF-RHF Final Energy:  -290.47278420659251
    Total Energy =                       -290.4727842065921664
  Basis Set: CC-PVTZ
  Basis Set:
  @DF-RHF Final Energy:  -290.47322065503528
    Total Energy =                       -290.4732206550353339
  @DF-RHF Final Energy:  -290.47336334759109
    Total Energy =                       -290.4733633475910892
  Basis Set: CC-PVTZ
  Basis Set:
  @DF-RHF Final Energy:  -290.47340676209564
    Total Energy =                       -290.4734067620958058
  Basis Set: CC-PVTZ
  Basis Set:
  Basis Set: CC-PVTZ
  Basis Set:
  @DF-RHF Final Energy:  -290.47343577898476
    Total Energy =                       -290.4734357789843671
  Basis Set: CC-PVTZ
  Basis Set:
  Basis Set: CC-PVTZ
  Basis Set:
  @DF-RHF Final Energy:  -290.47344250117186
    Total Energy =                       -290.4734425011715189
  Basis Set: CC-PVTZ
  Basis Set:
  Charge       = 0
  Multiplicity = 1
  Basis Set: CC-PVTZ
  Basis Set:

    Orbital Energies (a.u.)
    -----------------------

    Doubly Occupied:

       1A    -15.533758     2A    -11.239958     3A    -11.238802
       4A    -11.237723     5A    -11.206707     6A    -11.204108
       7A    -11.200924     8A     -1.224629     9A     -1.028311
      10A     -1.019428    11A     -0.960534    12A     -0.856696
      13A     -0.831913    14A     -0.774492    15A     -0.662026
      16A     -0.641926    17A     -0.613933    18A     -0.598074
      19A     -0.569566    20A     -0.557611    21A     -0.540579
      22A     -0.532473    23A     -0.513215    24A     -0.499176
      25A     -0.487400    26A     -0.478537    27A     -0.467322
      28A     -0.463128    29A     -0.344051

  @DF-RHF Final Energy:  -290.47344296363832

   => Energetics <=

    Nuclear Repulsion Energy =            339.2867087621438600
    One-Electron Energy =               -1064.4663110748631425
    Two-Electron Energy =                 434.7061593490807923
    DFT Exchange-Correlation Energy =       0.0000000000000000
    Empirical Dispersion Energy =           0.0000000000000000
    PCM Polarization Energy =               0.0000000000000000
    EFP Energy =                            0.0000000000000000
    Total Energy =                       -290.4734429636384334
    Molecular point group: c1
  Basis Set: CC-PVTZ
  Basis Set:

  -Total Gradient:
     Atom            X                  Y                   Z
    ------   -----------------  -----------------  -----------------
       1       -0.000000198559    -0.000001309641     0.000002121354
       2        0.000012970150    -0.000016301110     0.000010287512
       3        0.000184032958     0.002784498265    -0.001917286726
       4        0.000007124729    -0.000002558674    -0.000003669323
       5       -0.000000573521    -0.000002961785    -0.000000518594
       6       -0.000193306248    -0.002516006519     0.001771790800
       7       -0.000017812450    -0.000004220985     0.000002369481
       8       -0.000003738864     0.000015653740     0.000007740208
       9       -0.000225782982    -0.003042805491     0.002080723382
      10        0.000075756034    -0.000012090197    -0.000068827215
      11        0.000191134249     0.002763843799    -0.001844668251
      12       -0.000000994209     0.000014405168    -0.000003307666
      13       -0.000006697570     0.000000849241    -0.000009142870
      14        0.000001277613     0.000007961511     0.000011921698
      15        0.000006474981     0.000014792380    -0.000021508772
      16       -0.000001798587     0.000007214638    -0.000010589089
      17       -0.000010271279    -0.000009280223     0.000010429792
      18        0.000010047352    -0.000006317871    -0.000012255505
      19       -0.000005060758     0.000007415348    -0.000006219780
      20        0.000016097240    -0.000003430680     0.000005750449
      21       -0.000029539485    -0.000011798823    -0.000007943714
      22       -0.000009140796     0.000012447908     0.000002802830

  **** Optimization is complete! (in 10 steps) ****
    Final optimized geometry and variables:
    Molecular point group: c1

    Geometry (in Angstrom), charge = 0, multiplicity = 1:

    H            3.058868685707     0.150965419399     1.797174802199
    C            2.340205843979    -0.259514677623     1.096125326946
    C            1.031855545986     0.515064936288     1.174029578183
    H            2.174520164967    -1.300758497342     1.343972199726
    H            2.786087356490    -0.217966087547     0.109995951278
    N            0.001188408632    -0.006127158773     0.290203402314
    H            0.663564009670     0.446673213262     2.190455252472
    H            1.216093467094     1.576505022902     0.985917547515
    C           -1.316152919430     0.402010346942     0.754779242980
    C            0.266437506847     0.321431454431    -1.110545190088
    C           -2.483829210671    -0.084104096065    -0.091631786961
    H           -1.379149429237     1.493655608539     0.827489491261
    H           -1.440197662719     0.018726410119     1.760182037556
    C            0.160031780748    -0.875867392860    -2.046712700126
    H            1.267770493475     0.722855678771    -1.193689319625
    H           -0.391735036922     1.118394018266    -1.450712366445
    H           -2.474166813108     0.328347855695    -1.091395014876
    H           -2.487165097097    -1.164769329704    -0.168277643142
    H           -3.412166302659     0.222418665756     0.376851866039
    H            0.860278668392    -1.647207802443    -1.749859628043
    H           -0.830775231643    -1.309130149391    -2.037789586513
    H            0.388942758555    -0.580051817850    -3.065903192839

  Mulliken Charges: (a.u.)
   Center  Symbol    Alpha    Beta     Spin     Total
       1     H     0.45130  0.45130  0.00000  0.09740
       2     C     3.14378  3.14378  0.00000 -0.28756
       3     C     3.03746  3.03746  0.00000 -0.07492
       4     H     0.45129  0.45129  0.00000  0.09743
       5     H     0.45581  0.45581  0.00000  0.08837
       6     N     3.61860  3.61860  0.00000 -0.23719
       7     H     0.45433  0.45433  0.00000  0.09134
       8     H     0.46693  0.46693  0.00000  0.06615
       9     C     3.03160  3.03160  0.00000 -0.06321
      10     C     3.06435  3.06435  0.00000 -0.12870
      11     C     3.15829  3.15829  0.00000 -0.31659
      12     H     0.47165  0.47165  0.00000  0.05670
      13     H     0.45561  0.45561  0.00000  0.08878
      14     C     3.13232  3.13232  0.00000 -0.26463
      15     H     0.44536  0.44536  0.00000  0.10928
      16     H     0.45327  0.45327  0.00000  0.09346
      17     H     0.45192  0.45192  0.00000  0.09616
      18     H     0.44975  0.44975  0.00000  0.10050
      19     H     0.44471  0.44471  0.00000  0.11059
      20     H     0.45199  0.45199  0.00000  0.09601
      21     H     0.45272  0.45272  0.00000  0.09456
      22     H     0.45696  0.45696  0.00000  0.08607

   Total alpha = 29.00000, Total beta = 29.00000, Total charge = -0.00000
