  ==> Input File <==

--------------------------------------------------------------------------
set {
	reference rhf
	basis cc-pvtz
}

set_num_threads( 4 )
memory 2 gb

molecule MOL {
0 1

H	 -2.218945	 0.087036	 -0.996415
N	 -1.851927	 0.161443	 -0.071573
C	 -0.561396	 -0.500007	 0.035200
H	 -2.518289	 -0.255594	 0.544363
C	 0.575129	 0.507849	 -0.048832
H	 -0.478089	 -1.200753	 -0.788956
H	 -0.456191	 -1.081816	 0.952176
C	 1.951750	 -0.141983	 0.035101
H	 0.478254	 1.061643	 -0.975981
H	 0.467676	 1.231891	 0.755499
H	 2.101550	 -0.848142	 -0.774949
H	 2.738260	 0.600794	 -0.026526
H	 2.078939	 -0.679792	 0.968824

	symmetry c1
}
set optking {
	frozen_dihedral = ("
		1 2 3 6
	")
}

ee = optimize('scf')
oeprop('DIPOLE', 'QUADRUPOLE', 'MULLIKEN_CHARGES')
f=open( 'psi4out.xyz', 'w' )
f.write( "13  " )
f.write( str(ee) + "\n" )
f.write( MOL.save_string_xyz() )
f.close()
--------------------------------------------------------------------------

    Molecular point group: c1
  Charge       = 0
  Multiplicity = 1
  Basis Set: CC-PVTZ
  Basis Set:
  @DF-RHF Final Energy:  -173.34918288969766
    Total Energy =                       -173.3491828896976301
    Molecular point group: c1
  Basis Set: CC-PVTZ
  Basis Set:
  Basis Set: CC-PVTZ
  Basis Set:
  @DF-RHF Final Energy:  -173.35018982768690
    Total Energy =                       -173.3501898276870463
  Basis Set: CC-PVTZ
  Basis Set:
  Basis Set: CC-PVTZ
  Basis Set:
  @DF-RHF Final Energy:  -173.35038051019174
    Total Energy =                       -173.3503805101917123
  Basis Set: CC-PVTZ
  Basis Set:
  Basis Set: CC-PVTZ
  Basis Set:
  @DF-RHF Final Energy:  -173.35038453978524
    Total Energy =                       -173.3503845397852956
  Basis Set: CC-PVTZ
  Basis Set:
  Charge       = 0
  Multiplicity = 1
  Basis Set: CC-PVTZ
  Basis Set:

    Orbital Energies (a.u.)
    -----------------------

    Doubly Occupied:

       1A    -15.526569     2A    -11.239239     3A    -11.205151
       4A    -11.204440     5A     -1.176447     6A     -1.034445
       7A     -0.899273     8A     -0.795175     9A     -0.674505
      10A     -0.615630    11A     -0.602948    12A     -0.572841
      13A     -0.519653    14A     -0.490852    15A     -0.484785
      16A     -0.464460    17A     -0.382875

  @DF-RHF Final Energy:  -173.35038552836829

   => Energetics <=

    Nuclear Repulsion Energy =            131.6461269136483452
    One-Electron Energy =                -494.2144505343554215
    Two-Electron Energy =                 189.2179380923386134
    DFT Exchange-Correlation Energy =       0.0000000000000000
    Empirical Dispersion Energy =           0.0000000000000000
    PCM Polarization Energy =               0.0000000000000000
    EFP Energy =                            0.0000000000000000
    Total Energy =                       -173.3503855283684629
    Molecular point group: c1
  Basis Set: CC-PVTZ
  Basis Set:

  -Total Gradient:
     Atom            X                  Y                   Z
    ------   -----------------  -----------------  -----------------
       1       -0.001007438002    -0.001930893390     0.000617843918
       2        0.001499760844     0.002790693480    -0.001124452642
       3       -0.001317297328    -0.002309096526     0.001672859893
       4       -0.000009610815     0.000011805333     0.000010567858
       5       -0.000023193751    -0.000036159442     0.000033573371
       6        0.000819204323     0.001478651748    -0.001220848381
       7        0.000030653184     0.000002795908     0.000005934632
       8        0.000014850115    -0.000000632234    -0.000006544898
       9       -0.000009846404    -0.000020506613     0.000006607954
      10       -0.000000209345     0.000009018611     0.000006318551
      11       -0.000004149139     0.000000024841     0.000004483051
      12        0.000008562475    -0.000000791820    -0.000002007890
      13       -0.000001286158     0.000005090103    -0.000004335417

  **** Optimization is complete! (in 5 steps) ****
    Final optimized geometry and variables:
    Molecular point group: c1

    Geometry (in Angstrom), charge = 0, multiplicity = 1:

    H           -2.248782954827     0.086142804284    -0.961223531086
    N           -1.858480413033     0.167763943108    -0.047494900999
    C           -0.557914161159    -0.490789843627     0.038679977337
    H           -2.514143748257    -0.245763575948     0.578828432477
    C            0.582881293198     0.517128329632    -0.026613230384
    H           -0.422652327823    -1.218849610183    -0.758827985057
    H           -0.497062529769    -1.036284512688     0.974219534187
    C            1.957940234743    -0.136671681609     0.052971856609
    H            0.496841942439     1.082600414141    -0.949956695728
    H            0.459606014278     1.231145215513     0.780416638968
    H            2.111912724900    -0.834705656606    -0.763793764187
    H            2.747067780998     0.604392121240     0.004556125588
    H            2.079452611668    -0.685929729502     0.981288524832

  Mulliken Charges: (a.u.)
   Center  Symbol    Alpha    Beta     Spin     Total
       1     H     0.42911  0.42911  0.00000  0.14178
       2     N     3.69316  3.69316  0.00000 -0.38631
       3     C     3.03749  3.03749  0.00000 -0.07498
       4     H     0.42666  0.42666  0.00000  0.14668
       5     C     3.06336  3.06336  0.00000 -0.12672
       6     H     0.46276  0.46276  0.00000  0.07448
       7     H     0.45721  0.45721  0.00000  0.08557
       8     C     3.15536  3.15536  0.00000 -0.31073
       9     H     0.45881  0.45881  0.00000  0.08238
      10     H     0.45419  0.45419  0.00000  0.09162
      11     H     0.45740  0.45740  0.00000  0.08520
      12     H     0.44761  0.44761  0.00000  0.10477
      13     H     0.45687  0.45687  0.00000  0.08627

   Total alpha = 17.00000, Total beta = 17.00000, Total charge = -0.00000
