  ==> Input File <==

--------------------------------------------------------------------------
set {
	reference rhf
	basis 6-31G*
}

set_num_threads( 4 )
memory 2 gb

molecule MOL {
0 1

H	 2.866480	 -0.465706	 0.876907
C	 2.405773	 -0.024801	 0.000000
N	 0.988830	 -0.304158	 0.000000
H	 2.866480	 -0.465706	 -0.876907
H	 2.629928	 1.045948	 0.000000
C	 0.575701	 -1.069303	 -1.161829
C	 0.187716	 0.898620	 0.132320
H	 0.768925	 -0.525084	 -2.091877
H	 1.142352	 -1.994454	 -1.197153
C	 -0.907885	 -1.385572	 -1.067298
H	 0.470266	 1.414471	 1.044629
H	 0.352667	 1.586241	 -0.703424
C	 -1.285582	 0.530164	 0.192531
H	 -1.252571	 -1.878501	 -1.966870
H	 -1.087168	 -2.044639	 -0.219679
O	 -1.661928	 -0.213777	 -0.932132
H	 -1.902697	 1.419041	 0.201665
H	 -1.482635	 -0.038770	 1.099424

	symmetry c1
}
set optking {
	frozen_dihedral = ("
		6 3 2 5
	")
}

ee = optimize('scf')
oeprop('DIPOLE', 'QUADRUPOLE', 'MULLIKEN_CHARGES')
f=open( 'psi4out.xyz', 'w' )
f.write( "18  " )
f.write( str(ee) + "\n" )
f.write( MOL.save_string_xyz() )
f.close()
--------------------------------------------------------------------------

    Molecular point group: c1
  Charge       = 0
  Multiplicity = 1
  Basis Set: 6-31G*
  Basis Set:
  @DF-RHF Final Energy:  -325.02162943053116
    Total Energy =                       -325.0216294305312204
    Molecular point group: c1
  Basis Set: 6-31G*
  Basis Set:
  Basis Set: 6-31G*
  Basis Set:
  @DF-RHF Final Energy:  -325.02226023609182
    Total Energy =                       -325.0222602360916540
  Basis Set: 6-31G*
  Basis Set:
  Basis Set: 6-31G*
  Basis Set:
  @DF-RHF Final Energy:  -325.02240824545368
    Total Energy =                       -325.0224082454535051
  Basis Set: 6-31G*
  Basis Set:
  Basis Set: 6-31G*
  Basis Set:
  @DF-RHF Final Energy:  -325.02241350405910
    Total Energy =                       -325.0224135040586475
  Basis Set: 6-31G*
  Basis Set:
  Charge       = 0
  Multiplicity = 1
  Basis Set: 6-31G*
  Basis Set:

    Orbital Energies (a.u.)
    -----------------------

    Doubly Occupied:

       1A    -20.553175     2A    -15.545218     3A    -11.265168
       4A    -11.265140     5A    -11.243857     6A    -11.243797
       7A    -11.240826     8A     -1.382475     9A     -1.226594
      10A     -1.037903    11A     -0.980031    12A     -0.882172
      13A     -0.869801    14A     -0.773322    15A     -0.682553
      16A     -0.643384    17A     -0.642820    18A     -0.630757
      19A     -0.625386    20A     -0.569525    21A     -0.558461
      22A     -0.546870    23A     -0.527226    24A     -0.499914
      25A     -0.484192    26A     -0.451528    27A     -0.406867
      28A     -0.345099

  @DF-RHF Final Energy:  -325.02241419259218

   => Energetics <=

    Nuclear Repulsion Energy =            340.8699590859466184
    One-Electron Energy =               -1117.5366240093330816
    Two-Electron Energy =                 451.6442507307945107
    DFT Exchange-Correlation Energy =       0.0000000000000000
    Empirical Dispersion Energy =           0.0000000000000000
    PCM Polarization Energy =               0.0000000000000000
    EFP Energy =                            0.0000000000000000
    Total Energy =                       -325.0224141925918957
    Molecular point group: c1
  Basis Set: 6-31G*
  Basis Set:

  -Total Gradient:
     Atom            X                  Y                   Z
    ------   -----------------  -----------------  -----------------
       1       -0.000018555106     0.000000377353    -0.000025966173
       2        0.000168401236    -0.000322052142    -0.001292182186
       3       -0.000199003342     0.001073276308    -0.000326408828
       4       -0.000011906903    -0.000004960413     0.000001769163
       5       -0.000057585366     0.000031111599     0.001180704468
       6        0.000122241635    -0.000763329350     0.000503875725
       7        0.000024079359     0.000000759819    -0.000012575058
       8       -0.000003686883    -0.000003474025     0.000002657900
       9       -0.000007070227     0.000002981864    -0.000004097306
      10       -0.000017756193    -0.000011318357    -0.000028834447
      11       -0.000007061181    -0.000000351246    -0.000002886402
      12        0.000010880520    -0.000001735477    -0.000001942820
      13       -0.000015931483    -0.000020820087     0.000017304377
      14       -0.000023067191    -0.000000412288    -0.000002296883
      15        0.000017820269     0.000002319182    -0.000004556412
      16        0.000020982209     0.000016321866    -0.000006980514
      17       -0.000007771858    -0.000005881692    -0.000008902918
      18        0.000004990509     0.000007187090     0.000011318314

  **** Optimization is complete! (in 5 steps) ****
    Final optimized geometry and variables:
    Molecular point group: c1

    Geometry (in Angstrom), charge = 0, multiplicity = 1:

    H            2.810947729783    -0.230633399330     1.341134786689
    C            2.381581244041     0.181730126046     0.432676547814
    N            0.948960166908    -0.065218943834     0.375811565985
    H            2.892764674431    -0.269375464562    -0.411395515360
    H            2.605445652798     1.245078563722     0.417046356087
    C            0.524528570702    -0.844947557681    -0.770683461515
    C            0.140538549601     1.127208165126     0.535911262259
    H            0.699866307113    -0.315520038321    -1.712800324336
    H            1.091195592337    -1.769789289485    -0.801013514604
    C           -0.955553137412    -1.168237984599    -0.649341258806
    H            0.429947670532     1.632595739422     1.451754947172
    H            0.284492560111     1.829716561132    -0.291314186360
    C           -1.328048899882     0.744600412619     0.616498398106
    H           -1.313744691479    -1.666866467669    -1.540643406866
    H           -1.115702669716    -1.824341801498     0.204357894384
    O           -1.713619132818    -0.000192987698    -0.504456507061
    H           -1.953906243330     1.627309927996     0.637758946399
    H           -1.505574245629     0.170585192212     1.524188468041

  Mulliken Charges: (a.u.)
   Center  Symbol    Alpha    Beta     Spin     Total
       1     H     0.41546  0.41546  0.00000  0.16907
       2     C     3.13917  3.13917  0.00000 -0.27834
       3     N     3.79422  3.79422  0.00000 -0.58844
       4     H     0.42079  0.42079  0.00000  0.15842
       5     H     0.42280  0.42280  0.00000  0.15440
       6     C     3.06642  3.06642  0.00000 -0.13285
       7     C     3.06660  3.06660  0.00000 -0.13319
       8     H     0.42892  0.42892  0.00000  0.14217
       9     H     0.41667  0.41667  0.00000  0.16666
      10     C     2.99769  2.99769  0.00000  0.00461
      11     H     0.41661  0.41661  0.00000  0.16678
      12     H     0.42876  0.42876  0.00000  0.14247
      13     C     2.99761  2.99761  0.00000  0.00477
      14     H     0.41368  0.41368  0.00000  0.17263
      15     H     0.42436  0.42436  0.00000  0.15127
      16     O     4.31220  4.31220  0.00000 -0.62440
      17     H     0.41368  0.41368  0.00000  0.17264
      18     H     0.42434  0.42434  0.00000  0.15131

   Total alpha = 28.00000, Total beta = 28.00000, Total charge =  0.00000
