  ==> Input File <==

--------------------------------------------------------------------------
set {
	reference rhf
	basis 6-31G*
}

set_num_threads( 4 )
memory 2 gb

molecule MOL {
0 1

O	 0.391030	 1.298905	 0.000133
C	 0.503002	 0.111612	 0.000005
C	 -0.702327	 -0.811998	 -0.000075
C	 1.863306	 -0.554493	 0.000030
C	 -0.373711	 -2.244729	 0.401725
H	 -1.450063	 -0.385226	 0.665904
H	 -1.146743	 -0.780936	 -0.993199
H	 0.045825	 -2.281391	 1.399655
H	 -1.269325	 -2.856953	 0.384009
H	 0.351832	 -2.680610	 -0.274156
H	 1.974395	 -1.189404	 -0.874166
H	 2.638695	 0.198920	 -0.000196
H	 1.974487	 -1.188655	 0.874727

	symmetry c1
}
set optking {
	frozen_dihedral = ("
		6 3 2 1
	")
}

ee = optimize('scf')
oeprop('DIPOLE', 'QUADRUPOLE', 'MULLIKEN_CHARGES')
f=open( 'psi4out.xyz', 'w' )
f.write( "13  " )
f.write( str(ee) + "\n" )
f.write( MOL.save_string_xyz() )
f.close()
--------------------------------------------------------------------------

    Molecular point group: c1
  Charge       = 0
  Multiplicity = 1
  Basis Set: 6-31G*
  Basis Set:
  @DF-RHF Final Energy:  -230.99135551786858
    Total Energy =                       -230.9913555178686693
    Molecular point group: c1
  Basis Set: 6-31G*
  Basis Set:
  Basis Set: 6-31G*
  Basis Set:
  @DF-RHF Final Energy:  -230.99223377289707
    Total Energy =                       -230.9922337728971797
  Basis Set: 6-31G*
  Basis Set:
  Basis Set: 6-31G*
  Basis Set:
  @DF-RHF Final Energy:  -230.99338408044582
    Total Energy =                       -230.9933840804456509
  Basis Set: 6-31G*
  Basis Set:
  Basis Set: 6-31G*
  Basis Set:
  @DF-RHF Final Energy:  -230.99355433567899
    Total Energy =                       -230.9935543356792209
  Basis Set: 6-31G*
  Basis Set:
  Basis Set: 6-31G*
  Basis Set:
  @DF-RHF Final Energy:  -230.99358833239708
    Total Energy =                       -230.9935883323972234
  Basis Set: 6-31G*
  Basis Set:
  Basis Set: 6-31G*
  Basis Set:
  @DF-RHF Final Energy:  -230.99360036492078
    Total Energy =                       -230.9936003649209511
  Basis Set: 6-31G*
  Basis Set:
  Charge       = 0
  Multiplicity = 1
  Basis Set: 6-31G*
  Basis Set:

    Orbital Energies (a.u.)
    -----------------------

    Doubly Occupied:

       1A    -20.546825     2A    -11.326818     3A    -11.234422
       4A    -11.228663     5A    -11.228649     6A     -1.393754
       7A     -1.066897     8A     -0.993708     9A     -0.890587
      10A     -0.731636    11A     -0.652591    12A     -0.643816
      13A     -0.624728    14A     -0.584400    15A     -0.556459
      16A     -0.544518    17A     -0.530119    18A     -0.513063
      19A     -0.474255    20A     -0.399473

  @DF-RHF Final Energy:  -230.99360060222619

   => Energetics <=

    Nuclear Repulsion Energy =            176.6775631149665173
    One-Electron Energy =                -663.0115640792671456
    Two-Electron Energy =                 255.3404003620743197
    DFT Exchange-Correlation Energy =       0.0000000000000000
    Empirical Dispersion Energy =           0.0000000000000000
    PCM Polarization Energy =               0.0000000000000000
    EFP Energy =                            0.0000000000000000
    Total Energy =                       -230.9936006022263086
    Molecular point group: c1
  Basis Set: 6-31G*
  Basis Set:

  -Total Gradient:
     Atom            X                  Y                   Z
    ------   -----------------  -----------------  -----------------
       1        0.000044867826    -0.000011717961    -0.001361472658
       2        0.000050369542    -0.000129717754     0.002077685184
       3       -0.000598773301     0.000794025947    -0.001758559987
       4       -0.000002504864     0.000010904507     0.000061146704
       5       -0.000003867912    -0.000006212731    -0.000004847653
       6        0.000510815684    -0.000658282085     0.001043902082
       7        0.000000935024    -0.000002592980    -0.000001875955
       8       -0.000007184205    -0.000000411741    -0.000004736010
       9        0.000002448205    -0.000003078227    -0.000000090845
      10        0.000013548510    -0.000001532296    -0.000001717426
      11       -0.000018008930     0.000001811638    -0.000017244505
      12        0.000006260254     0.000003443031    -0.000009603325
      13        0.000001094167     0.000003360651    -0.000022585605

  **** Optimization is complete! (in 7 steps) ****
    Final optimized geometry and variables:
    Molecular point group: c1

    Geometry (in Angstrom), charge = 0, multiplicity = 1:

    O            0.018911646119     1.735573476821    -0.084913306936
    C            0.184512478466     0.553882939730    -0.069718811186
    C           -1.024641986016    -0.374469995956    -0.075518483840
    C            1.577689891027    -0.036520814093    -0.101219750797
    C           -0.790957570478    -1.832132475829     0.322523021918
    H           -1.760955638793     0.078973006854     0.578561742580
    H           -1.437155481954    -0.325999725933    -1.080773235888
    H           -0.402525480643    -1.914744092644     1.332719553337
    H           -1.727294457106    -2.378238391487     0.288839271526
    H           -0.097860929702    -2.333463772100    -0.344377367035
    H            1.699213293118    -0.679147231495    -0.968456851252
    H            2.300204759576     0.766236199647    -0.142932232487
    H            1.762023545561    -0.644931137453     0.778350374346

  Mulliken Charges: (a.u.)
   Center  Symbol    Alpha    Beta     Spin     Total
       1     O     4.26235  4.26235  0.00000 -0.52470
       2     C     2.73796  2.73796  0.00000  0.52408
       3     C     3.20280  3.20280  0.00000 -0.40561
       4     C     3.29191  3.29191  0.00000 -0.58382
       5     C     3.25009  3.25009  0.00000 -0.50018
       6     H     0.39817  0.39817  0.00000  0.20366
       7     H     0.40146  0.40146  0.00000  0.19708
       8     H     0.41640  0.41640  0.00000  0.16720
       9     H     0.41110  0.41110  0.00000  0.17780
      10     H     0.41721  0.41721  0.00000  0.16557
      11     H     0.40838  0.40838  0.00000  0.18325
      12     H     0.39532  0.39532  0.00000  0.20936
      13     H     0.40684  0.40684  0.00000  0.18631

   Total alpha = 20.00000, Total beta = 20.00000, Total charge =  0.00000
