  ==> Input File <==

--------------------------------------------------------------------------
set {
	reference rhf
	basis 6-31G*
}

set_num_threads( 4 )
memory 2 gb

molecule MOL {
0 1

H	 2.591676	 2.013956	 0.335017
O	 3.341076	 1.666752	 -0.126416
C	 3.569581	 0.339145	 0.272707
C	 4.986132	 -0.141791	 -0.021934
H	 3.390956	 0.317830	 1.340093
H	 2.843293	 -0.328193	 -0.189835
C	 5.327685	 -0.195332	 -1.513022
H	 5.686220	 0.513680	 0.489536
H	 5.104727	 -1.133225	 0.412070
C	 6.736746	 -0.733080	 -1.777958
H	 5.233795	 0.800625	 -1.936839
H	 4.602312	 -0.825184	 -2.028252
C	 7.098896	 -0.887783	 -3.259598
H	 7.464539	 -0.083080	 -1.295605
H	 6.832650	 -1.704230	 -1.296949
C	 7.200529	 0.426365	 -4.038804
H	 8.053988	 -1.404736	 -3.325740
H	 6.370153	 -1.537633	 -3.741745
C	 7.666372	 0.228648	 -5.482873
H	 7.892267	 1.094328	 -3.527498
H	 6.238084	 0.932272	 -4.046589
C	 7.762513	 1.538224	 -6.264814
H	 8.636368	 -0.263891	 -5.483882
H	 6.981788	 -0.446223	 -5.992558
H	 8.464997	 2.222920	 -5.797983
H	 8.096822	 1.365178	 -7.283110
H	 6.798954	 2.037742	 -6.313808

	symmetry c1
}
set optking {
	frozen_dihedral = ("
		4 3 2 1
	")
}

ee = optimize('scf')
oeprop('DIPOLE', 'QUADRUPOLE', 'MULLIKEN_CHARGES')
f=open( 'psi4out.xyz', 'w' )
f.write( "27  " )
f.write( str(ee) + "\n" )
f.write( MOL.save_string_xyz() )
f.close()
--------------------------------------------------------------------------

    Molecular point group: c1
  Charge       = 0
  Multiplicity = 1
  Basis Set: 6-31G*
  Basis Set:
  @DF-RHF Final Energy:  -388.27994409105395
    Total Energy =                       -388.2799440910539488
    Molecular point group: c1
  Basis Set: 6-31G*
  Basis Set:
  Basis Set: 6-31G*
  Basis Set:
  @DF-RHF Final Energy:  -388.28138332183187
    Total Energy =                       -388.2813833218319814
  Basis Set: 6-31G*
  Basis Set:
  Basis Set: 6-31G*
  Basis Set:
  @DF-RHF Final Energy:  -388.28179582117832
    Total Energy =                       -388.2817958211783207
  Basis Set: 6-31G*
  Basis Set:
  Basis Set: 6-31G*
  Basis Set:
  @DF-RHF Final Energy:  -388.28179447394035
    Total Energy =                       -388.2817944739402947
  Basis Set: 6-31G*
  Basis Set:
  @DF-RHF Final Energy:  -388.28179511833122
    Total Energy =                       -388.2817951183312744
  Basis Set: 6-31G*
  Basis Set:
  @DF-RHF Final Energy:  -388.28180498312383
    Total Energy =                       -388.2818049831245162
  Basis Set: 6-31G*
  Basis Set:
  Basis Set: 6-31G*
  Basis Set:
  @DF-RHF Final Energy:  -388.28180464268490
    Total Energy =                       -388.2818046426848468
  Basis Set: 6-31G*
  Basis Set:
  Basis Set: 6-31G*
  Basis Set:
  @DF-RHF Final Energy:  -388.28180574755817
    Total Energy =                       -388.2818057475574278
  Basis Set: 6-31G*
  Basis Set:
  Charge       = 0
  Multiplicity = 1
  Basis Set: 6-31G*
  Basis Set:

    Orbital Energies (a.u.)
    -----------------------

    Doubly Occupied:

       1A    -20.552528     2A    -11.267915     3A    -11.211539
       4A    -11.210071     5A    -11.208563     6A    -11.207986
       7A    -11.206518     8A    -11.205168     9A    -11.204089
      10A     -1.359170    11A     -1.087200    12A     -1.055499
      13A     -1.007195    14A     -0.942167    15A     -0.878756
      16A     -0.810574    17A     -0.793836    18A     -0.770239
      19A     -0.703418    20A     -0.644323    21A     -0.638890
      22A     -0.612406    23A     -0.586086    24A     -0.579201
      25A     -0.569227    26A     -0.544450    27A     -0.537217
      28A     -0.517263    29A     -0.503992    30A     -0.495062
      31A     -0.475545    32A     -0.470408    33A     -0.459051
      34A     -0.452579    35A     -0.440791    36A     -0.432436
      37A     -0.427608

  @DF-RHF Final Energy:  -388.28180573038856

   => Energetics <=

    Nuclear Repulsion Energy =            460.1163652356719922
    One-Electron Energy =               -1438.6584133082881181
    Two-Electron Energy =                 590.2602423422270022
    DFT Exchange-Correlation Energy =       0.0000000000000000
    Empirical Dispersion Energy =           0.0000000000000000
    PCM Polarization Energy =               0.0000000000000000
    EFP Energy =                            0.0000000000000000
    Total Energy =                       -388.2818057303891237
    Molecular point group: c1
  Basis Set: 6-31G*
  Basis Set:

  -Total Gradient:
     Atom            X                  Y                   Z
    ------   -----------------  -----------------  -----------------
       1        0.001008669581     0.000495852631     0.001224408668
       2       -0.001123200529    -0.000504019482    -0.001173677822
       3       -0.000195754943    -0.000350177098    -0.000964144609
       4        0.000314959690     0.000354411894     0.000919356771
       5       -0.000002600440    -0.000000403133     0.000000561711
       6       -0.000000935198     0.000005285803    -0.000004342299
       7       -0.000002802078     0.000000246762    -0.000007289199
       8        0.000001179170     0.000003117169     0.000000861398
       9        0.000000607018     0.000004409071     0.000000561283
      10       -0.000004050569    -0.000003286878    -0.000002243037
      11        0.000005381765    -0.000003034217     0.000000767190
      12       -0.000004103302    -0.000001308814     0.000000393014
      13       -0.000004882447    -0.000000481882     0.000000739496
      14       -0.000002481325     0.000000628828    -0.000000779266
      15        0.000003785725    -0.000003142012    -0.000002652959
      16        0.000006119078     0.000001375658     0.000001926757
      17       -0.000000647625     0.000000416428     0.000003077908
      18       -0.000000664883    -0.000001261357     0.000000493938
      19        0.000002512912     0.000000237130     0.000001083515
      20        0.000002599319    -0.000000695774     0.000000704893
      21        0.000000576480     0.000002167050     0.000001664169
      22       -0.000005773496    -0.000000659942    -0.000001448351
      23        0.000001352387     0.000003162579     0.000000244262
      24        0.000001844788    -0.000002643066     0.000000214829
      25        0.000000237537    -0.000001911667    -0.000000046329
      26       -0.000001671958    -0.000000311498    -0.000000532559
      27       -0.000000256644     0.000002025814     0.000000096618

  **** Optimization is complete! (in 9 steps) ****
    Final optimized geometry and variables:
    Molecular point group: c1

    Geometry (in Angstrom), charge = 0, multiplicity = 1:

    H           -3.183496845264     1.815211000708     2.663206178124
    O           -2.456014121476     1.383829253513     2.239576911626
    C           -2.355485982570     0.057965499060     2.698308026113
    C           -0.953224162745    -0.457052936581     2.420188197878
    H           -2.551338275017     0.010710520024     3.767705339789
    H           -3.093729295822    -0.570514617963     2.202433612976
    C           -0.603957136101    -0.501234869729     0.931293269347
    H           -0.245918497701     0.178902835395     2.945970781597
    H           -0.865343605548    -1.453772040501     2.849023733289
    C            0.816199711981    -1.013839008941     0.677456525877
    H           -0.728406032040     0.491415719446     0.514990402510
    H           -1.315259863737    -1.146451021426     0.416593720105
    C            1.187132945824    -1.167411563368    -0.802199374490
    H            1.530572117416    -0.347569524706     1.158558629561
    H            0.931624540268    -1.981463661897     1.162594727254
    C            1.264751188924     0.146387634437    -1.584529602116
    H            2.152238092524    -1.666461019815    -0.864766959619
    H            0.471716745615    -1.832000438469    -1.284297004784
    C            1.730212707783    -0.046638064633    -3.029343835946
    H            1.947014352181     0.826512392640    -1.076347886609
    H            0.294295160645     0.635817058515    -1.589483601278
    C            1.803869125271     1.262965651997    -3.813769325292
    H            2.707831614470    -0.524233794421    -3.032621928767
    H            1.054689213197    -0.732648404011    -3.536359662844
    H            2.497498866114     1.958913675500    -3.350227464789
    H            2.137268163047     1.093705362324    -4.833161702168
    H            0.832707531843     1.747695147847    -3.859538473774

  Mulliken Charges: (a.u.)
   Center  Symbol    Alpha    Beta     Spin     Total
       1     H     0.28013  0.28013  0.00000  0.43974
       2     O     4.37067  4.37067  0.00000 -0.74134
       3     C     2.99756  2.99756  0.00000  0.00488
       4     C     3.15839  3.15839  0.00000 -0.31678
       5     H     0.43032  0.43032  0.00000  0.13937
       6     H     0.43069  0.43069  0.00000  0.13862
       7     C     3.15732  3.15732  0.00000 -0.31463
       8     H     0.41676  0.41676  0.00000  0.16649
       9     H     0.42486  0.42486  0.00000  0.15028
      10     C     3.15331  3.15331  0.00000 -0.30663
      11     H     0.40444  0.40444  0.00000  0.19113
      12     H     0.42711  0.42711  0.00000  0.14579
      13     C     3.15270  3.15270  0.00000 -0.30540
      14     H     0.42372  0.42372  0.00000  0.15257
      15     H     0.42456  0.42456  0.00000  0.15088
      16     C     3.15279  3.15279  0.00000 -0.30557
      17     H     0.42325  0.42325  0.00000  0.15350
      18     H     0.42484  0.42484  0.00000  0.15032
      19     C     3.15098  3.15098  0.00000 -0.30196
      20     H     0.42466  0.42466  0.00000  0.15068
      21     H     0.42006  0.42006  0.00000  0.15988
      22     C     3.23898  3.23898  0.00000 -0.47795
      23     H     0.42405  0.42405  0.00000  0.15190
      24     H     0.42375  0.42375  0.00000  0.15250
      25     H     0.42207  0.42207  0.00000  0.15586
      26     H     0.42043  0.42043  0.00000  0.15915
      27     H     0.42163  0.42163  0.00000  0.15674

   Total alpha = 37.00000, Total beta = 37.00000, Total charge =  0.00000
