                              Psi4 1.0.54 Driver

  ==> Input File <==

--------------------------------------------------------------------------
set {
	reference rhf
	basis cc-pvtz
}

set_num_threads( 4 )
memory 2 gb

molecule MOL {
0 1

O	 0.395927	 1.296676	 -0.000076
C	 0.503051	 0.114301	 -0.000074
C	 -0.701422	 -0.805636	 -0.000109
C	 1.858118	 -0.556123	 0.000212
C	 -1.696220	 -0.524545	 1.114990
H	 -1.176957	 -0.722836	 -0.973991
H	 -0.333752	 -1.826934	 0.056543
H	 -2.081368	 0.483990	 1.046099
H	 -2.529809	 -1.214286	 1.058060
H	 -1.230704	 -0.629896	 2.085777
H	 1.961106	 -1.191101	 -0.872843
H	 2.636688	 0.191085	 -0.000109
H	 1.961070	 -1.190284	 0.873873

	symmetry c1
}
set optking {
	frozen_dihedral = ("
		6 3 2 1
	")
}

ee,wfn = optimize('scf', return_wfn=True)
oeprop( wfn, 'DIPOLE', 'QUADRUPOLE', 'MULLIKEN_CHARGES')
f=open( 'psi4out.xyz', 'w' )
f.write( "13  " )
f.write( str(ee) + "\n" )
f.write( MOL.save_string_xyz() )
f.close()
--------------------------------------------------------------------------

    Molecular point group: c1
  Charge       = 0
  Multiplicity = 1
  Basis Set: CC-PVTZ
  Basis Set:
  @DF-RHF Final Energy:  -231.08091753552560
    Total Energy =                       -231.0809175355257139
    Molecular point group: c1
  Basis Set: CC-PVTZ
  Basis Set:
  Basis Set: CC-PVTZ
  Basis Set:
  @DF-RHF Final Energy:  -231.08147128869595
    Total Energy =                       -231.0814712886960365
  Basis Set: CC-PVTZ
  Basis Set:
  Basis Set: CC-PVTZ
  Basis Set:
  @DF-RHF Final Energy:  -231.07998987392043
    Total Energy =                       -231.0799898739203115
  Basis Set: CC-PVTZ
  Basis Set:
  Basis Set: CC-PVTZ
  Basis Set:
  @DF-RHF Final Energy:  -231.08162640411146
    Total Energy =                       -231.0816264041114891
  Basis Set: CC-PVTZ
  Basis Set:
  Basis Set: CC-PVTZ
  Basis Set:
  @DF-RHF Final Energy:  -231.08164704484369
    Total Energy =                       -231.0816470448436917
  Basis Set: CC-PVTZ
  Basis Set:
  Charge       = 0
  Multiplicity = 1
  Basis Set: CC-PVTZ
  Basis Set:

    Orbital Energies (a.u.)
    -----------------------

    Doubly Occupied:

       1A    -20.538220     2A    -11.321414     3A    -11.232340
       4A    -11.228387     5A    -11.218337     6A     -1.399064
       7A     -1.062669     8A     -1.001507     9A     -0.879941
      10A     -0.732869    11A     -0.659400    12A     -0.645599
      13A     -0.614697    14A     -0.589214    15A     -0.572252
      16A     -0.532755    17A     -0.522423    18A     -0.504379
      19A     -0.482903    20A     -0.402818

  @DF-RHF Final Energy:  -231.08164771084745

   => Energetics <=

    Nuclear Repulsion Energy =            177.1995440491198792
    One-Electron Energy =                -664.2800072535230811
    Two-Electron Energy =                 255.9988154935557532
    DFT Exchange-Correlation Energy =       0.0000000000000000
    Empirical Dispersion Energy =           0.0000000000000000
    PCM Polarization Energy =               0.0000000000000000
    EFP Energy =                            0.0000000000000000
    Total Energy =                       -231.0816477108474487
    Molecular point group: c1
  Basis Set: CC-PVTZ
  Basis Set:

  -Total Gradient:
     Atom            X                  Y                   Z
    ------   -----------------  -----------------  -----------------
       1        0.000005560842    -0.000013109889    -0.001121911947
       2       -0.000113952314     0.000191164145     0.001602396923
       3        0.000702796901    -0.001035256246    -0.000851395601
       4        0.000032019254     0.000015555507     0.000073119142
       5       -0.000007697824    -0.000011153293    -0.000017904421
       6       -0.000582225802     0.000853681155     0.000345232181
       7       -0.000011892748     0.000000961354    -0.000003276767
       8       -0.000001617748    -0.000006301391    -0.000000459587
       9       -0.000011012326     0.000004169325     0.000015596586
      10       -0.000003324480    -0.000000045776     0.000010187146
      11       -0.000011211287     0.000006720510    -0.000023571171
      12       -0.000000586239    -0.000002416078    -0.000012856192
      13        0.000003143768    -0.000003969321    -0.000015156291

  **** Optimization is complete! (in 6 steps) ****
    Final optimized geometry and variables:
    Molecular point group: c1

    Geometry (in Angstrom), charge = 0, multiplicity = 1:

    O            0.367094073608     1.340356474021    -0.264762593275
    C            0.448503364213     0.156227569896    -0.226146184389
    C           -0.797473500356    -0.713198069350    -0.186498119785
    C            1.782606967120    -0.547931913416    -0.243672016102
    C           -1.789044889152    -0.259631583703     0.882803354833
    H           -1.259592196855    -0.627613062021    -1.165489153791
    H           -0.528819268221    -1.753153565401    -0.046312578146
    H           -2.058844379241     0.776028834589     0.733821574247
    H           -2.688831965765    -0.861132122512     0.844407153249
    H           -1.365030435122    -0.356818111913     1.875997632899
    H            1.824636120918    -1.238991074969    -1.079166520947
    H            2.583579477961     0.171142062626    -0.319875777559
    H            1.898636166055    -1.134620345567     0.661849839250

  Mulliken Charges: (a.u.)
   Center  Symbol    Alpha    Beta     Spin     Total
       1     O     4.17471  4.17471  0.00000 -0.34943
       2     C     2.85633  2.85633  0.00000  0.28734
       3     C     3.09912  3.09912  0.00000 -0.19825
       4     C     3.15179  3.15179  0.00000 -0.30357
       5     C     3.14465  3.14465  0.00000 -0.28930
       6     H     0.44443  0.44443  0.00000  0.11114
       7     H     0.44764  0.44764  0.00000  0.10473
       8     H     0.44023  0.44023  0.00000  0.11955
       9     H     0.44907  0.44907  0.00000  0.10185
      10     H     0.45527  0.45527  0.00000  0.08945
      11     H     0.44996  0.44996  0.00000  0.10008
      12     H     0.43653  0.43653  0.00000  0.12693
      13     H     0.45026  0.45026  0.00000  0.09948

   Total alpha = 20.00000, Total beta = 20.00000, Total charge =  0.00000

*** Psi4 exiting successfully. Buy a developer a beer!
