  ==> Input File <==

--------------------------------------------------------------------------
set {
	reference rhf
	basis 6-31G*
}

set_num_threads( 4 )
memory 2 gb

molecule MOL {
0 1

H	 -2.354083	 -0.785833	 2.182794
C	 -1.858048	 -0.506338	 1.272186
C	 -2.578452	 -0.050809	 0.181104
C	 -0.485998	 -0.598360	 1.177541
H	 -3.649329	 0.028208	 0.235143
C	 -1.926763	 0.305511	 -0.984686
H	 0.099614	 -0.946386	 2.002595
C	 0.154804	 -0.237046	 -0.000077
H	 -2.503626	 0.656819	 -1.820094
C	 -0.542243	 0.226840	 -1.120775
N	 1.611208	 -0.370857	 -0.000034
C	 0.065333	 0.642988	 -2.442367
O	 2.274126	 0.622059	 -0.008063
O	 2.068510	 -1.474748	 0.007823
H	 0.607426	 -0.170547	 -2.904345
H	 -0.724966	 0.958266	 -3.111995
H	 0.762493	 1.460314	 -2.319607

	symmetry c1
}
set optking {
	frozen_dihedral = ("
		4 8 11 13
	")
}

ee = optimize('scf')
oeprop('DIPOLE', 'QUADRUPOLE', 'MULLIKEN_CHARGES')
f=open( 'psi4out.xyz', 'w' )
f.write( "17  " )
f.write( str(ee) + "\n" )
f.write( MOL.save_string_xyz() )
f.close()
--------------------------------------------------------------------------

    Molecular point group: c1
  Charge       = 0
  Multiplicity = 1
  Basis Set: 6-31G*
  Basis Set:
  @DF-RHF Final Energy:  -473.19986183570211
    Total Energy =                       -473.1998618357023361
    Molecular point group: c1
  Basis Set: 6-31G*
  Basis Set:
  Basis Set: 6-31G*
  Basis Set:
  @DF-RHF Final Energy:  -473.19570512092054
    Total Energy =                       -473.1957051209207066
  Basis Set: 6-31G*
  Basis Set:
  Basis Set: 6-31G*
  Basis Set:
  @DF-RHF Final Energy:  -473.20054907659960
    Total Energy =                       -473.2005490765994864
  Basis Set: 6-31G*
  Basis Set:
  Basis Set: 6-31G*
  Basis Set:
  @DF-RHF Final Energy:  -473.20223671033159
    Total Energy =                       -473.2022367103318174
  Basis Set: 6-31G*
  Basis Set:
  @DF-RHF Final Energy:  -473.20230889784881
    Total Energy =                       -473.2023088978485248
  Basis Set: 6-31G*
  Basis Set:
  @DF-RHF Final Energy:  -473.20236665527307
    Total Energy =                       -473.2023666552731811
  Basis Set: 6-31G*
  Basis Set:
  Basis Set: 6-31G*
  Basis Set:
  @DF-RHF Final Energy:  -473.20237485207446
    Total Energy =                       -473.2023748520745130
  Basis Set: 6-31G*
  Basis Set:
  Basis Set: 6-31G*
  Basis Set:
  @DF-RHF Final Energy:  -473.20237629380614
    Total Energy =                       -473.2023762938058553
  Basis Set: 6-31G*
  Basis Set:
  Charge       = 0
  Multiplicity = 1
  Basis Set: 6-31G*
  Basis Set:

    Orbital Energies (a.u.)
    -----------------------

    Doubly Occupied:

       1A    -20.605341     2A    -20.604707     3A    -15.853109
       4A    -11.301881     5A    -11.276944     6A    -11.267536
       7A    -11.259056     8A    -11.256081     9A    -11.255115
      10A    -11.239651    11A     -1.636047    12A     -1.419692
      13A     -1.202245    14A     -1.092164    15A     -1.072969
      16A     -0.979417    17A     -0.935533    18A     -0.853205
      19A     -0.819947    20A     -0.772099    21A     -0.733934
      22A     -0.729437    23A     -0.695742    24A     -0.653559
      25A     -0.636585    26A     -0.600001    27A     -0.598445
      28A     -0.570037    29A     -0.542187    30A     -0.527635
      31A     -0.520708    32A     -0.492081    33A     -0.479099
      34A     -0.450143    35A     -0.364398    36A     -0.353485

  @DF-RHF Final Energy:  -473.20237651135466

   => Energetics <=

    Nuclear Repulsion Energy =            509.8176301605706726
    One-Electron Energy =               -1654.7395852435374763
    Two-Electron Energy =                 671.7195785716119190
    DFT Exchange-Correlation Energy =       0.0000000000000000
    Empirical Dispersion Energy =           0.0000000000000000
    PCM Polarization Energy =               0.0000000000000000
    EFP Energy =                            0.0000000000000000
    Total Energy =                       -473.2023765113549416
    Molecular point group: c1
  Basis Set: 6-31G*
  Basis Set:

  -Total Gradient:
     Atom            X                  Y                   Z
    ------   -----------------  -----------------  -----------------
       1        0.000010847087    -0.000003218508     0.000003601300
       2       -0.000090839156     0.000031935597    -0.000029795822
       3       -0.000002023750    -0.000028813752     0.000085633522
       4        0.000335775139     0.003097015441     0.001003278726
       5        0.000000661422     0.000003847094    -0.000009917202
       6        0.000077089076    -0.000002452830    -0.000041763634
       7       -0.000003438865    -0.000002684096     0.000007627718
       8       -0.000333313069    -0.004397324908    -0.000039570504
       9       -0.000008218421    -0.000001837869     0.000005226402
      10       -0.000064389520     0.000019608826    -0.000019427435
      11       -0.000144215334     0.001244334727    -0.004791337661
      12       -0.000011520120    -0.000025609754    -0.000020101533
      13        0.000193708942     0.000050269307     0.003824530727
      14        0.000027522237    -0.000001432144     0.000000117165
      15        0.000000846405     0.000000470965     0.000003632462
      16        0.000002543152     0.000000508366     0.000012265002
      17        0.000008964773     0.000015383536     0.000006000771

  **** Optimization is complete! (in 9 steps) ****
    Final optimized geometry and variables:
    Molecular point group: c1

    Geometry (in Angstrom), charge = 0, multiplicity = 1:

    H           -2.311607287634    -0.623889719576     2.432731964773
    C           -1.823859558461    -0.353720373456     1.514680987186
    C           -2.555802868780     0.119829938942     0.439322551897
    C           -0.451601166113    -0.483108718025     1.397334914795
    H           -3.623431675709     0.216816548177     0.517609112114
    C           -1.922671528786     0.470164801365    -0.742282819019
    H            0.144509289189    -0.860725979256     2.206717446448
    C            0.148686471014    -0.123384968627     0.209516058531
    H           -2.506544340049     0.832181194597    -1.569133307899
    C           -0.543930176291     0.371687333891    -0.884976347647
    N            1.607496043581    -0.225948456709     0.147913477555
    C            0.147417359362     0.779021697229    -2.165046329300
    O            2.226673732021     0.792842327123     0.106892864736
    O            2.080810203319    -1.320063966168     0.182365669395
    H            0.842805244001     0.017446396167    -2.500683767306
    H           -0.581192604427     0.934887887198    -2.950132324282
    H            0.706226656459     1.696923397698    -2.027166426914

  Mulliken Charges: (a.u.)
   Center  Symbol    Alpha    Beta     Spin     Total
       1     H     0.38978  0.38978  0.00000  0.22043
       2     C     3.10936  3.10936  0.00000 -0.21873
       3     C     3.08745  3.08745  0.00000 -0.17490
       4     C     3.08234  3.08234  0.00000 -0.16469
       5     H     0.39098  0.39098  0.00000  0.21804
       6     C     3.11986  3.11986  0.00000 -0.23971
       7     H     0.37563  0.37563  0.00000  0.24875
       8     C     2.91103  2.91103  0.00000  0.17794
       9     H     0.39272  0.39272  0.00000  0.21457
      10     C     2.96761  2.96761  0.00000  0.06478
      11     N     3.26430  3.26430  0.00000  0.47141
      12     C     3.25624  3.25624  0.00000 -0.51249
      13     O     4.22568  4.22568  0.00000 -0.45137
      14     O     4.22436  4.22436  0.00000 -0.44873
      15     H     0.40218  0.40218  0.00000  0.19565
      16     H     0.40864  0.40864  0.00000  0.18272
      17     H     0.39184  0.39184  0.00000  0.21632

   Total alpha = 36.00000, Total beta = 36.00000, Total charge = -0.00000
