                              Psi4 1.0.54 Driver

  ==> Input File <==

--------------------------------------------------------------------------
set {
	reference rhf
	basis cc-pvtz
}

set_num_threads( 4 )
memory 2 gb

molecule MOL {
0 1

O	 2.767889	 -0.396617	 0.057146
C	 1.704209	 0.119472	 -0.000093
C	 0.380337	 -0.600947	 -0.000234
O	 1.538019	 1.429996	 -0.073071
C	 -0.824290	 0.329213	 -0.000115
H	 0.371455	 -1.255476	 -0.865660
H	 0.371410	 -1.255787	 0.864952
C	 -2.146151	 -0.432825	 -0.000068
H	 -0.773936	 0.979158	 -0.866319
H	 -0.773838	 0.979034	 0.866186
C	 -3.366283	 0.483552	 0.000557
H	 -2.189286	 -1.084450	 -0.869996
H	 -2.188867	 -1.085083	 0.869399
C	 -4.687436	 -0.278003	 0.000108
H	 -3.325150	 1.134819	 -0.867957
H	 -3.325087	 1.133730	 0.869885
H	 -4.773783	 -0.912098	 -0.876078
H	 -5.531922	 0.401392	 0.000363
H	 -4.773901	 -0.912898	 0.875703
C	 2.701515	 2.232199	 -0.081604
H	 3.272373	 2.085613	 0.823297
H	 2.359182	 3.252344	 -0.144523
H	 3.322531	 1.994172	 -0.932425

	symmetry c1
}
set optking {
	frozen_dihedral = ("
		1 2 3 6
	")
}

ee,wfn = optimize('scf', return_wfn=True)
oeprop( wfn, 'DIPOLE', 'QUADRUPOLE', 'MULLIKEN_CHARGES')
f=open( 'psi4out.xyz', 'w' )
f.write( "23  " )
f.write( str(ee) + "\n" )
f.write( MOL.save_string_xyz() )
f.close()
--------------------------------------------------------------------------

    Molecular point group: c1
  Charge       = 0
  Multiplicity = 1
  Basis Set: CC-PVTZ
  Basis Set:
  @DF-RHF Final Energy:  -423.12702339316564
    Total Energy =                       -423.1270233931657003
    Molecular point group: c1
  Basis Set: CC-PVTZ
  Basis Set:
  Basis Set: CC-PVTZ
  Basis Set:
  @DF-RHF Final Energy:  -423.12773126756736
    Total Energy =                       -423.1277312675676967
  Basis Set: CC-PVTZ
  Basis Set:
  Basis Set: CC-PVTZ
  Basis Set:
  @DF-RHF Final Energy:  -423.12846275261245
    Total Energy =                       -423.1284627526121085
  Basis Set: CC-PVTZ
  Basis Set:
  Basis Set: CC-PVTZ
  Basis Set:
  @DF-RHF Final Energy:  -423.12844716322337
    Total Energy =                       -423.1284471632231998
  Basis Set: CC-PVTZ
  Basis Set:
  Basis Set: CC-PVTZ
  Basis Set:
  @DF-RHF Final Energy:  -423.12846987041235
    Total Energy =                       -423.1284698704123457
  Basis Set: CC-PVTZ
  Basis Set:
  Charge       = 0
  Multiplicity = 1
  Basis Set: CC-PVTZ
  Basis Set:

    Orbital Energies (a.u.)
    -----------------------

    Doubly Occupied:

       1A    -20.599315     2A    -20.529120     3A    -11.364860
       4A    -11.279400     5A    -11.233928     6A    -11.221346
       7A    -11.218170     8A    -11.217205     9A    -11.209707
      10A     -1.473310    11A     -1.363941    12A     -1.097088
      13A     -1.045659    14A     -0.984131    15A     -0.937098
      16A     -0.848968    17A     -0.797757    18A     -0.776585
      19A     -0.694623    20A     -0.687565    21A     -0.674053
      22A     -0.654681    23A     -0.610974    24A     -0.593573
      25A     -0.578594    26A     -0.561792    27A     -0.559028
      28A     -0.524467    29A     -0.522569    30A     -0.507439
      31A     -0.489239    32A     -0.483531    33A     -0.470314
      34A     -0.470041    35A     -0.454917    36A     -0.428417

  @DF-RHF Final Energy:  -423.12849390097267

   => Energetics <=

    Nuclear Repulsion Energy =            455.8149939616337178
    One-Electron Energy =               -1479.5601569349730653
    Two-Electron Energy =                 600.6166690723670172
    DFT Exchange-Correlation Energy =       0.0000000000000000
    Empirical Dispersion Energy =           0.0000000000000000
    PCM Polarization Energy =               0.0000000000000000
    EFP Energy =                            0.0000000000000000
    Total Energy =                       -423.1284939009723303
    Molecular point group: c1
  Basis Set: CC-PVTZ
  Basis Set:

  -Total Gradient:
     Atom            X                  Y                   Z
    ------   -----------------  -----------------  -----------------
       1       -0.000146407773     0.000145801817    -0.000239261331
       2        0.000198454548    -0.000399552532     0.000408965294
       3       -0.000067891108     0.000239239387    -0.000216028897
       4       -0.000047422401     0.000189323577    -0.000038007764
       5        0.000044959772    -0.000030847860    -0.000003547610
       6        0.000045974390    -0.000146112451     0.000091132052
       7       -0.000008437574    -0.000009399064     0.000003394435
       8       -0.000023088929     0.000003807147    -0.000001377463
       9       -0.000002154526     0.000006485940     0.000000393183
      10       -0.000005917065     0.000002025464    -0.000004851217
      11       -0.000015307577    -0.000009000535     0.000001041404
      12        0.000009920553     0.000002336438    -0.000001346705
      13        0.000005709467     0.000001696288    -0.000000532661
      14       -0.000008069182     0.000012908092     0.000003902813
      15        0.000001090166     0.000002886013    -0.000002179752
      16       -0.000003236338     0.000005305317     0.000002990377
      17        0.000000723038    -0.000003606330    -0.000003718304
      18       -0.000000622848    -0.000001944341    -0.000000953762
      19       -0.000001525078    -0.000005299393     0.000004143089
      20       -0.000028696172    -0.000040373077     0.000004271532
      21        0.000015952816     0.000013747979     0.000017245357
      22        0.000003076296     0.000007704638    -0.000000966023
      23        0.000032915513     0.000012867486    -0.000024708047

  **** Optimization is complete! (in 6 steps) ****
    Final optimized geometry and variables:
    Molecular point group: c1

    Geometry (in Angstrom), charge = 0, multiplicity = 1:

    O            2.892302286515    -0.810557459236     0.151754059028
    C            1.880838161719    -0.202245010615     0.050482927564
    C            0.521127203940    -0.862470928529     0.038777419385
    O            1.839626310025     1.111352277355    -0.071529957963
    C           -0.698966423523     0.050002539445    -0.003468529623
    H            0.528364197792    -1.534210908075    -0.813169201838
    H            0.496128539076    -1.501146062681     0.914305288168
    C           -2.004592919324    -0.740399271396    -0.000739016570
    H           -0.654974333917     0.676717676886    -0.886874648416
    H           -0.679840219533     0.722505625450     0.847203587738
    C           -3.244449619792     0.148148575209    -0.042201567907
    H           -2.019971129624    -1.415870574381    -0.852995546910
    H           -2.044915749914    -1.369577135969     0.885386145201
    C           -4.548297737858    -0.642677701742    -0.039491616850
    H           -3.205696574392     0.776060491700    -0.928009941827
    H           -3.230431785839     0.822638813579     0.809457190133
    H           -4.607967988311    -1.302208077940    -0.898885266182
    H           -5.407524858401     0.017286269822    -0.069438614422
    H           -4.632867836990    -1.255205288474     0.851995017772
    C            3.074713020074     1.799558473071    -0.078041136533
    H            3.608476795311     1.631521225499     0.845347087676
    H            2.831834127432     2.844372649421    -0.184114981012
    H            3.688100513975     1.472348289052    -0.904200746333

  Mulliken Charges: (a.u.)
   Center  Symbol    Alpha    Beta     Spin     Total
       1     O     4.20477  4.20477  0.00000 -0.40954
       2     C     2.81328  2.81328  0.00000  0.37343
       3     C     3.09352  3.09352  0.00000 -0.18703
       4     O     4.13963  4.13963  0.00000 -0.27927
       5     C     3.08342  3.08342  0.00000 -0.16684
       6     H     0.43912  0.43912  0.00000  0.12175
       7     H     0.43768  0.43768  0.00000  0.12464
       8     C     3.09100  3.09100  0.00000 -0.18200
       9     H     0.44808  0.44808  0.00000  0.10383
      10     H     0.44903  0.44903  0.00000  0.10195
      11     C     3.08423  3.08423  0.00000 -0.16846
      12     H     0.45450  0.45450  0.00000  0.09100
      13     H     0.45436  0.45436  0.00000  0.09127
      14     C     3.15029  3.15029  0.00000 -0.30058
      15     H     0.45396  0.45396  0.00000  0.09209
      16     H     0.45396  0.45396  0.00000  0.09209
      17     H     0.45482  0.45482  0.00000  0.09035
      18     H     0.44777  0.44777  0.00000  0.10446
      19     H     0.45479  0.45479  0.00000  0.09042
      20     C     3.03796  3.03796  0.00000 -0.07591
      21     H     0.45325  0.45325  0.00000  0.09351
      22     H     0.44730  0.44730  0.00000  0.10540
      23     H     0.45328  0.45328  0.00000  0.09344

   Total alpha = 36.00000, Total beta = 36.00000, Total charge = -0.00000

*** Psi4 exiting successfully. Buy a developer a beer!
