  ==> Input File <==

--------------------------------------------------------------------------
set {
	reference rhf
	basis cc-pvtz
}

set_num_threads( 4 )
memory 2 gb

molecule MOL {
0 1

H	 2.138171	 1.131839	 -1.055928
O	 1.269625	 0.761738	 -1.104807
C	 1.050374	 0.054877	 0.000135
C	 -0.318151	 -0.570512	 0.000144
O	 1.860974	 -0.044039	 0.855186
C	 -1.454884	 0.441630	 -0.000560
H	 -0.371613	 -1.223646	 -0.864985
H	 -0.371920	 -1.222758	 0.865929
C	 -2.822577	 -0.232186	 0.000063
H	 -1.359760	 1.084704	 -0.867077
H	 -1.359641	 1.085996	 0.864983
H	 -2.954352	 -0.858985	 -0.875745
H	 -3.615886	 0.505352	 0.000019
H	 -2.953878	 -0.858359	 0.876394

	symmetry c1
}
set optking {
	frozen_dihedral = ("
		2 3 4 7
	")
}

ee = optimize('scf')
oeprop('DIPOLE', 'QUADRUPOLE', 'MULLIKEN_CHARGES')
f=open( 'psi4out.xyz', 'w' )
f.write( "14  " )
f.write( str(ee) + "\n" )
f.write( MOL.save_string_xyz() )
f.close()
--------------------------------------------------------------------------

    Molecular point group: c1
  Charge       = 0
  Multiplicity = 1
  Basis Set: CC-PVTZ
  Basis Set:
  @DF-RHF Final Energy:  -305.99934455143364
    Total Energy =                       -305.9993445514338077
    Molecular point group: c1
  Basis Set: CC-PVTZ
  Basis Set:
  Basis Set: CC-PVTZ
  Basis Set:
  @DF-RHF Final Energy:  -305.99965157244958
    Total Energy =                       -305.9996515724492383
  Basis Set: CC-PVTZ
  Basis Set:
  Basis Set: CC-PVTZ
  Basis Set:
  @DF-RHF Final Energy:  -305.99966195344905
    Total Energy =                       -305.9996619534490492
  Basis Set: CC-PVTZ
  Basis Set:
  Basis Set: CC-PVTZ
  Basis Set:
  @DF-RHF Final Energy:  -305.99963742369687
    Total Energy =                       -305.9996374236969814
  Basis Set: CC-PVTZ
  Basis Set:
  Charge       = 0
  Multiplicity = 1
  Basis Set: CC-PVTZ
  Basis Set:

    Orbital Energies (a.u.)
    -----------------------

    Doubly Occupied:

       1A    -20.604830     2A    -20.539672     3A    -11.372884
       4A    -11.238590     5A    -11.232927     6A    -11.219167
       7A     -1.477572     8A     -1.368366     9A     -1.087661
      10A     -0.980747    11A     -0.850700    12A     -0.815222
      13A     -0.705458    14A     -0.688032    15A     -0.650591
      16A     -0.632458    17A     -0.595915    18A     -0.566890
      19A     -0.553670    20A     -0.521519    21A     -0.501142
      22A     -0.488839    23A     -0.477973    24A     -0.440812

  @DF-RHF Final Energy:  -305.99966738090404

   => Energetics <=

    Nuclear Repulsion Energy =            240.9149097050390367
    One-Electron Energy =                -894.6058795167157314
    Two-Electron Energy =                 347.6913024307726801
    DFT Exchange-Correlation Energy =       0.0000000000000000
    Empirical Dispersion Energy =           0.0000000000000000
    PCM Polarization Energy =               0.0000000000000000
    EFP Energy =                            0.0000000000000000
    Total Energy =                       -305.9996673809040431
    Molecular point group: c1
  Basis Set: CC-PVTZ
  Basis Set:

  -Total Gradient:
     Atom            X                  Y                   Z
    ------   -----------------  -----------------  -----------------
       1       -0.000021454443    -0.000035690483     0.000019719961
       2       -0.000151315457     0.000374185309     0.000034829617
       3        0.000393733974    -0.000552396984     0.000016300931
       4       -0.000311768128     0.000486097211    -0.000194647612
       5       -0.000115692981     0.000022665196    -0.000070040180
       6        0.000079851750    -0.000045929585     0.000010590485
       7        0.000167278218    -0.000306821825     0.000174362474
       8        0.000009666806     0.000064939325    -0.000018024667
       9       -0.000044815943    -0.000022551575    -0.000012588258
      10        0.000002747181    -0.000013829138     0.000011827291
      11        0.000004837645     0.000050319770     0.000033984707
      12       -0.000020335205    -0.000016002915    -0.000004057790
      13        0.000022598241    -0.000001420142    -0.000000784796
      14       -0.000015331657    -0.000003564163    -0.000001472163

  **** Optimization is complete! (in 5 steps) ****
    Final optimized geometry and variables:
    Molecular point group: c1

    Geometry (in Angstrom), charge = 0, multiplicity = 1:

    H            2.179538579286     1.077160495106    -0.961170605971
    O            1.311679988244     0.708157115003    -1.027125405389
    C            1.087552629376    -0.033005612941     0.054724000918
    C           -0.277117869668    -0.665926346153     0.048419561309
    O            1.896305302398    -0.157375336055     0.908602892292
    C           -1.415625265668     0.358071956379     0.036493900095
    H           -0.343404483241    -1.299266683384    -0.830181109845
    H           -0.337017921375    -1.296358558576     0.923554301727
    C           -2.784615441136    -0.311811942420     0.068049354301
    H           -1.330952572135     0.980272521145    -0.845471232646
    H           -1.313245322709     1.014510207210     0.894916515311
    H           -2.926114921669    -0.953546895051    -0.794973815042
    H           -3.575979545615     0.427901224618     0.064049066947
    H           -2.904039669556    -0.920725798064     0.957423826632

  Mulliken Charges: (a.u.)
   Center  Symbol    Alpha    Beta     Spin     Total
       1     H     0.38056  0.38056  0.00000  0.23889
       2     O     4.16364  4.16364  0.00000 -0.32729
       3     C     2.80780  2.80780  0.00000  0.38440
       4     C     3.08688  3.08688  0.00000 -0.17376
       5     O     4.19367  4.19367  0.00000 -0.38733
       6     C     3.09304  3.09304  0.00000 -0.18608
       7     H     0.44539  0.44539  0.00000  0.10922
       8     H     0.43638  0.43638  0.00000  0.12724
       9     C     3.14983  3.14983  0.00000 -0.29965
      10     H     0.44249  0.44249  0.00000  0.11502
      11     H     0.44791  0.44791  0.00000  0.10419
      12     H     0.45399  0.45399  0.00000  0.09201
      13     H     0.44566  0.44566  0.00000  0.10869
      14     H     0.45277  0.45277  0.00000  0.09446

   Total alpha = 24.00000, Total beta = 24.00000, Total charge = -0.00000
