                              Psi4 1.0.54 Driver

  ==> Input File <==

--------------------------------------------------------------------------
set {
	reference rhf
	basis cc-pvtz
}

set_num_threads( 4 )
memory 2 gb

molecule MOL {
0 1

H	 -3.727621	 0.481534	 1.550325
O	 -3.022078	 -0.075862	 1.278823
C	 -2.302264	 0.528872	 0.237390
C	 -1.175688	 -0.398187	 -0.171891
H	 -2.952439	 0.720185	 -0.613753
H	 -1.896083	 1.485119	 0.560557
C	 0.196029	 0.106276	 0.266738
H	 -1.201873	 -0.515469	 -1.250677
H	 -1.365975	 -1.378728	 0.252664
C	 1.330220	 -0.826136	 -0.155230
H	 0.359542	 1.097229	 -0.145561
H	 0.212134	 0.218135	 1.348778
C	 2.719700	 -0.407669	 0.328325
H	 1.339388	 -0.911200	 -1.239363
H	 1.119001	 -1.821953	 0.224128
C	 3.241564	 0.893452	 -0.276737
H	 3.418299	 -1.204729	 0.093035
H	 2.711776	 -0.323368	 1.411960
H	 3.254204	 0.841071	 -1.360784
H	 2.634460	 1.745075	 0.005842
H	 4.254264	 1.092401	 0.054971

	symmetry c1
}
set optking {
	frozen_dihedral = ("
		2 3 4 8
	")
}

ee,wfn = optimize('scf', return_wfn=True)
oeprop( wfn, 'DIPOLE', 'QUADRUPOLE', 'MULLIKEN_CHARGES')
f=open( 'psi4out.xyz', 'w' )
f.write( "21  " )
f.write( str(ee) + "\n" )
f.write( MOL.save_string_xyz() )
f.close()
--------------------------------------------------------------------------

    Molecular point group: c1
  Charge       = 0
  Multiplicity = 1
  Basis Set: CC-PVTZ
  Basis Set:
  @DF-RHF Final Energy:  -310.32756156636214
    Total Energy =                       -310.3275615663623626
    Molecular point group: c1
  Basis Set: CC-PVTZ
  Basis Set:
  Basis Set: CC-PVTZ
  Basis Set:
  @DF-RHF Final Energy:  -310.32797104310276
    Total Energy =                       -310.3279710431028207
  Basis Set: CC-PVTZ
  Basis Set:
  Basis Set: CC-PVTZ
  Basis Set:
  @DF-RHF Final Energy:  -310.32808741982177
    Total Energy =                       -310.3280874198215997
  Basis Set: CC-PVTZ
  Basis Set:
  Charge       = 0
  Multiplicity = 1
  Basis Set: CC-PVTZ
  Basis Set:

    Orbital Energies (a.u.)
    -----------------------

    Doubly Occupied:

       1A    -20.545259     2A    -11.265350     3A    -11.211517
       4A    -11.210148     5A    -11.209151     6A    -11.208842
       7A    -11.204932     8A     -1.362277     9A     -1.084663
      10A     -1.031450    11A     -0.954232    12A     -0.876665
      13A     -0.806780    14A     -0.777412    15A     -0.705286
      16A     -0.639815    17A     -0.632669    18A     -0.602884
      19A     -0.585820    20A     -0.571751    21A     -0.535667
      22A     -0.524662    23A     -0.508576    24A     -0.485542
      25A     -0.482134    26A     -0.460196    27A     -0.454729
      28A     -0.449205    29A     -0.425886

  @DF-RHF Final Energy:  -310.32808744548470

   => Energetics <=

    Nuclear Repulsion Energy =            314.1232727581714244
    One-Electron Energy =               -1043.2757205794341644
    Two-Electron Energy =                 418.8243603757781557
    DFT Exchange-Correlation Energy =       0.0000000000000000
    Empirical Dispersion Energy =           0.0000000000000000
    PCM Polarization Energy =               0.0000000000000000
    EFP Energy =                            0.0000000000000000
    Total Energy =                       -310.3280874454845844
    Molecular point group: c1
  Basis Set: CC-PVTZ
  Basis Set:

  -Total Gradient:
     Atom            X                  Y                   Z
    ------   -----------------  -----------------  -----------------
       1       -0.000047469797     0.000000274299     0.000007152541
       2       -0.001410966098    -0.001096172439    -0.001698630404
       3        0.001327988917     0.000801915546     0.002299488482
       4        0.002001869433     0.002810923618    -0.000918741981
       5        0.000019594533    -0.000001553886    -0.000001853807
       6        0.000019949265     0.000012693038     0.000012102750
       7        0.000092294480     0.000055658712    -0.000015049206
       8       -0.001895369532    -0.002618268599     0.000354432740
       9       -0.000056429031     0.000004836212     0.000000974060
      10       -0.000063062235     0.000045576606    -0.000061427802
      11       -0.000068501614    -0.000063364823    -0.000000175162
      12       -0.000005887942     0.000003618533    -0.000008201591
      13       -0.000053275239     0.000062691698     0.000091528582
      14       -0.000001718898     0.000035558938    -0.000020342736
      15        0.000012096317    -0.000020785383    -0.000042011815
      16        0.000046466949    -0.000001425229    -0.000007225247
      17       -0.000006935158    -0.000013408808     0.000030109536
      18       -0.000001721004     0.000034058360     0.000008390423
      19       -0.000006636509     0.000012139881    -0.000023599079
      20        0.000095505602    -0.000044644593     0.000012059106
      21        0.000002207555    -0.000020321680    -0.000018979393

  **** Optimization is complete! (in 4 steps) ****
    Final optimized geometry and variables:
    Molecular point group: c1

    Geometry (in Angstrom), charge = 0, multiplicity = 1:

    H           -3.799233363342     0.479370620417     1.319282953495
    O           -3.110873012470    -0.080197632619     1.009814525427
    C           -2.409854127378     0.551589122267    -0.032745226498
    C           -1.247262753633    -0.345955779665    -0.460563729770
    H           -3.079376883901     0.724023263644    -0.870625928646
    H           -2.040793471396     1.520708988688     0.292746716413
    C            0.121096132919     0.139740862070     0.008886745655
    H           -1.254942862582    -0.469671391280    -1.538769659638
    H           -1.443252143543    -1.330337459699    -0.050977306592
    C            1.250898928312    -0.814512946788    -0.370461181231
    H            0.310209216705     1.124453764257    -0.407532107140
    H            0.099546764229     0.260462915680     1.089294172134
    C            2.631956278799    -0.417772523763     0.154418782018
    H            1.293741808775    -0.908704790165    -1.453494395595
    H            1.009503561747    -1.803296032917     0.009304407635
    C            3.205320376124     0.858926282032    -0.455939257242
    H            3.320082206599    -1.234579080533    -0.040670618210
    H            2.587312461537    -0.312080425134     1.235132272097
    H            3.252028655404     0.786299505953    -1.537949797531
    H            2.610732896102     1.729993624357    -0.208495849978
    H            4.211354286477     1.039363532769    -0.094631446987

  Mulliken Charges: (a.u.)
   Center  Symbol    Alpha    Beta     Spin     Total
       1     H     0.39544  0.39544  0.00000  0.20912
       2     O     4.19865  4.19865  0.00000 -0.39730
       3     C     2.96589  2.96589  0.00000  0.06821
       4     C     3.09145  3.09145  0.00000 -0.18290
       5     H     0.47109  0.47109  0.00000  0.05783
       6     H     0.47596  0.47596  0.00000  0.04809
       7     C     3.09714  3.09714  0.00000 -0.19427
       8     H     0.45184  0.45184  0.00000  0.09632
       9     H     0.44667  0.44667  0.00000  0.10666
      10     C     3.09654  3.09654  0.00000 -0.19308
      11     H     0.45468  0.45468  0.00000  0.09064
      12     H     0.45027  0.45027  0.00000  0.09947
      13     C     3.08992  3.08992  0.00000 -0.17983
      14     H     0.45483  0.45483  0.00000  0.09034
      15     H     0.44800  0.44800  0.00000  0.10400
      16     C     3.15227  3.15227  0.00000 -0.30454
      17     H     0.44877  0.44877  0.00000  0.10245
      18     H     0.45442  0.45442  0.00000  0.09115
      19     H     0.45528  0.45528  0.00000  0.08944
      20     H     0.45427  0.45427  0.00000  0.09146
      21     H     0.44663  0.44663  0.00000  0.10674

   Total alpha = 29.00000, Total beta = 29.00000, Total charge = -0.00000

*** Psi4 exiting successfully. Buy a developer a beer!
