  ==> Input File <==

--------------------------------------------------------------------------
set {
	reference rhf
	basis 6-31G*
}

set_num_threads( 4 )
memory 2 gb

molecule MOL {
0 1

H	 1.818615	 -0.715299	 1.541663
C	 1.911202	 -0.187923	 0.584530
C	 0.692068	 0.589600	 0.160137
O	 2.921119	 -0.254401	 -0.038188
C	 -0.558097	 -0.297372	 0.091132
H	 0.900974	 1.053489	 -0.796757
H	 0.532408	 1.381618	 0.890922
C	 -1.850991	 0.512573	 -0.019058
H	 -0.476753	 -0.965681	 -0.762987
H	 -0.604799	 -0.930658	 0.975228
C	 -3.096943	 -0.368295	 -0.099594
H	 -1.800724	 1.150330	 -0.898172
H	 -1.931651	 1.177355	 0.838044
H	 -3.060452	 -1.020287	 -0.967456
H	 -3.996858	 0.233488	 -0.175704
H	 -3.191959	 -0.995686	 0.782074

	symmetry c1
}
set optking {
	frozen_dihedral = ("
		6 3 5 9
	")
}

ee = optimize('scf')
oeprop('DIPOLE', 'QUADRUPOLE', 'MULLIKEN_CHARGES')
f=open( 'psi4out.xyz', 'w' )
f.write( "16  " )
f.write( str(ee) + "\n" )
f.write( MOL.save_string_xyz() )
f.close()
--------------------------------------------------------------------------

    Molecular point group: c1
  Charge       = 0
  Multiplicity = 1
  Basis Set: 6-31G*
  Basis Set:
  @DF-RHF Final Energy:  -270.01951281555637
    Total Energy =                       -270.0195128155563680
    Molecular point group: c1
  Basis Set: 6-31G*
  Basis Set:
  Basis Set: 6-31G*
  Basis Set:
  @DF-RHF Final Energy:  -270.01952464580950
    Total Energy =                       -270.0195246458094971
  Basis Set: 6-31G*
  Basis Set:
  Basis Set: 6-31G*
  Basis Set:
  @DF-RHF Final Energy:  -270.01927209063126
    Total Energy =                       -270.0192720906313752
  Basis Set: 6-31G*
  Basis Set:
  Basis Set: 6-31G*
  Basis Set:
  @DF-RHF Final Energy:  -270.01955738739741
    Total Energy =                       -270.0195573873975263
  Basis Set: 6-31G*
  Basis Set:
  Basis Set: 6-31G*
  Basis Set:
  @DF-RHF Final Energy:  -270.01955969554592
    Total Energy =                       -270.0195596955459791
  Basis Set: 6-31G*
  Basis Set:
  Basis Set: 6-31G*
  Basis Set:
  @DF-RHF Final Energy:  -270.01956212916531
    Total Energy =                       -270.0195621291653083
  Basis Set: 6-31G*
  Basis Set:
  Charge       = 0
  Multiplicity = 1
  Basis Set: 6-31G*
  Basis Set:

    Orbital Energies (a.u.)
    -----------------------

    Doubly Occupied:

       1A    -20.562548     2A    -11.326497     3A    -11.236644
       4A    -11.235298     5A    -11.229346     6A    -11.218486
       7A     -1.402400     8A     -1.096439     9A     -1.018833
      10A     -0.906018    11A     -0.812266    12A     -0.793533
      13A     -0.677343    14A     -0.648790    15A     -0.628726
      16A     -0.603173    17A     -0.581225    18A     -0.551876
      19A     -0.528792    20A     -0.507979    21A     -0.487376
      22A     -0.481606    23A     -0.479394    24A     -0.408882

  @DF-RHF Final Energy:  -270.01956228843233

   => Energetics <=

    Nuclear Repulsion Energy =            228.8128787467761924
    One-Electron Energy =                -818.8179402167875196
    Two-Electron Energy =                 319.9854991815791436
    DFT Exchange-Correlation Energy =       0.0000000000000000
    Empirical Dispersion Energy =           0.0000000000000000
    PCM Polarization Energy =               0.0000000000000000
    EFP Energy =                            0.0000000000000000
    Total Energy =                       -270.0195622884322120
    Molecular point group: c1
  Basis Set: 6-31G*
  Basis Set:

  -Total Gradient:
     Atom            X                  Y                   Z
    ------   -----------------  -----------------  -----------------
       1       -0.000000572770    -0.000003935125    -0.000003573430
       2        0.000018566334    -0.000003376687    -0.000000937755
       3       -0.001644981650     0.002202702945     0.000363479944
       4        0.000000911750     0.000012778885     0.000008242086
       5        0.001383490212    -0.001990094511     0.001241128248
       6        0.001119520837    -0.001539055302    -0.000493037888
       7        0.000012818834     0.000011015221     0.000000916226
       8       -0.000007489466     0.000001092341     0.000006380081
       9       -0.000878401618     0.001303266022    -0.001116757297
      10       -0.000005399471     0.000002559952    -0.000005643842
      11        0.000001468732     0.000002483511    -0.000002829148
      12       -0.000004514138    -0.000001701072    -0.000000753645
      13        0.000004799456     0.000002867620     0.000000378643
      14        0.000001774184    -0.000002401305     0.000002766377
      15       -0.000000406254    -0.000000070179    -0.000002077469
      16       -0.000001584982     0.000001867685     0.000002318867

  **** Optimization is complete! (in 7 steps) ****
    Final optimized geometry and variables:
    Molecular point group: c1

    Geometry (in Angstrom), charge = 0, multiplicity = 1:

    H            1.844510629455    -0.697898014493     1.429567643940
    C            1.917769545210    -0.178303623496     0.466549950562
    C            0.692625233520     0.603536726436     0.064960843851
    O            2.911398706186    -0.257423200433    -0.180246561603
    C           -0.557623984557    -0.285616507652     0.008923475936
    H            0.894479112335     1.060202878679    -0.896603746575
    H            0.548436182827     1.393452685387     0.800675098173
    C           -1.850744572216     0.522890443259    -0.118384053627
    H           -0.476160154286    -0.957546787968    -0.841713402264
    H           -0.610465049611    -0.907872377331     0.900313765491
    C           -3.094019934570    -0.359732029494    -0.216183128033
    H           -1.789456596293     1.161158157755    -0.996665109539
    H           -1.944026152730     1.187476575735     0.737599051661
    H           -3.045676330496    -1.010785118444    -1.084153471657
    H           -3.993852373360     0.240732167605    -0.302948841182
    H           -3.199325794601    -0.988517331141     0.663348589663

  Mulliken Charges: (a.u.)
   Center  Symbol    Alpha    Beta     Spin     Total
       1     H     0.43221  0.43221  0.00000  0.13558
       2     C     2.83045  2.83045  0.00000  0.33911
       3     C     3.20773  3.20773  0.00000 -0.41547
       4     O     4.23688  4.23688  0.00000 -0.47376
       5     C     3.16447  3.16447  0.00000 -0.32895
       6     H     0.39886  0.39886  0.00000  0.20228
       7     H     0.40981  0.40981  0.00000  0.18037
       8     C     3.15191  3.15191  0.00000 -0.30383
       9     H     0.41199  0.41199  0.00000  0.17602
      10     H     0.41912  0.41912  0.00000  0.16176
      11     C     3.24053  3.24053  0.00000 -0.48107
      12     H     0.41864  0.41864  0.00000  0.16273
      13     H     0.42110  0.42110  0.00000  0.15780
      14     H     0.41930  0.41930  0.00000  0.16139
      15     H     0.41644  0.41644  0.00000  0.16712
      16     H     0.42054  0.42054  0.00000  0.15892

   Total alpha = 24.00000, Total beta = 24.00000, Total charge =  0.00000
