                              Psi4 1.0.54 Driver

  ==> Input File <==

--------------------------------------------------------------------------
set {
	reference rhf
	basis cc-pvtz
}

set_num_threads( 4 )
memory 2 gb

molecule MOL {
0 1

O	 -0.658400	 -0.924805	 1.393072
C	 -0.477132	 0.028016	 0.690226
C	 -1.503754	 1.141000	 0.643910
N	 0.622280	 0.144970	 -0.099307
H	 -1.889474	 1.280502	 -0.358140
H	 -2.310821	 0.862435	 1.300824
H	 -1.081462	 2.081379	 0.976073
C	 1.664396	 -0.854993	 0.000772
C	 0.994250	 1.356920	 -0.789648
H	 2.462727	 -0.615153	 -0.690869
H	 1.261798	 -1.821849	 -0.240651
H	 2.081615	 -0.891605	 1.003877
H	 1.492889	 1.100271	 -1.715459
H	 0.133697	 1.953977	 -1.038380
H	 1.677142	 1.965892	 -0.201553

	symmetry c1
}
set optking {
	frozen_dihedral = ("
		2 4 8 10
	")
}

ee,wfn = optimize('scf', return_wfn=True)
oeprop( wfn, 'DIPOLE', 'QUADRUPOLE', 'MULLIKEN_CHARGES')
f=open( 'psi4out.xyz', 'w' )
f.write( "15  " )
f.write( str(ee) + "\n" )
f.write( MOL.save_string_xyz() )
f.close()
--------------------------------------------------------------------------

    Molecular point group: c1
  Charge       = 0
  Multiplicity = 1
  Basis Set: CC-PVTZ
  Basis Set:
  @DF-RHF Final Energy:  -286.13425845188181
    Total Energy =                       -286.1342584518820331
    Molecular point group: c1
  Basis Set: CC-PVTZ
  Basis Set:
  Basis Set: CC-PVTZ
  Basis Set:
  @DF-RHF Final Energy:  -286.13481778134707
    Total Energy =                       -286.1348177813470102
  Basis Set: CC-PVTZ
  Basis Set:
  Basis Set: CC-PVTZ
  Basis Set:
  @DF-RHF Final Energy:  -286.13487935063159
    Total Energy =                       -286.1348793506313086
  Basis Set: CC-PVTZ
  Basis Set:
  Basis Set: CC-PVTZ
  Basis Set:
  @DF-RHF Final Energy:  -286.13483390021395
    Total Energy =                       -286.1348339002140619
  Basis Set: CC-PVTZ
  Basis Set:
  Basis Set: CC-PVTZ
  Basis Set:
  @DF-RHF Final Energy:  -286.13491379228498
    Total Energy =                       -286.1349137922848058
  Basis Set: CC-PVTZ
  Basis Set:
  Basis Set: CC-PVTZ
  Basis Set:
  @DF-RHF Final Energy:  -286.13491479446998
    Total Energy =                       -286.1349147944698075
  Basis Set: CC-PVTZ
  Basis Set:
  Basis Set: CC-PVTZ
  Basis Set:
  @DF-RHF Final Energy:  -286.13491642258134
    Total Energy =                       -286.1349164225817390
  Basis Set: CC-PVTZ
  Basis Set:
  Charge       = 0
  Multiplicity = 1
  Basis Set: CC-PVTZ
  Basis Set:

    Orbital Energies (a.u.)
    -----------------------

    Doubly Occupied:

       1A    -20.503551     2A    -15.577259     3A    -11.332578
       4A    -11.264639     5A    -11.247309     6A    -11.226426
       7A     -1.387401     8A     -1.244079     9A     -1.014444
      10A     -0.974107    11A     -0.919742    12A     -0.738316
      13A     -0.681569    14A     -0.660095    15A     -0.653585
      16A     -0.588213    17A     -0.576981    18A     -0.570733
      19A     -0.566035    20A     -0.547105    21A     -0.531497
      22A     -0.501863    23A     -0.413886    24A     -0.370177

  @DF-RHF Final Energy:  -286.13491676461297

   => Energetics <=

    Nuclear Repulsion Energy =            253.0923985846842754
    One-Electron Energy =                -890.2714464585033056
    Two-Electron Energy =                 351.0441311092060914
    DFT Exchange-Correlation Energy =       0.0000000000000000
    Empirical Dispersion Energy =           0.0000000000000000
    PCM Polarization Energy =               0.0000000000000000
    EFP Energy =                            0.0000000000000000
    Total Energy =                       -286.1349167646129672
    Molecular point group: c1
  Basis Set: CC-PVTZ
  Basis Set:

  -Total Gradient:
     Atom            X                  Y                   Z
    ------   -----------------  -----------------  -----------------
       1        0.000052132679     0.000089356191    -0.000072397232
       2        0.000278873250     0.000397437869     0.000763159949
       3        0.000022716288    -0.000034349556    -0.000049750710
       4       -0.000420089305    -0.000515707807    -0.000800036168
       5        0.000002616942     0.000021015861     0.000000270087
       6        0.000007786254     0.000002689001     0.000001000871
       7        0.000004820657     0.000011428465     0.000002376219
       8       -0.000378768315    -0.000513534007    -0.000616568229
       9       -0.000046657769    -0.000073894386     0.000084633050
      10        0.000443377252     0.000559228517     0.000718701310
      11        0.000005089159     0.000001001631    -0.000001058452
      12        0.000002607702     0.000000894407    -0.000007210586
      13        0.000015438399     0.000004472570    -0.000015012724
      14       -0.000013379817     0.000021455190    -0.000011800745
      15        0.000023436624     0.000028506054     0.000003693358

  **** Optimization is complete! (in 8 steps) ****
    Final optimized geometry and variables:
    Molecular point group: c1

    Geometry (in Angstrom), charge = 0, multiplicity = 1:

    O           -0.734837699728    -1.086603598056     1.076205118449
    C           -0.590097035695    -0.124930549686     0.376223169559
    C           -1.643949880882     0.961390685648     0.339836129625
    N            0.504518150897     0.007737116031    -0.412959333057
    H           -2.025602550836     1.109149652258    -0.662548851182
    H           -2.448665057336     0.652869720040     0.986377033418
    H           -1.246772040571     1.905772851747     0.691628619678
    C            1.538077507866    -1.001325538195    -0.267804524128
    C            0.867674319571     1.224364675883    -1.101049517074
    H            2.344219190263    -0.774526155058    -0.950343712349
    H            1.147565851547    -1.982843307738    -0.490395033670
    H            1.934131153759    -1.021461250710     0.740560964304
    H            1.320696105121     0.981488072477    -2.053358590472
    H            0.003099121242     1.834263968973    -1.299752379589
    H            1.579322917024     1.817695535902    -0.531807483840

  Mulliken Charges: (a.u.)
   Center  Symbol    Alpha    Beta     Spin     Total
       1     O     4.22009  4.22009  0.00000 -0.44018
       2     C     2.84574  2.84574  0.00000  0.30851
       3     C     3.15996  3.15996  0.00000 -0.31992
       4     N     3.56219  3.56219  0.00000 -0.12437
       5     H     0.44895  0.44895  0.00000  0.10210
       6     H     0.42890  0.42890  0.00000  0.14219
       7     H     0.44927  0.44927  0.00000  0.10146
       8     C     3.08996  3.08996  0.00000 -0.17992
       9     C     3.09830  3.09830  0.00000 -0.19660
      10     H     0.45789  0.45789  0.00000  0.08422
      11     H     0.44022  0.44022  0.00000  0.11956
      12     H     0.44960  0.44960  0.00000  0.10079
      13     H     0.44860  0.44860  0.00000  0.10280
      14     H     0.44580  0.44580  0.00000  0.10840
      15     H     0.45452  0.45452  0.00000  0.09095

   Total alpha = 24.00000, Total beta = 24.00000, Total charge = -0.00000

*** Psi4 exiting successfully. Buy a developer a beer!
