  ==> Input File <==

--------------------------------------------------------------------------
set {
	reference rhf
	basis 6-31G*
}

set_num_threads( 4 )
memory 2 gb

molecule MOL {
0 1

H	 -3.135461	 -1.215070	 0.001379
O	 -2.310168	 -0.871793	 -0.309793
C	 -2.026376	 0.340750	 0.341611
C	 -0.673256	 0.843270	 -0.132153
H	 -2.792215	 1.080697	 0.115987
H	 -2.013526	 0.200402	 1.421792
C	 0.486613	 -0.083066	 0.235839
H	 -0.715586	 0.970948	 -1.210718
H	 -0.508072	 1.829858	 0.297090
C	 1.840406	 0.433480	 -0.254303
H	 0.300215	 -1.068318	 -0.178947
H	 0.519509	 -0.203625	 1.318070
C	 2.709054	 0.989984	 0.873272
H	 2.372937	 -0.372769	 -0.754394
H	 1.684470	 1.206741	 -1.004100
H	 2.911735	 0.229791	 1.622216
H	 3.663036	 1.346584	 0.496842
H	 2.218737	 1.821394	 1.372128

	symmetry c1
}
set optking {
	frozen_dihedral = ("
		14 10 7 11
	")
}

ee = optimize('scf')
oeprop('DIPOLE', 'QUADRUPOLE', 'MULLIKEN_CHARGES')
f=open( 'psi4out.xyz', 'w' )
f.write( "18  " )
f.write( str(ee) + "\n" )
f.write( MOL.save_string_xyz() )
f.close()
--------------------------------------------------------------------------

    Molecular point group: c1
  Charge       = 0
  Multiplicity = 1
  Basis Set: 6-31G*
  Basis Set:
  @DF-RHF Final Energy:  -271.17459794564866
    Total Energy =                       -271.1745979456488840
    Molecular point group: c1
  Basis Set: 6-31G*
  Basis Set:
  Basis Set: 6-31G*
  Basis Set:
  @DF-RHF Final Energy:  -271.17490281986346
    Total Energy =                       -271.1749028198635187
  Basis Set: 6-31G*
  Basis Set:
  Basis Set: 6-31G*
  Basis Set:
  @DF-RHF Final Energy:  -271.17499103877844
    Total Energy =                       -271.1749910387786144
  Basis Set: 6-31G*
  Basis Set:
  Charge       = 0
  Multiplicity = 1
  Basis Set: 6-31G*
  Basis Set:

    Orbital Energies (a.u.)
    -----------------------

    Doubly Occupied:

       1A    -20.553002     2A    -11.267890     3A    -11.212540
       4A    -11.210558     5A    -11.206239     6A    -11.206137
       7A     -1.359701     8A     -1.073192     9A     -1.007623
      10A     -0.913288    11A     -0.822459    12A     -0.781384
      13A     -0.704950    14A     -0.637036    15A     -0.614820
      16A     -0.601024    17A     -0.570600    18A     -0.548476
      19A     -0.519387    20A     -0.507205    21A     -0.493501
      22A     -0.463611    23A     -0.452605    24A     -0.447672
      25A     -0.428592

  @DF-RHF Final Energy:  -271.17499099399174

   => Energetics <=

    Nuclear Repulsion Energy =            249.8074899087865788
    One-Electron Energy =                -862.7579762281629883
    Two-Electron Energy =                 341.7754953253844974
    DFT Exchange-Correlation Energy =       0.0000000000000000
    Empirical Dispersion Energy =           0.0000000000000000
    PCM Polarization Energy =               0.0000000000000000
    EFP Energy =                            0.0000000000000000
    Total Energy =                       -271.1749909939919121
    Molecular point group: c1
  Basis Set: 6-31G*
  Basis Set:

  -Total Gradient:
     Atom            X                  Y                   Z
    ------   -----------------  -----------------  -----------------
       1       -0.000003687714     0.000004516635    -0.000002555721
       2       -0.000089673134     0.000059901017    -0.000020923856
       3        0.000097624590    -0.000077290055     0.000172076238
       4        0.000041006523     0.000045213092    -0.000173950793
       5       -0.000000920494    -0.000033544973    -0.000013133714
       6       -0.000042483224    -0.000012230308     0.000016128546
       7       -0.001735844841     0.001676281027    -0.003384019578
       8        0.000010486890    -0.000008203225    -0.000028265332
       9        0.000013909709    -0.000018345317    -0.000039635200
      10        0.001646091161    -0.001219801646     0.003651424174
      11        0.001243984766    -0.001135869126     0.002208844136
      12        0.000021988871    -0.000005116616     0.000033297069
      13       -0.000015367118    -0.000017380737     0.000062359347
      14       -0.001148474553     0.000761939435    -0.002433099808
      15       -0.000025444944     0.000002541076    -0.000004910403
      16        0.000005048501    -0.000000830573     0.000002447924
      17       -0.000012010177    -0.000003914650    -0.000034623527
      18       -0.000006234811    -0.000017865055    -0.000011459500

  **** Optimization is complete! (in 4 steps) ****
    Final optimized geometry and variables:
    Molecular point group: c1

    Geometry (in Angstrom), charge = 0, multiplicity = 1:

    H           -3.105990320731    -1.441900877929    -0.077159645649
    O           -2.281765353143    -1.114451009235    -0.407657990808
    C           -1.968263258759     0.101251620324     0.223915560183
    C           -0.619390366202     0.580522802354    -0.284054546644
    H           -2.729095074458     0.848691738211     0.005899951659
    H           -1.934487455605    -0.027109391436     1.305139841465
    C            0.536095095564    -0.359383534824     0.063972670289
    H           -0.682132140908     0.701852115862    -1.362183447173
    H           -0.430042612016     1.567560817681     0.134688467386
    C            1.913738246812     0.173952932264    -0.382832221206
    H            0.350113674375    -1.336378528740    -0.365666952839
    H            0.546756008870    -0.515311346754     1.141963279093
    C            2.747553219578     0.751503895747     0.760495535409
    H            2.471214335627    -0.612387404193    -0.883490499137
    H            1.772648898458     0.944651967021    -1.137790806786
    H            2.974031244345    -0.009078697620     1.502192008849
    H            3.689192655287     1.153547297937     0.398848886367
    H            2.217419786486     1.555099587548     1.264967662107

  Mulliken Charges: (a.u.)
   Center  Symbol    Alpha    Beta     Spin     Total
       1     H     0.28059  0.28059  0.00000  0.43882
       2     O     4.36961  4.36961  0.00000 -0.73922
       3     C     2.99769  2.99769  0.00000  0.00462
       4     C     3.16154  3.16154  0.00000 -0.32309
       5     H     0.42933  0.42933  0.00000  0.14133
       6     H     0.43249  0.43249  0.00000  0.13502
       7     C     3.15735  3.15735  0.00000 -0.31469
       8     H     0.41443  0.41443  0.00000  0.17114
       9     H     0.42406  0.42406  0.00000  0.15189
      10     C     3.15580  3.15580  0.00000 -0.31159
      11     H     0.40518  0.40518  0.00000  0.18965
      12     H     0.42563  0.42563  0.00000  0.14874
      13     C     3.23907  3.23907  0.00000 -0.47813
      14     H     0.41945  0.41945  0.00000  0.16110
      15     H     0.42205  0.42205  0.00000  0.15589
      16     H     0.42149  0.42149  0.00000  0.15703
      17     H     0.42072  0.42072  0.00000  0.15856
      18     H     0.42353  0.42353  0.00000  0.15295

   Total alpha = 25.00000, Total beta = 25.00000, Total charge = -0.00000
