                              Psi4 1.0.54 Driver

  ==> Input File <==

--------------------------------------------------------------------------
set {
	reference rhf
	basis cc-pvtz
}

set_num_threads( 4 )
memory 2 gb

molecule MOL {
0 1

O	 -2.071633	 -1.227563	 -0.223463
C	 -1.652164	 -0.152425	 0.058082
C	 -0.327811	 0.006324	 0.778296
C	 -2.402515	 1.108629	 -0.298924
C	 0.843231	 -0.001575	 -0.211665
H	 -0.319484	 0.928173	 1.350354
H	 -0.227804	 -0.823091	 1.466705
C	 0.464670	 -0.590858	 -1.567271
H	 1.673019	 -0.567160	 0.204579
H	 1.195402	 1.016089	 -0.340897
C	 1.622804	 -0.589228	 -2.559181
H	 0.107012	 -1.607741	 -1.431061
H	 -0.366340	 -0.027273	 -1.981197
H	 2.457426	 -1.174804	 -2.188315
H	 1.981199	 0.418391	 -2.739807
H	 1.322002	 -1.009280	 -3.511796
H	 -3.240910	 0.874416	 -0.936711
H	 -1.747554	 1.818823	 -0.790984
H	 -2.760419	 1.579708	 0.610998

	symmetry c1
}
set optking {
	frozen_dihedral = ("
		9 5 3 2
	")
}

ee,wfn = optimize('scf', return_wfn=True)
oeprop( wfn, 'DIPOLE', 'QUADRUPOLE', 'MULLIKEN_CHARGES')
f=open( 'psi4out.xyz', 'w' )
f.write( "19  " )
f.write( str(ee) + "\n" )
f.write( MOL.save_string_xyz() )
f.close()
--------------------------------------------------------------------------

    Molecular point group: c1
  Charge       = 0
  Multiplicity = 1
  Basis Set: CC-PVTZ
  Basis Set:
  @DF-RHF Final Energy:  -309.16668540111317
    Total Energy =                       -309.1666854011132273
    Molecular point group: c1
  Basis Set: CC-PVTZ
  Basis Set:
  Basis Set: CC-PVTZ
  Basis Set:
  @DF-RHF Final Energy:  -309.16890186984392
    Total Energy =                       -309.1689018698439781
  Basis Set: CC-PVTZ
  Basis Set:
  Basis Set: CC-PVTZ
  Basis Set:
  @DF-RHF Final Energy:  -309.16886379998425
    Total Energy =                       -309.1688637999839671
  Basis Set: CC-PVTZ
  Basis Set:
  Basis Set: CC-PVTZ
  Basis Set:
  @DF-RHF Final Energy:  -309.17011715993999
    Total Energy =                       -309.1701171599401050
  Basis Set: CC-PVTZ
  Basis Set:
  @DF-RHF Final Energy:  -309.17024209707273
    Total Energy =                       -309.1702420970727871
  @DF-RHF Final Energy:  -309.17029404469633
    Total Energy =                       -309.1702940446961634
  Basis Set: CC-PVTZ
  Basis Set:
  @DF-RHF Final Energy:  -309.17032013911086
    Total Energy =                       -309.1703201391110838
  Basis Set: CC-PVTZ
  Basis Set:
  Basis Set: CC-PVTZ
  Basis Set:
  @DF-RHF Final Energy:  -309.17032934757327
    Total Energy =                       -309.1703293475729879
  Basis Set: CC-PVTZ
  Basis Set:
  Basis Set: CC-PVTZ
  Basis Set:
  @DF-RHF Final Energy:  -309.17033424590096
    Total Energy =                       -309.1703342459007331
  Basis Set: CC-PVTZ
  Basis Set:
  Charge       = 0
  Multiplicity = 1
  Basis Set: CC-PVTZ
  Basis Set:

    Orbital Energies (a.u.)
    -----------------------

    Doubly Occupied:

       1A    -20.537065     2A    -11.319560     3A    -11.230242
       4A    -11.228012     5A    -11.226583     6A    -11.219718
       7A    -11.211775     8A     -1.397520     9A     -1.089543
      10A     -1.027350    11A     -0.983835    12A     -0.891840
      13A     -0.812746    14A     -0.726639    15A     -0.661086
      16A     -0.645078    17A     -0.623837    18A     -0.619223
      19A     -0.581882    20A     -0.572954    21A     -0.558972
      22A     -0.542349    23A     -0.509493    24A     -0.497298
      25A     -0.486203    26A     -0.469775    27A     -0.465851
      28A     -0.399398

  @DF-RHF Final Energy:  -309.17033510169733

   => Energetics <=

    Nuclear Repulsion Energy =            310.2342897593249518
    One-Electron Energy =               -1033.7375987915136193
    Two-Electron Energy =                 414.3329739304908799
    DFT Exchange-Correlation Energy =       0.0000000000000000
    Empirical Dispersion Energy =           0.0000000000000000
    PCM Polarization Energy =               0.0000000000000000
    EFP Energy =                            0.0000000000000000
    Total Energy =                       -309.1703351016977876
    Molecular point group: c1
  Basis Set: CC-PVTZ
  Basis Set:

  -Total Gradient:
     Atom            X                  Y                   Z
    ------   -----------------  -----------------  -----------------
       1        0.000064275001     0.000064991706     0.000031825354
       2        0.000273039652    -0.004095385648     0.000290238837
       3       -0.000942603507     0.004750897592    -0.000921533574
       4       -0.000003162652    -0.000027997900     0.000063278962
       5        0.002680323468     0.003872507006     0.002651441006
       6       -0.000002810369    -0.000009432524    -0.000003105420
       7        0.000008121806     0.000009561989    -0.000005304471
       8       -0.000034763981     0.000002176289     0.000025339306
       9       -0.002122338604    -0.004581999038    -0.002086435001
      10       -0.000006124385    -0.000007100525     0.000004259626
      11        0.000023158272     0.000000460469    -0.000010038480
      12        0.000010862989     0.000011931991    -0.000003534585
      13        0.000017710670    -0.000011548340    -0.000003360383
      14       -0.000005092186     0.000005425801    -0.000005468367
      15       -0.000002196393    -0.000006214741     0.000001490318
      16        0.000004007210     0.000002513671    -0.000001234173
      17        0.000031815282    -0.000003117961     0.000008167839
      18       -0.000014917529     0.000006979873     0.000003310352
      19        0.000020695261     0.000015350289    -0.000039337145

  **** Optimization is complete! (in 10 steps) ****
    Final optimized geometry and variables:
    Molecular point group: c1

    Geometry (in Angstrom), charge = 0, multiplicity = 1:

    O           -1.691065303383    -0.977582279988     0.774499268886
    C           -1.155175883795     0.082114563856     0.781462461056
    C            0.261303939415     0.246005150563     1.298186105239
    C           -1.865087028927     1.327425029851     0.302704791735
    C            1.357754278803     0.235075507660     0.199732971260
    H            0.332244248492     1.162290565916     1.872982882542
    H            0.424473726953    -0.581647664804     1.974311068899
    C            0.966244339484    -0.420697762595    -1.127139981900
    H            2.197306943277    -0.330236433628     0.586777891725
    H            1.704569315800     1.244407091146     0.009895138243
    C            2.134903814550    -0.473394240532    -2.105464162692
    H            0.601685911586    -1.424491315354    -0.940519992841
    H            0.144909633861     0.118530832386    -1.588778010418
    H            2.961175664152    -1.046098304969    -1.697915050119
    H            2.503886836729     0.521550637205    -2.332350859555
    H            1.840304435650    -0.937573222594    -3.039184466764
    H           -2.761534842661     1.061263351400    -0.236311877889
    H           -1.218142210239     1.932870960760    -0.321108266473
    H           -2.133381667649     1.928582562965     1.165940287652

  Mulliken Charges: (a.u.)
   Center  Symbol    Alpha    Beta     Spin     Total
       1     O     4.18043  4.18043  0.00000 -0.36086
       2     C     2.85345  2.85345  0.00000  0.29310
       3     C     3.10363  3.10363  0.00000 -0.20726
       4     C     3.15615  3.15615  0.00000 -0.31230
       5     C     3.10606  3.10606  0.00000 -0.21211
       6     H     0.44399  0.44399  0.00000  0.11201
       7     H     0.43851  0.43851  0.00000  0.12298
       8     C     3.09052  3.09052  0.00000 -0.18103
       9     H     0.44521  0.44521  0.00000  0.10958
      10     H     0.44789  0.44789  0.00000  0.10422
      11     C     3.15177  3.15177  0.00000 -0.30354
      12     H     0.43927  0.43927  0.00000  0.12146
      13     H     0.45327  0.45327  0.00000  0.09346
      14     H     0.45385  0.45385  0.00000  0.09229
      15     H     0.45641  0.45641  0.00000  0.08717
      16     H     0.44597  0.44597  0.00000  0.10806
      17     H     0.43613  0.43613  0.00000  0.12773
      18     H     0.45165  0.45165  0.00000  0.09670
      19     H     0.44584  0.44584  0.00000  0.10832

   Total alpha = 28.00000, Total beta = 28.00000, Total charge = -0.00000

*** Psi4 exiting successfully. Buy a developer a beer!
