                              Psi4 1.0.54 Driver

  ==> Input File <==

--------------------------------------------------------------------------
set {
	reference rhf
	basis cc-pvtz
}

set_num_threads( 4 )
memory 2 gb

molecule MOL {
0 1

H	 -4.230259	 0.539112	 0.036360
O	 -3.515113	 -0.019339	 -0.206321
C	 -2.302264	 0.528872	 0.237390
C	 -1.175688	 -0.398187	 -0.171891
H	 -2.148018	 1.514076	 -0.197759
H	 -2.310727	 0.646384	 1.319032
C	 0.196029	 0.106276	 0.266738
H	 -1.201873	 -0.515469	 -1.250677
H	 -1.365975	 -1.378728	 0.252664
C	 1.330220	 -0.826136	 -0.155230
H	 0.359542	 1.097229	 -0.145561
H	 0.212134	 0.218135	 1.348778
C	 2.719700	 -0.407669	 0.328325
H	 1.339388	 -0.911200	 -1.239363
H	 1.119001	 -1.821953	 0.224128
C	 2.758956	 0.913575	 1.092609
H	 3.373119	 -0.328854	 -0.535121
H	 3.135286	 -1.196204	 0.950367
H	 2.342815	 1.720130	 0.497329
H	 2.199296	 0.863841	 2.018889
H	 3.778797	 1.182109	 1.343578

	symmetry c1
}
set optking {
	frozen_dihedral = ("
		16 13 10 14
	")
}

ee,wfn = optimize('scf', return_wfn=True)
oeprop( wfn, 'DIPOLE', 'QUADRUPOLE', 'MULLIKEN_CHARGES')
f=open( 'psi4out.xyz', 'w' )
f.write( "21  " )
f.write( str(ee) + "\n" )
f.write( MOL.save_string_xyz() )
f.close()
--------------------------------------------------------------------------

    Molecular point group: c1
  Charge       = 0
  Multiplicity = 1
  Basis Set: CC-PVTZ
  Basis Set:
  @DF-RHF Final Energy:  -310.32254727231151
    Total Energy =                       -310.3225472723117946
    Molecular point group: c1
  Basis Set: CC-PVTZ
  Basis Set:
  Basis Set: CC-PVTZ
  Basis Set:
  @DF-RHF Final Energy:  -310.32209362425971
    Total Energy =                       -310.3220936242599350
  Basis Set: CC-PVTZ
  Basis Set:
  Basis Set: CC-PVTZ
  Basis Set:
  @DF-RHF Final Energy:  -310.32449809808372
    Total Energy =                       -310.3244980980835521
  Basis Set: CC-PVTZ
  Basis Set:
  Basis Set: CC-PVTZ
  Basis Set:
  @DF-RHF Final Energy:  -310.32459983846394
    Total Energy =                       -310.3245998384643372
  Basis Set: CC-PVTZ
  Basis Set:
  Basis Set: CC-PVTZ
  Basis Set:
  @DF-RHF Final Energy:  -310.32460839272943
    Total Energy =                       -310.3246083927297718
  Basis Set: CC-PVTZ
  Basis Set:
  Basis Set: CC-PVTZ
  Basis Set:
  @DF-RHF Final Energy:  -310.32461220118330
    Total Energy =                       -310.3246122011829584
  Basis Set: CC-PVTZ
  Basis Set:
  Charge       = 0
  Multiplicity = 1
  Basis Set: CC-PVTZ
  Basis Set:

    Orbital Energies (a.u.)
    -----------------------

    Doubly Occupied:

       1A    -20.545275     2A    -11.264775     3A    -11.213272
       4A    -11.213065     5A    -11.211332     6A    -11.208594
       7A    -11.206186     8A     -1.363127     9A     -1.084574
      10A     -1.031979    11A     -0.955023    12A     -0.879779
      13A     -0.809868    14A     -0.771867    15A     -0.695343
      16A     -0.664566    17A     -0.630481    18A     -0.597178
      19A     -0.581927    20A     -0.579415    21A     -0.533006
      22A     -0.528484    23A     -0.506726    24A     -0.488149
      25A     -0.485895    26A     -0.458136    27A     -0.445150
      28A     -0.444779    29A     -0.436999

  @DF-RHF Final Energy:  -310.32461281793974

   => Energetics <=

    Nuclear Repulsion Energy =            313.4958369374913900
    One-Electron Energy =               -1041.9709923793348025
    Two-Electron Energy =                 418.1505426239035046
    DFT Exchange-Correlation Energy =       0.0000000000000000
    Empirical Dispersion Energy =           0.0000000000000000
    PCM Polarization Energy =               0.0000000000000000
    EFP Energy =                            0.0000000000000000
    Total Energy =                       -310.3246128179399079
    Molecular point group: c1
  Basis Set: CC-PVTZ
  Basis Set:

  -Total Gradient:
     Atom            X                  Y                   Z
    ------   -----------------  -----------------  -----------------
       1        0.000019788077     0.000001253478     0.000002263780
       2        0.000046676428     0.000011738700     0.000009810583
       3       -0.000000951417     0.000035426395    -0.000001573222
       4       -0.000009675874    -0.000010747215    -0.000006113130
       5       -0.000017104190    -0.000050169052     0.000025793400
       6        0.000006076350    -0.000021376952    -0.000066499901
       7       -0.000016994880     0.000062809271     0.000012462871
       8       -0.000011176732     0.000008594408     0.000056104362
       9        0.000021285077     0.000054442933    -0.000018360567
      10       -0.000335265994     0.001160098743     0.000141830370
      11       -0.000069633617    -0.000094881301     0.000019750217
      12        0.000038887122     0.000020507418    -0.000007934123
      13        0.000205257316     0.000240567844    -0.001095807634
      14        0.000284512065    -0.001068136468     0.000184906970
      15        0.000027112662     0.000020053211    -0.000006926623
      16       -0.000148912807    -0.000326409013     0.000780960391
      17       -0.000028255513    -0.000013066238    -0.000001499564
      18       -0.000007104517     0.000017522404    -0.000020331741
      19        0.000043673509    -0.000041227101     0.000027180999
      20       -0.000011692273    -0.000000771330    -0.000036125160
      21       -0.000036500797    -0.000006230134     0.000000107721

  **** Optimization is complete! (in 7 steps) ****
    Final optimized geometry and variables:
    Molecular point group: c1

    Geometry (in Angstrom), charge = 0, multiplicity = 1:

    H           -4.178123706079     0.630597188271    -0.252487860326
    O           -3.470035122981     0.048006322134    -0.455709884926
    C           -2.256342525013     0.586806082391    -0.002945245833
    C           -1.141196130644    -0.379174282637    -0.348542683016
    H           -2.069889054609     1.550956757105    -0.471148652779
    H           -2.288483305477     0.746006495816     1.072780421471
    C            0.230404335163     0.114716466319     0.102516561225
    H           -1.145883361662    -0.539269966934    -1.421942862655
    H           -1.362415886225    -1.337575519719     0.110077872656
    C            1.341399294879    -0.872339750064    -0.255938439895
    H            0.428864575073     1.079657164206    -0.353411185913
    H            0.214394904751     0.279826712020     1.175675274901
    C            2.791012668826    -0.496667313746     0.153000332755
    H            1.312025771700    -1.043312744771    -1.327141682948
    H            1.093270040205    -1.829174681580     0.191943890529
    C            3.003967571604     0.866815533778     0.810358421040
    H            3.425950406056    -0.551305433103    -0.724281912700
    H            3.167566091985    -1.253917851657     0.832024087420
    H            2.713863698376     1.683007232163     0.159323773805
    H            2.446454927287     0.964739272512     1.733851647054
    H            4.053257666403     0.999233139945     1.048510700269

  Mulliken Charges: (a.u.)
   Center  Symbol    Alpha    Beta     Spin     Total
       1     H     0.39768  0.39768  0.00000  0.20463
       2     O     4.19404  4.19404  0.00000 -0.38808
       3     C     2.96349  2.96349  0.00000  0.07302
       4     C     3.08391  3.08391  0.00000 -0.16783
       5     H     0.47499  0.47499  0.00000  0.05002
       6     H     0.47502  0.47502  0.00000  0.04995
       7     C     3.10134  3.10134  0.00000 -0.20269
       8     H     0.45111  0.45111  0.00000  0.09778
       9     H     0.45105  0.45105  0.00000  0.09790
      10     C     3.09938  3.09938  0.00000 -0.19876
      11     H     0.45362  0.45362  0.00000  0.09275
      12     H     0.45394  0.45394  0.00000  0.09211
      13     C     3.08777  3.08777  0.00000 -0.17554
      14     H     0.45071  0.45071  0.00000  0.09858
      15     H     0.45082  0.45082  0.00000  0.09836
      16     C     3.15673  3.15673  0.00000 -0.31345
      17     H     0.45112  0.45112  0.00000  0.09776
      18     H     0.45186  0.45186  0.00000  0.09629
      19     H     0.45355  0.45355  0.00000  0.09289
      20     H     0.45345  0.45345  0.00000  0.09310
      21     H     0.44440  0.44440  0.00000  0.11121

   Total alpha = 29.00000, Total beta = 29.00000, Total charge = -0.00000

*** Psi4 exiting successfully. Buy a developer a beer!
