  ==> Input File <==

--------------------------------------------------------------------------
set {
	reference rhf
	basis 6-31G*
}

set_num_threads( 4 )
memory 2 gb

molecule MOL {
0 1

H	 2.085045	 -0.607095	 -0.902884
O	 2.064459	 -0.086912	 -0.111827
C	 0.745630	 0.005118	 0.354752
H	 0.739005	 0.037656	 1.444976
C	 -0.064159	 -1.194875	 -0.122754
C	 -0.046302	 1.193543	 -0.190431
H	 0.197384	 -1.376065	 -1.160690
H	 0.162855	 -2.097978	 0.431858
C	 -1.535782	 -0.752177	 0.006642
H	 0.154512	 1.271315	 -1.255561
H	 0.226209	 2.140461	 0.267302
C	 -1.509193	 0.801505	 0.065617
H	 -2.127797	 -1.112194	 -0.826847
H	 -1.986849	 -1.158408	 0.905561
H	 -2.183670	 1.254107	 -0.651985
H	 -1.821727	 1.144320	 1.047089

	symmetry c1
}
set optking {
	frozen_dihedral = ("
		1 2 3 6
	")
}

ee = optimize('scf')
oeprop('DIPOLE', 'QUADRUPOLE', 'MULLIKEN_CHARGES')
f=open( 'psi4out.xyz', 'w' )
f.write( "16  " )
f.write( str(ee) + "\n" )
f.write( MOL.save_string_xyz() )
f.close()
--------------------------------------------------------------------------

    Molecular point group: c1
  Charge       = 0
  Multiplicity = 1
  Basis Set: 6-31G*
  Basis Set:
  @DF-RHF Final Energy:  -270.01086621842569
    Total Energy =                       -270.0108662184254626
    Molecular point group: c1
  Basis Set: 6-31G*
  Basis Set:
  Basis Set: 6-31G*
  Basis Set:
  @DF-RHF Final Energy:  -270.01283206296148
    Total Energy =                       -270.0128320629614223
  Basis Set: 6-31G*
  Basis Set:
  Basis Set: 6-31G*
  Basis Set:
  @DF-RHF Final Energy:  -270.01311272433179
    Total Energy =                       -270.0131127243319042
  Basis Set: 6-31G*
  Basis Set:
  Basis Set: 6-31G*
  Basis Set:
  @DF-RHF Final Energy:  -270.01312064116308
    Total Energy =                       -270.0131206411630842
  Basis Set: 6-31G*
  Basis Set:
  Charge       = 0
  Multiplicity = 1
  Basis Set: 6-31G*
  Basis Set:

    Orbital Energies (a.u.)
    -----------------------

    Doubly Occupied:

       1A    -20.551071     2A    -11.268643     3A    -11.220571
       4A    -11.219353     5A    -11.217630     6A    -11.209564
       7A     -1.360647     8A     -1.115543     9A     -0.969430
      10A     -0.948918    11A     -0.802326    12A     -0.783171
      13A     -0.680304    14A     -0.663160    15A     -0.606041
      16A     -0.593320    17A     -0.578396    18A     -0.540872
      19A     -0.503740    20A     -0.485491    21A     -0.473417
      22A     -0.460026    23A     -0.452818    24A     -0.412733

  @DF-RHF Final Energy:  -270.01312162912120

   => Energetics <=

    Nuclear Repulsion Energy =            254.9787363900267110
    One-Electron Energy =                -871.7493440747034583
    Two-Electron Energy =                 346.7574860555556597
    DFT Exchange-Correlation Energy =       0.0000000000000000
    Empirical Dispersion Energy =           0.0000000000000000
    PCM Polarization Energy =               0.0000000000000000
    EFP Energy =                            0.0000000000000000
    Total Energy =                       -270.0131216291210876
    Molecular point group: c1
  Basis Set: 6-31G*
  Basis Set:

  -Total Gradient:
     Atom            X                  Y                   Z
    ------   -----------------  -----------------  -----------------
       1        0.000219902700    -0.001777474540     0.001061276765
       2       -0.000186863706     0.002494270492    -0.000787789823
       3       -0.000369137028    -0.001388803888    -0.001343566133
       4       -0.000004539604     0.000011831425     0.000021122890
       5        0.000062479269     0.000059788023    -0.000057666966
       6        0.000338452387     0.000662671425     0.001046218470
       7       -0.000011427458    -0.000021087994     0.000013284365
       8        0.000006905683     0.000030843519     0.000005768966
       9       -0.000057878189     0.000010859045     0.000022209255
      10        0.000027535447    -0.000002312290    -0.000004884251
      11        0.000022525680    -0.000010015086     0.000000270095
      12        0.000005749545    -0.000035214282     0.000021349459
      13       -0.000018721865     0.000004461269    -0.000016172651
      14       -0.000017816935    -0.000006475241    -0.000015944848
      15       -0.000003899528    -0.000020561347     0.000018457081
      16       -0.000013266398    -0.000012780531     0.000016067326

  **** Optimization is complete! (in 5 steps) ****
    Final optimized geometry and variables:
    Molecular point group: c1

    Geometry (in Angstrom), charge = 0, multiplicity = 1:

    H            2.194827008392    -0.498203752123    -0.854866130138
    O            2.097929704124    -0.027034143120    -0.039434121593
    C            0.747818594080    -0.002738151660     0.336150428653
    H            0.745297289878     0.034340387285     1.421206742261
    C           -0.082660587981    -1.200165869965    -0.128029416524
    C           -0.037365886062     1.193126495317    -0.199511179751
    H            0.141755262937    -1.393599616543    -1.176869613988
    H            0.142447315803    -2.107161461972     0.421830425213
    C           -1.546379993844    -0.739365435800     0.024523653422
    H            0.147099030540     1.279606491919    -1.268528297545
    H            0.261400627834     2.128882828888     0.258778088602
    C           -1.500831666983     0.815276304515     0.073191585923
    H           -2.158697506773    -1.099227369911    -0.794210799726
    H           -1.981579630470    -1.136355039260     0.934996760337
    H           -2.181229595419     1.267898370113    -0.638686515066
    H           -1.799372651078     1.165432252804     1.056203052585

  Mulliken Charges: (a.u.)
   Center  Symbol    Alpha    Beta     Spin     Total
       1     H     0.28249  0.28249  0.00000  0.43502
       2     O     4.37917  4.37917  0.00000 -0.75835
       3     C     2.90122  2.90122  0.00000  0.19755
       4     H     0.41904  0.41904  0.00000  0.16193
       5     C     3.18077  3.18077  0.00000 -0.36155
       6     C     3.16545  3.16545  0.00000 -0.33089
       7     H     0.42739  0.42739  0.00000  0.14523
       8     H     0.41011  0.41011  0.00000  0.17978
       9     C     3.16729  3.16729  0.00000 -0.33458
      10     H     0.42446  0.42446  0.00000  0.15107
      11     H     0.41178  0.41178  0.00000  0.17645
      12     C     3.17095  3.17095  0.00000 -0.34189
      13     H     0.41451  0.41451  0.00000  0.17098
      14     H     0.41486  0.41486  0.00000  0.17028
      15     H     0.41417  0.41417  0.00000  0.17166
      16     H     0.41634  0.41634  0.00000  0.16731

   Total alpha = 24.00000, Total beta = 24.00000, Total charge =  0.00000
