  ==> Input File <==

--------------------------------------------------------------------------
set {
	reference rhf
	basis cc-pvtz
}

set_num_threads( 4 )
memory 2 gb

molecule MOL {
0 1

H	 2.342730	 0.877684	 -1.045694
C	 2.360424	 0.000000	 -0.411793
C	 1.173749	 0.000000	 0.526870
H	 3.286567	 0.000000	 0.151574
H	 2.342730	 -0.877684	 -1.045694
O	 -0.000000	 0.000000	 -0.223739
H	 1.203779	 0.876757	 1.172538
H	 1.203779	 -0.876757	 1.172538
C	 -1.173749	 0.000000	 0.526870
C	 -1.840200	 -1.352575	 0.401696
H	 -1.842509	 0.783932	 0.173737
H	 -0.949019	 0.214383	 1.570914
H	 -2.078927	 -1.563568	 -0.633179
H	 -2.757487	 -1.375601	 0.978911
H	 -1.184493	 -2.133719	 0.765475

	symmetry c1
}
set optking {
	frozen_dihedral = ("
		11 9 6 3
	")
}

ee = optimize('scf')
oeprop('DIPOLE', 'QUADRUPOLE', 'MULLIKEN_CHARGES')
f=open( 'psi4out.xyz', 'w' )
f.write( "15  " )
f.write( str(ee) + "\n" )
f.write( MOL.save_string_xyz() )
f.close()
--------------------------------------------------------------------------

    Molecular point group: c1
  Charge       = 0
  Multiplicity = 1
  Basis Set: CC-PVTZ
  Basis Set:
  @DF-RHF Final Energy:  -232.22924817591297
    Total Energy =                       -232.2292481759129714
    Molecular point group: c1
  Basis Set: CC-PVTZ
  Basis Set:
  Basis Set: CC-PVTZ
  Basis Set:
  @DF-RHF Final Energy:  -232.22980428922276
    Total Energy =                       -232.2298042892228978
  Basis Set: CC-PVTZ
  Basis Set:
  Basis Set: CC-PVTZ
  Basis Set:
  @DF-RHF Final Energy:  -232.22991694680439
    Total Energy =                       -232.2299169468042805
  Basis Set: CC-PVTZ
  Basis Set:
  Charge       = 0
  Multiplicity = 1
  Basis Set: CC-PVTZ
  Basis Set:

    Orbital Energies (a.u.)
    -----------------------

    Doubly Occupied:

       1A    -20.542177     2A    -11.266912     3A    -11.265819
       4A    -11.207728     5A    -11.206817     6A     -1.376607
       7A     -1.042831     8A     -0.984948     9A     -0.855466
      10A     -0.820492    11A     -0.672441    12A     -0.658034
      13A     -0.635217    14A     -0.574212    15A     -0.553749
      16A     -0.540687    17A     -0.523166    18A     -0.501048
      19A     -0.486892    20A     -0.462557    21A     -0.407538

  @DF-RHF Final Energy:  -232.22991830218626

   => Energetics <=

    Nuclear Repulsion Energy =            191.9514543670452440
    One-Electron Energy =                -695.1920741196227027
    Two-Electron Energy =                 271.0107014503913092
    DFT Exchange-Correlation Energy =       0.0000000000000000
    Empirical Dispersion Energy =           0.0000000000000000
    PCM Polarization Energy =               0.0000000000000000
    EFP Energy =                            0.0000000000000000
    Total Energy =                       -232.2299183021861495
    Molecular point group: c1
  Basis Set: CC-PVTZ
  Basis Set:

  -Total Gradient:
     Atom            X                  Y                   Z
    ------   -----------------  -----------------  -----------------
       1       -0.000009270803    -0.000011789929     0.000016672571
       2        0.000013825190    -0.000018541718     0.000013841384
       3        0.000030605061     0.000738167028    -0.000019145593
       4        0.000032455542    -0.000000192143    -0.000002392942
       5       -0.000001150330     0.000003336112     0.000000535477
       6        0.000052662764    -0.000898114460     0.000093628917
       7       -0.000000370063    -0.000005785485     0.000016119978
       8       -0.000020870477     0.000010473817    -0.000034345105
       9       -0.000317472498    -0.000369026081    -0.000669427610
      10       -0.000066084934     0.000027122124     0.000010633019
      11        0.000303901784     0.000471104834     0.000565825195
      12       -0.000049531191     0.000005123645     0.000029174317
      13        0.000007714005     0.000003432331    -0.000018325303
      14        0.000003997631    -0.000000814765    -0.000005247029
      15        0.000019588321     0.000045504689     0.000002452728

  **** Optimization is complete! (in 4 steps) ****
    Final optimized geometry and variables:
    Molecular point group: c1

    Geometry (in Angstrom), charge = 0, multiplicity = 1:

    H            2.231494615351     1.150709150697    -1.233601621786
    C            2.260344695748     0.278730616581    -0.592197343082
    C            1.088941343300     0.287633122526     0.365191812753
    H            3.195510097817     0.284326942291    -0.043525067199
    H            2.232820181050    -0.604436751197    -1.218184119774
    O           -0.095593528924     0.290052220481    -0.371385556004
    H            1.133575539695     1.167896753514     1.004183192448
    H            1.130502957669    -0.585776337360     1.014185614578
    C           -1.284352360528     0.252528287667     0.366233718706
    C           -1.975957633528    -1.091135590210     0.228679129343
    H           -1.927245925609     1.044333662374    -0.001724373776
    H           -1.087771353476     0.466224005543     1.413351579709
    H           -2.185835902171    -1.301198080948    -0.812743637813
    H           -2.912616464263    -1.094675981606     0.776048378945
    H           -1.352717596192    -1.889185117976     0.615558932742

  Mulliken Charges: (a.u.)
   Center  Symbol    Alpha    Beta     Spin     Total
       1     H     0.45136  0.45136  0.00000  0.09727
       2     C     3.13728  3.13728  0.00000 -0.27455
       3     C     2.96582  2.96582  0.00000  0.06836
       4     H     0.45927  0.45927  0.00000  0.08147
       5     H     0.45177  0.45177  0.00000  0.09645
       6     O     4.18591  4.18591  0.00000 -0.37183
       7     H     0.47050  0.47050  0.00000  0.05901
       8     H     0.47428  0.47428  0.00000  0.05144
       9     C     2.97844  2.97844  0.00000  0.04313
      10     C     3.13567  3.13567  0.00000 -0.27134
      11     H     0.45429  0.45429  0.00000  0.09141
      12     H     0.47133  0.47133  0.00000  0.05734
      13     H     0.45092  0.45092  0.00000  0.09816
      14     H     0.45681  0.45681  0.00000  0.08639
      15     H     0.45635  0.45635  0.00000  0.08730

   Total alpha = 21.00000, Total beta = 21.00000, Total charge = -0.00000
