  ==> Input File <==

--------------------------------------------------------------------------
set {
	reference rhf
	basis 6-31G*
}

set_num_threads( 1 )
memory 2 gb

molecule MOL {
0 1

H	 -2.783374	 -0.548071	 1.014603
C	 -2.702455	 -0.200716	 -0.013472
O	 -1.373620	 -0.049991	 -0.396637
H	 -3.149040	 -0.936654	 -0.667764
H	 -3.254752	 0.733495	 -0.106460
C	 -0.664241	 0.880051	 0.359043
C	 0.782885	 0.876356	 -0.074569
H	 -1.078794	 1.878719	 0.215856
H	 -0.721490	 0.641881	 1.419233
O	 1.392611	 -0.295398	 0.366430
H	 0.832532	 0.954168	 -1.158768
H	 1.286054	 1.746740	 0.348451
C	 2.706965	 -0.449871	 -0.062409
H	 2.756559	 -0.644779	 -1.131878
H	 3.305899	 0.433456	 0.155466
H	 3.125548	 -1.294566	 0.467107

	symmetry c1
}
set optking {
	frozen_dihedral = ("
		3 6 7 11,
		2 3 6 7
	")
}

ee = energy('scf')
oeprop('DIPOLE', 'QUADRUPOLE', 'MULLIKEN_CHARGES')
f=open( 'psi4out.xyz', 'w' )
f.write( "16  " )
f.write( str(ee) + "\n" )
f.write( MOL.save_string_xyz() )
f.close()
--------------------------------------------------------------------------

    Molecular point group: c1

    Geometry (in Angstrom), charge = 0, multiplicity = 1:

       Center              X                  Y                   Z               Mass
    ------------   -----------------  -----------------  -----------------  -----------------
           H         -2.806725743816    -0.667235946404     0.985956301420     1.007825032070
           C         -2.725806743816    -0.319880946404    -0.042118698580    12.000000000000
           O         -1.396971743816    -0.169155946404    -0.425283698580    15.994914619560
           H         -3.172391743816    -1.055818946404    -0.696410698580     1.007825032070
           H         -3.278103743816     0.614330053596    -0.135106698580     1.007825032070
           C         -0.687592743816     0.760886053596     0.330396301420    12.000000000000
           C          0.759533256184     0.757191053596    -0.103215698580    12.000000000000
           H         -1.102145743816     1.759554053596     0.187209301420     1.007825032070
           H         -0.744841743816     0.522716053596     1.390586301420     1.007825032070
           O          1.369259256184    -0.414562946404     0.337783301420    15.994914619560
           H          0.809180256184     0.835003053596    -1.187414698580     1.007825032070
           H          1.262702256184     1.627575053596     0.319804301420     1.007825032070
           C          2.683613256184    -0.569035946404    -0.091055698580    12.000000000000
           H          2.733207256184    -0.763943946404    -1.160524698580     1.007825032070
           H          3.282547256184     0.314291053596     0.126819301420     1.007825032070
           H          3.102196256184    -1.413730946404     0.438460301420     1.007825032070

  Charge       = 0
  Multiplicity = 1
  Basis Set: 6-31G*
  Basis Set:

    Orbital Energies (a.u.)
    -----------------------

    Doubly Occupied:

       1A    -20.553576     2A    -20.553376     3A    -11.269076
       4A    -11.268415     5A    -11.263524     6A    -11.263482
       7A     -1.388264     8A     -1.370653     9A     -1.030813
      10A     -0.936013    11A     -0.891969    12A     -0.824040
      13A     -0.684088    14A     -0.680502    15A     -0.656963
      16A     -0.635355    17A     -0.630069    18A     -0.596992
      19A     -0.550462    20A     -0.536132    21A     -0.508619
      22A     -0.477604    23A     -0.462720    24A     -0.419446
      25A     -0.410449

  @DF-RHF Final Energy:  -306.97750936716841

   => Energetics <=

    Nuclear Repulsion Energy =            258.8370823718349811
    One-Electron Energy =                -931.9038817406731141
    Two-Electron Energy =                 366.0892900016697240
    DFT Exchange-Correlation Energy =       0.0000000000000000
    Empirical Dispersion Energy =           0.0000000000000000
    PCM Polarization Energy =               0.0000000000000000
    EFP Energy =                            0.0000000000000000
    Total Energy =                       -306.9775093671684090

  Mulliken Charges: (a.u.)
   Center  Symbol    Alpha    Beta     Spin     Total
       1     H     0.42807  0.42807  0.00000  0.14386
       2     C     3.07952  3.07952  0.00000 -0.15905
       3     O     4.30085  4.30085  0.00000 -0.60170
       4     H     0.41129  0.41129  0.00000  0.17743
       5     H     0.43188  0.43188  0.00000  0.13623
       6     C     2.99335  2.99335  0.00000  0.01330
       7     C     2.99355  2.99355  0.00000  0.01291
       8     H     0.43229  0.43229  0.00000  0.13543
       9     H     0.42277  0.42277  0.00000  0.15447
      10     O     4.30095  4.30095  0.00000 -0.60190
      11     H     0.42289  0.42289  0.00000  0.15421
      12     H     0.43203  0.43203  0.00000  0.13594
      13     C     3.07931  3.07931  0.00000 -0.15862
      14     H     0.42688  0.42688  0.00000  0.14623
      15     H     0.43251  0.43251  0.00000  0.13497
      16     H     0.41185  0.41185  0.00000  0.17630

   Total alpha = 25.00000, Total beta = 25.00000, Total charge = -0.00000
