  ==> Input File <==

--------------------------------------------------------------------------
set {
	reference rhf
	basis 6-31G*
}

set_num_threads( 4 )
memory 2 gb

molecule MOL {
0 1

H	 0.162197	 -3.415217	 1.342012
O	 0.401353	 -2.665718	 0.805502
C	 -0.611809	 -1.800493	 0.828232
C	 -0.318135	 -0.576402	 0.000164
O	 -1.607993	 -2.009245	 1.440636
C	 -1.454360	 0.441875	 -0.000474
H	 0.601744	 -0.140570	 0.380791
H	 -0.090475	 -0.913730	 -1.007499
C	 -2.826123	 -0.230780	 0.000056
H	 -1.357605	 1.085198	 -0.868380
H	 -1.357504	 1.086451	 0.866496
H	 -2.959731	 -0.858053	 -0.876869
H	 -3.619374	 0.509403	 -0.000080
H	 -2.959371	 -0.857318	 0.877556

	symmetry c1
}
set optking {
	frozen_dihedral = ("
		7 4 6 10
	")
}

ee = optimize('scf')
oeprop('DIPOLE', 'QUADRUPOLE', 'MULLIKEN_CHARGES')
f=open( 'psi4out.xyz', 'w' )
f.write( "14  " )
f.write( str(ee) + "\n" )
f.write( MOL.save_string_xyz() )
f.close()
--------------------------------------------------------------------------

    Molecular point group: c1
  Charge       = 0
  Multiplicity = 1
  Basis Set: 6-31G*
  Basis Set:
  @DF-RHF Final Energy:  -305.86260180982777
    Total Energy =                       -305.8626018098279360
    Molecular point group: c1
  Basis Set: 6-31G*
  Basis Set:
  Basis Set: 6-31G*
  Basis Set:
  @DF-RHF Final Energy:  -305.87273293726230
    Total Energy =                       -305.8727329372622989
  Basis Set: 6-31G*
  Basis Set:
  Basis Set: 6-31G*
  Basis Set:
  @DF-RHF Final Energy:  -305.87427549414957
    Total Energy =                       -305.8742754941494013
  Basis Set: 6-31G*
  Basis Set:
  Basis Set: 6-31G*
  Basis Set:
  @DF-RHF Final Energy:  -305.87245335754642
    Total Energy =                       -305.8724533575463624
  Basis Set: 6-31G*
  Basis Set:
  @DF-RHF Final Energy:  -305.87552205652105
    Total Energy =                       -305.8755220565209356
  @DF-RHF Final Energy:  -305.87615745187514
    Total Energy =                       -305.8761574518750876
  @DF-RHF Final Energy:  -305.87649183493227
    Total Energy =                       -305.8764918349322102
  @DF-RHF Final Energy:  -305.87657068361136
    Total Energy =                       -305.8765706836114191
  Basis Set: 6-31G*
  Basis Set:
  @DF-RHF Final Energy:  -305.87660364278707
    Total Energy =                       -305.8766036427869039
  Basis Set: 6-31G*
  Basis Set:
  Basis Set: 6-31G*
  Basis Set:
  @DF-RHF Final Energy:  -305.87660824678687
    Total Energy =                       -305.8766082467869296
  Basis Set: 6-31G*
  Basis Set:
  Basis Set: 6-31G*
  Basis Set:
  @DF-RHF Final Energy:  -305.87660946590495
    Total Energy =                       -305.8766094659044938
  Basis Set: 6-31G*
  Basis Set:
  Charge       = 0
  Multiplicity = 1
  Basis Set: 6-31G*
  Basis Set:

    Orbital Energies (a.u.)
    -----------------------

    Doubly Occupied:

       1A    -20.614840     2A    -20.549654     3A    -11.381771
       4A    -11.241598     5A    -11.230116     6A    -11.210625
       7A     -1.475727     8A     -1.365490     9A     -1.080664
      10A     -0.975879    11A     -0.862445    12A     -0.788388
      13A     -0.702599    14A     -0.685897    15A     -0.658674
      16A     -0.619973    17A     -0.590464    18A     -0.566842
      19A     -0.557930    20A     -0.499791    21A     -0.489860
      22A     -0.486123    23A     -0.474485    24A     -0.439216

  @DF-RHF Final Energy:  -305.87660965941677

   => Energetics <=

    Nuclear Repulsion Energy =            245.6560395681610771
    One-Electron Energy =                -903.9672000609175484
    Two-Electron Energy =                 352.4345508333395287
    DFT Exchange-Correlation Energy =       0.0000000000000000
    Empirical Dispersion Energy =           0.0000000000000000
    PCM Polarization Energy =               0.0000000000000000
    EFP Energy =                            0.0000000000000000
    Total Energy =                       -305.8766096594169426
    Molecular point group: c1
  Basis Set: 6-31G*
  Basis Set:

  -Total Gradient:
     Atom            X                  Y                   Z
    ------   -----------------  -----------------  -----------------
       1        0.000006215505     0.000009688889    -0.000000239767
       2       -0.000024183684     0.000005046678     0.000000288484
       3        0.000035514056    -0.000032430033     0.000004271787
       4        0.001416960716     0.001657977963    -0.008053168065
       5       -0.000025130657     0.000005667453     0.000001062010
       6        0.003641935401     0.004509188887     0.005686853695
       7       -0.001684881498    -0.002026809349     0.005929964482
       8       -0.000011954323     0.000012106863    -0.000002860662
       9       -0.000009456027     0.000003016904     0.000006657557
      10       -0.003350247220    -0.004124704208    -0.003574822271
      11        0.000013631314    -0.000001008239     0.000001001566
      12       -0.000004412264    -0.000002131033    -0.000007759719
      13       -0.000001883222    -0.000003767080    -0.000001820398
      14       -0.000002108099    -0.000011843698     0.000010571300

  **** Optimization is complete! (in 12 steps) ****
    Final optimized geometry and variables:
    Molecular point group: c1

    Geometry (in Angstrom), charge = 0, multiplicity = 1:

    H            0.989075999344    -2.376825671393     0.527366457993
    O            1.095483199784    -1.680906031332    -0.114323629146
    C            0.524899426089    -0.581427693911     0.372206248135
    C            0.703722944290     0.611789316752    -0.536105789447
    O           -0.013247935343    -0.566278072117     1.432441100900
    C           -0.486931400593     1.583019851006    -0.540930130705
    H            1.576155283086     1.110258652274    -0.118707917007
    H            0.950547282837     0.269073535347    -1.531891753523
    C           -1.854131297972     0.906732847889    -0.685639699784
    H           -0.363693639638     2.230937075393    -1.403798924431
    H           -0.470792652238     2.196304784736     0.351533358909
    H           -1.881709543079     0.267863485439    -1.565165383224
    H           -2.631044784457     1.655482115649    -0.802315319059
    H           -2.098760542787     0.304778993375     0.179579269288

  Mulliken Charges: (a.u.)
   Center  Symbol    Alpha    Beta     Spin     Total
       1     H     0.26819  0.26819  0.00000  0.46361
       2     O     4.34880  4.34880  0.00000 -0.69760
       3     C     2.62490  2.62490  0.00000  0.75020
       4     C     3.21106  3.21106  0.00000 -0.42212
       5     O     4.28176  4.28176  0.00000 -0.56352
       6     C     3.15023  3.15023  0.00000 -0.30045
       7     H     0.39626  0.39626  0.00000  0.20747
       8     H     0.39818  0.39818  0.00000  0.20363
       9     C     3.25318  3.25318  0.00000 -0.50636
      10     H     0.41648  0.41648  0.00000  0.16703
      11     H     0.40887  0.40887  0.00000  0.18225
      12     H     0.42301  0.42301  0.00000  0.15398
      13     H     0.41722  0.41722  0.00000  0.16556
      14     H     0.40184  0.40184  0.00000  0.19632

   Total alpha = 24.00000, Total beta = 24.00000, Total charge = -0.00000
