                              Psi4 1.0.54 Driver

  ==> Input File <==

--------------------------------------------------------------------------
set {
	reference rhf
	basis cc-pvtz
}

set_num_threads( 4 )
memory 2 gb

molecule MOL {
0 1

H	 1.441195	 -1.519507	 -0.392892
O	 1.675515	 -0.612943	 -0.465627
C	 1.135873	 0.113391	 0.608264
C	 0.027642	 1.012027	 0.090274
H	 1.902972	 0.727968	 1.072615
H	 0.756163	 -0.561896	 1.370018
C	 -1.138737	 0.285728	 -0.581921
H	 0.464661	 1.708096	 -0.618252
H	 -0.340737	 1.603071	 0.925246
C	 -1.933983	 -0.631436	 0.343653
H	 -0.763151	 -0.285569	 -1.422081
H	 -1.808359	 1.035291	 -0.992333
H	 -2.789188	 -1.049673	 -0.174718
H	 -1.335629	 -1.461368	 0.700418
H	 -2.305435	 -0.092167	 1.209725

	symmetry c1
}
set optking {
	frozen_dihedral = ("
		1 2 3 4
	")
}

ee,wfn = optimize('scf', return_wfn=True)
oeprop( wfn, 'DIPOLE', 'QUADRUPOLE', 'MULLIKEN_CHARGES')
f=open( 'psi4out.xyz', 'w' )
f.write( "15  " )
f.write( str(ee) + "\n" )
f.write( MOL.save_string_xyz() )
f.close()
--------------------------------------------------------------------------

    Molecular point group: c1
  Charge       = 0
  Multiplicity = 1
  Basis Set: CC-PVTZ
  Basis Set:
  @DF-RHF Final Energy:  -232.23520643437530
    Total Energy =                       -232.2352064343751294
    Molecular point group: c1
  Basis Set: CC-PVTZ
  Basis Set:
  Basis Set: CC-PVTZ
  Basis Set:
  @DF-RHF Final Energy:  -232.23577321025101
    Total Energy =                       -232.2357732102508976
  Basis Set: CC-PVTZ
  Basis Set:
  Basis Set: CC-PVTZ
  Basis Set:
  @DF-RHF Final Energy:  -232.23596173973937
    Total Energy =                       -232.2359617397393095
  Basis Set: CC-PVTZ
  Basis Set:
  Charge       = 0
  Multiplicity = 1
  Basis Set: CC-PVTZ
  Basis Set:

    Orbital Energies (a.u.)
    -----------------------

    Doubly Occupied:

       1A    -20.545581     2A    -11.265646     3A    -11.213383
       4A    -11.211220     5A    -11.210074     6A     -1.362725
       7A     -1.068484     8A     -0.974884     9A     -0.875394
      10A     -0.780921    11A     -0.705752    12A     -0.645994
      13A     -0.611855    14A     -0.584201    15A     -0.565925
      16A     -0.541296    17A     -0.506080    18A     -0.489348
      19A     -0.472514    20A     -0.457296    21A     -0.428654

  @DF-RHF Final Energy:  -232.23596100601537

   => Energetics <=

    Nuclear Repulsion Energy =            191.4789110533344569
    One-Electron Energy =                -694.3952896071414216
    Two-Electron Energy =                 270.6804175477917624
    DFT Exchange-Correlation Energy =       0.0000000000000000
    Empirical Dispersion Energy =           0.0000000000000000
    PCM Polarization Energy =               0.0000000000000000
    EFP Energy =                            0.0000000000000000
    Total Energy =                       -232.2359610060152022
    Molecular point group: c1
  Basis Set: CC-PVTZ
  Basis Set:

  -Total Gradient:
     Atom            X                  Y                   Z
    ------   -----------------  -----------------  -----------------
       1        0.000381864720    -0.000048282569     0.000232251383
       2       -0.000257128431    -0.000028134302    -0.000394413004
       3       -0.000351182184    -0.000065110898     0.000184831406
       4        0.000249548748     0.000167220067    -0.000046084802
       5       -0.000031927759    -0.000008548280     0.000000307668
       6       -0.000061389532    -0.000108488950    -0.000030579762
       7       -0.000065922676     0.000148229485     0.000087043780
       8        0.000066640306    -0.000045191691    -0.000009283527
       9       -0.000025014598     0.000037069800    -0.000013833497
      10        0.000034631079    -0.000013492540     0.000030234368
      11        0.000002852973     0.000016581045    -0.000083598783
      12       -0.000039243931     0.000029708670    -0.000008703375
      13       -0.000004119617    -0.000040681807    -0.000011966052
      14        0.000119611603    -0.000043637304     0.000089628298
      15       -0.000019220695     0.000002759274    -0.000025834102

  **** Optimization is complete! (in 4 steps) ****
    Final optimized geometry and variables:
    Molecular point group: c1

    Geometry (in Angstrom), charge = 0, multiplicity = 1:

    H            1.535412352005    -1.523015903160    -0.411196747881
    O            1.752976427428    -0.612109824498    -0.453275666095
    C            1.138868375587     0.095994984153     0.596706546956
    C            0.032120161806     1.006723911541     0.087551754256
    H            1.901908509334     0.698923106077     1.074663617773
    H            0.761559332506    -0.589568857807     1.348141856736
    C           -1.144922621531     0.293531776947    -0.578560941461
    H            0.473500186102     1.697437750910    -0.623497833686
    H           -0.326557950213     1.603407169073     0.923573694634
    C           -1.962326733392    -0.594486471648     0.357086091939
    H           -0.777342738281    -0.294683456495    -1.412450109381
    H           -1.800877069697     1.045274918548    -1.005825522548
    H           -2.809092660087    -1.025689043240    -0.164336450179
    H           -1.377538824004    -1.416196526022     0.755675250242
    H           -2.347253303315    -0.027731031904     1.198782722338

  Mulliken Charges: (a.u.)
   Center  Symbol    Alpha    Beta     Spin     Total
       1     H     0.39063  0.39063  0.00000  0.21874
       2     O     4.20865  4.20865  0.00000 -0.41729
       3     C     2.98416  2.98416  0.00000  0.03168
       4     C     3.08564  3.08564  0.00000 -0.17129
       5     H     0.45150  0.45150  0.00000  0.09700
       6     H     0.46783  0.46783  0.00000  0.06434
       7     C     3.09839  3.09839  0.00000 -0.19678
       8     H     0.44870  0.44870  0.00000  0.10260
       9     H     0.45587  0.45587  0.00000  0.08827
      10     C     3.15274  3.15274  0.00000 -0.30547
      11     H     0.44883  0.44883  0.00000  0.10233
      12     H     0.44807  0.44807  0.00000  0.10387
      13     H     0.44549  0.44549  0.00000  0.10902
      14     H     0.45932  0.45932  0.00000  0.08137
      15     H     0.45420  0.45420  0.00000  0.09161

   Total alpha = 21.00000, Total beta = 21.00000, Total charge =  0.00000

*** Psi4 exiting successfully. Buy a developer a beer!
