  ==> Input File <==

--------------------------------------------------------------------------
set {
	reference rhf
	basis 6-31G*
}

set_num_threads( 1 )
memory 2 gb

molecule MOL {
0 1

H	 1.418251	 -5.494215	 -0.715462
O	 2.293420	 -5.274866	 -1.000132
C	 2.234539	 -4.271377	 -1.981761
C	 1.871839	 -2.901230	 -1.419736
H	 3.221379	 -4.235040	 -2.425046
H	 1.536249	 -4.550018	 -2.770132
C	 0.470195	 -2.830303	 -0.808809
H	 2.610737	 -2.629249	 -0.670455
H	 1.952894	 -2.172392	 -2.224468
C	 0.115918	 -1.429151	 -0.302766
H	 0.401564	 -3.540182	 0.010780
H	 -0.264981	 -3.137865	 -1.552626
C	 -1.309753	 -1.282496	 0.241564
H	 0.827087	 -1.136297	 0.467508
H	 0.246773	 -0.722761	 -1.119828
C	 -2.037799	 -0.007733	 -0.193645
H	 -1.890610	 -2.142323	 -0.085726
H	 -1.285946	 -1.330893	 1.329189
C	 -3.489788	 0.042957	 0.286558
H	 -2.017067	 0.064384	 -1.280144
H	 -1.513726	 0.868678	 0.179924
C	 -4.216917	 1.317354	 -0.141063
H	 -4.025645	 -0.823308	 -0.095450
H	 -3.513059	 -0.038752	 1.371301
H	 -4.239342	 1.411634	 -1.223113
H	 -5.243387	 1.322503	 0.212445
H	 -3.726170	 2.201406	 0.256408

	symmetry c1
}
set optking {
	frozen_dihedral = ("
		14 10 7 4,
		10 7 4 8,
		8 4 3 2,
		10 13 16 20,
		20 16 19 22,
		4 3 2 1
	")
}

ee = energy('scf')
oeprop('DIPOLE', 'QUADRUPOLE', 'MULLIKEN_CHARGES')
f=open( 'psi4out.xyz', 'w' )
f.write( "27  " )
f.write( str(ee) + "\n" )
f.write( MOL.save_string_xyz() )
f.close()
--------------------------------------------------------------------------

    Molecular point group: c1

    Geometry (in Angstrom), charge = 0, multiplicity = 1:

       Center              X                  Y                   Z               Mass
    ------------   -----------------  -----------------  -----------------  -----------------
           H          1.843072423565    -3.596169658953    -0.114176967290     1.007825032070
           O          2.718241423565    -3.376820658953    -0.398846967290    15.994914619560
           C          2.659360423565    -2.373331658953    -1.380475967290    12.000000000000
           C          2.296660423565    -1.003184658953    -0.818450967290    12.000000000000
           H          3.646200423565    -2.336994658953    -1.823760967290     1.007825032070
           H          1.961070423565    -2.651972658953    -2.168846967290     1.007825032070
           C          0.895016423565    -0.932257658953    -0.207523967290    12.000000000000
           H          3.035558423565    -0.731203658953    -0.069169967290     1.007825032070
           H          2.377715423565    -0.274346658953    -1.623182967290     1.007825032070
           C          0.540739423565     0.468894341047     0.298519032710    12.000000000000
           H          0.826385423565    -1.642136658953     0.612065032710     1.007825032070
           H          0.159840423565    -1.239819658953    -0.951340967290     1.007825032070
           C         -0.884931576435     0.615549341047     0.842849032710    12.000000000000
           H          1.251908423565     0.761748341047     1.068793032710     1.007825032070
           H          0.671594423565     1.175284341047    -0.518542967290     1.007825032070
           C         -1.612977576435     1.890312341047     0.407640032710    12.000000000000
           H         -1.465788576435    -0.244277658953     0.515559032710     1.007825032070
           H         -0.861124576435     0.567152341047     1.930474032710     1.007825032070
           C         -3.064966576435     1.941002341047     0.887843032710    12.000000000000
           H         -1.592245576435     1.962429341047    -0.678858967290     1.007825032070
           H         -1.088904576435     2.766723341047     0.781209032710     1.007825032070
           C         -3.792095576435     3.215399341047     0.460222032710    12.000000000000
           H         -3.600823576435     1.074737341047     0.505835032710     1.007825032070
           H         -3.088237576435     1.859293341047     1.972586032710     1.007825032070
           H         -3.814520576435     3.309679341047    -0.621827967290     1.007825032070
           H         -4.818565576435     3.220548341047     0.813730032710     1.007825032070
           H         -3.301348576435     4.099451341047     0.857693032710     1.007825032070

  Charge       = 0
  Multiplicity = 1
  Basis Set: 6-31G*
  Basis Set:

    Orbital Energies (a.u.)
    -----------------------

    Doubly Occupied:

       1A    -20.552315     2A    -11.267196     3A    -11.221020
       4A    -11.216009     5A    -11.215915     6A    -11.215210
       7A    -11.215117     8A    -11.214275     9A    -11.209383
      10A     -1.359089    11A     -1.094216    12A     -1.062788
      13A     -1.011508    14A     -0.950400    15A     -0.883887
      16A     -0.819798    17A     -0.792294    18A     -0.790346
      19A     -0.694189    20A     -0.656503    21A     -0.634002
      22A     -0.614850    23A     -0.601681    24A     -0.584314
      25A     -0.578004    26A     -0.554792    27A     -0.534379
      28A     -0.525717    29A     -0.507780    30A     -0.498749
      31A     -0.478705    32A     -0.476576    33A     -0.469471
      34A     -0.459863    35A     -0.455268    36A     -0.442805
      37A     -0.421647

  @DF-RHF Final Energy:  -388.27856279369956

   => Energetics <=

    Nuclear Repulsion Energy =            451.8767995599845904
    One-Electron Energy =               -1421.7506471157189480
    Two-Electron Energy =                 581.5952847620319517
    DFT Exchange-Correlation Energy =       0.0000000000000000
    Empirical Dispersion Energy =           0.0000000000000000
    PCM Polarization Energy =               0.0000000000000000
    EFP Energy =                            0.0000000000000000
    Total Energy =                       -388.2785627937023492

  Mulliken Charges: (a.u.)
   Center  Symbol    Alpha    Beta     Spin     Total
       1     H     0.27992  0.27992  0.00000  0.44016
       2     O     4.37094  4.37094  0.00000 -0.74188
       3     C     2.99738  2.99738  0.00000  0.00525
       4     C     3.16193  3.16193  0.00000 -0.32386
       5     H     0.41436  0.41436  0.00000  0.17128
       6     H     0.43207  0.43207  0.00000  0.13587
       7     C     3.16321  3.16321  0.00000 -0.32641
       8     H     0.41486  0.41486  0.00000  0.17028
       9     H     0.42398  0.42398  0.00000  0.15204
      10     C     3.15279  3.15279  0.00000 -0.30558
      11     H     0.42426  0.42426  0.00000  0.15148
      12     H     0.42480  0.42480  0.00000  0.15039
      13     C     3.15460  3.15460  0.00000 -0.30921
      14     H     0.41940  0.41940  0.00000  0.16120
      15     H     0.42160  0.42160  0.00000  0.15680
      16     C     3.15235  3.15235  0.00000 -0.30469
      17     H     0.42334  0.42334  0.00000  0.15332
      18     H     0.42088  0.42088  0.00000  0.15823
      19     C     3.15213  3.15213  0.00000 -0.30425
      20     H     0.42425  0.42425  0.00000  0.15150
      21     H     0.42284  0.42284  0.00000  0.15433
      22     C     3.23928  3.23928  0.00000 -0.47856
      23     H     0.42320  0.42320  0.00000  0.15360
      24     H     0.42280  0.42280  0.00000  0.15440
      25     H     0.42195  0.42195  0.00000  0.15611
      26     H     0.41922  0.41922  0.00000  0.16156
      27     H     0.42168  0.42168  0.00000  0.15664

   Total alpha = 37.00000, Total beta = 37.00000, Total charge =  0.00000
