                              Psi4 1.0.54 Driver

  ==> Input File <==

--------------------------------------------------------------------------
set {
	reference rhf
	basis cc-pvtz
}

set_num_threads( 4 )
memory 2 gb

molecule MOL {
0 1

H	 1.372456	 0.347069	 -2.624704
C	 0.642271	 0.162767	 -1.847438
C	 1.322304	 0.099773	 -0.484271
H	 -0.091243	 0.960185	 -1.885525
H	 0.138131	 -0.768439	 -2.079899
C	 0.308557	 -0.162619	 0.622645
H	 1.832949	 1.032380	 -0.278797
H	 2.064957	 -0.688455	 -0.474132
N	 -1.069352	 -0.004081	 0.085342
H	 0.371632	 -1.172932	 0.991288
H	 0.400391	 0.548875	 1.426218
O	 -1.584901	 -0.965470	 -0.377818
O	 -1.548033	 1.079343	 0.130056

	symmetry c1
}
set optking {
	frozen_dihedral = ("
		7 3 6 9
	")
}

ee,wfn = optimize('scf', return_wfn=True)
oeprop( wfn, 'DIPOLE', 'QUADRUPOLE', 'MULLIKEN_CHARGES')
f=open( 'psi4out.xyz', 'w' )
f.write( "13  " )
f.write( str(ee) + "\n" )
f.write( MOL.save_string_xyz() )
f.close()
--------------------------------------------------------------------------

    Molecular point group: c1
  Charge       = 0
  Multiplicity = 1
  Basis Set: CC-PVTZ
  Basis Set:
  @DF-RHF Final Energy:  -321.84949038853534
    Total Energy =                       -321.8494903885354006
    Molecular point group: c1
  Basis Set: CC-PVTZ
  Basis Set:
  Basis Set: CC-PVTZ
  Basis Set:
  @DF-RHF Final Energy:  -321.84833967769646
    Total Energy =                       -321.8483396776966856
  Basis Set: CC-PVTZ
  Basis Set:
  Basis Set: CC-PVTZ
  Basis Set:
  @DF-RHF Final Energy:  -321.85272272641117
    Total Energy =                       -321.8527227264111161
  Basis Set: CC-PVTZ
  Basis Set:
  Basis Set: CC-PVTZ
  Basis Set:
  @DF-RHF Final Energy:  -321.85414103887763
    Total Energy =                       -321.8541410388776853
  Basis Set: CC-PVTZ
  Basis Set:
  @DF-RHF Final Energy:  -321.85423332768920
    Total Energy =                       -321.8542333276892009
  @DF-RHF Final Energy:  -321.85425842766756
    Total Energy =                       -321.8542584276674461
  Basis Set: CC-PVTZ
  Basis Set:
  @DF-RHF Final Energy:  -321.85427183824891
    Total Energy =                       -321.8542718382489056
  Basis Set: CC-PVTZ
  Basis Set:
  Basis Set: CC-PVTZ
  Basis Set:
  @DF-RHF Final Energy:  -321.85428538924486
    Total Energy =                       -321.8542853892446374
  Basis Set: CC-PVTZ
  Basis Set:
  Basis Set: CC-PVTZ
  Basis Set:
  @DF-RHF Final Energy:  -321.85428731180485
    Total Energy =                       -321.8542873118051375
  Basis Set: CC-PVTZ
  Basis Set:
  Charge       = 0
  Multiplicity = 1
  Basis Set: CC-PVTZ
  Basis Set:

    Orbital Energies (a.u.)
    -----------------------

    Doubly Occupied:

       1A    -20.591812     2A    -20.589498     3A    -15.836797
       4A    -11.297387     5A    -11.255202     6A    -11.227460
       7A     -1.636227     8A     -1.420339     9A     -1.128532
      10A     -1.022159    11A     -0.896376    12A     -0.822588
      13A     -0.754337    14A     -0.738456    15A     -0.729186
      16A     -0.666539    17A     -0.606963    18A     -0.589571
      19A     -0.538614    20A     -0.518061    21A     -0.510548
      22A     -0.480723    23A     -0.475587    24A     -0.453647

  @DF-RHF Final Energy:  -321.85428757624157

   => Energetics <=

    Nuclear Repulsion Energy =            254.7746869199582420
    One-Electron Energy =                -943.6847295125712662
    Two-Electron Energy =                 367.0557550163716769
    DFT Exchange-Correlation Energy =       0.0000000000000000
    Empirical Dispersion Energy =           0.0000000000000000
    PCM Polarization Energy =               0.0000000000000000
    EFP Energy =                            0.0000000000000000
    Total Energy =                       -321.8542875762414042
    Molecular point group: c1
  Basis Set: CC-PVTZ
  Basis Set:

  -Total Gradient:
     Atom            X                  Y                   Z
    ------   -----------------  -----------------  -----------------
       1        0.000000099375     0.000003009295     0.000006293810
       2        0.000002782027    -0.000012253009    -0.000028319770
       3       -0.003818825793     0.001677053390    -0.002602399981
       4        0.000000635896    -0.000001352209    -0.000003470631
       5        0.000003098701     0.000001682968    -0.000007138476
       6        0.000921619946     0.003613758187     0.001698764758
       7        0.003076023988    -0.002278923045     0.001860755367
       8        0.000002329679     0.000001437223    -0.000000845601
       9       -0.000190317366    -0.003010400497    -0.000937775744
      10       -0.000002503004     0.000002290178     0.000006793287
      11        0.000002210973     0.000001540845    -0.000001973633
      12        0.000013387026     0.000020499428    -0.000005811947
      13       -0.000010541449    -0.000018342753     0.000015128562

  **** Optimization is complete! (in 10 steps) ****
    Final optimized geometry and variables:
    Molecular point group: c1

    Geometry (in Angstrom), charge = 0, multiplicity = 1:

    H            1.804096110709     0.354706934920    -2.444545054940
    C            1.029747095973     0.163415976384    -1.712906224450
    C            1.659303221658     0.079052958321    -0.325425546553
    H            0.306597244579     0.965588802197    -1.776860007761
    H            0.535562121623    -0.761080599952    -1.982108453325
    C            0.710535061628    -0.241054992296     0.851274431362
    H            2.195987216312     0.990105087418    -0.097043501584
    H            2.408247955325    -0.703725380258    -0.330891589347
    N           -0.720198059156    -0.050864558434     0.489868369072
    H            0.784282911886    -1.272315747727     1.148250828484
    H            0.886594553440     0.406721155796     1.692412264548
    O           -1.330926110317    -1.007884267393     0.151698116913
    O           -1.151188791851     1.052614053725     0.548866646929

  Mulliken Charges: (a.u.)
   Center  Symbol    Alpha    Beta     Spin     Total
       1     H     0.44579  0.44579  0.00000  0.10842
       2     C     3.15289  3.15289  0.00000 -0.30578
       3     C     3.09362  3.09362  0.00000 -0.18724
       4     H     0.44255  0.44255  0.00000  0.11490
       5     H     0.44329  0.44329  0.00000  0.11342
       6     C     3.04037  3.04037  0.00000 -0.08074
       7     H     0.44374  0.44374  0.00000  0.11251
       8     H     0.44726  0.44726  0.00000  0.10548
       9     N     3.27559  3.27559  0.00000  0.44883
      10     H     0.43434  0.43434  0.00000  0.13131
      11     H     0.43164  0.43164  0.00000  0.13672
      12     O     4.17401  4.17401  0.00000 -0.34803
      13     O     4.17490  4.17490  0.00000 -0.34980

   Total alpha = 24.00000, Total beta = 24.00000, Total charge =  0.00000

*** Psi4 exiting successfully. Buy a developer a beer!
