  ==> Input File <==

--------------------------------------------------------------------------
set {
	reference rhf
	basis 6-31G*
}

set_num_threads( 1 )
memory 2 gb

molecule MOL {
0 1

H	 -0.000158	 1.970498	 0.756846
O	 -0.000074	 1.880206	 -0.189275
C	 -0.000015	 0.544847	 -0.545111
C	 -1.278788	 -0.123820	 -0.051541
C	 1.278802	 -0.123718	 -0.051505
H	 -0.000001	 0.490777	 -1.623619
F	 -1.223706	 -0.273515	 1.254638
F	 -2.352649	 0.582139	 -0.335802
F	 -1.419765	 -1.324547	 -0.590036
F	 2.323327	 0.466644	 -0.591854
F	 1.326242	 -1.401483	 -0.363667
F	 1.388946	 -0.015632	 1.262939

	symmetry c1
}
set optking {
	frozen_dihedral = ("
		6 3 2 1
	")
}

ee = energy('scf')
oeprop('DIPOLE', 'QUADRUPOLE', 'MULLIKEN_CHARGES')
f=open( 'psi4out.xyz', 'w' )
f.write( "12  " )
f.write( str(ee) + "\n" )
f.write( MOL.save_string_xyz() )
f.close()
--------------------------------------------------------------------------

    Molecular point group: c1

    Geometry (in Angstrom), charge = 0, multiplicity = 1:

       Center              X                  Y                   Z               Mass
    ------------   -----------------  -----------------  -----------------  -----------------
           H         -0.004944170995     1.977857296872     0.754415960000     1.007825032070
           O         -0.004860170995     1.887565296872    -0.191705040000    15.994914619560
           C         -0.004801170995     0.552206296872    -0.547541040000    12.000000000000
           C         -1.283574170995    -0.116460703128    -0.053971040000    12.000000000000
           C          1.274015829005    -0.116358703128    -0.053935040000    12.000000000000
           H         -0.004787170995     0.498136296872    -1.626049040000     1.007825032070
           F         -1.228492170995    -0.266155703128     1.252207960000    18.998403224000
           F         -2.357435170995     0.589498296872    -0.338232040000    18.998403224000
           F         -1.424551170995    -1.317187703128    -0.592466040000    18.998403224000
           F          2.318540829005     0.474003296872    -0.594284040000    18.998403224000
           F          1.321455829005    -1.394123703128    -0.366097040000    18.998403224000
           F          1.384159829005    -0.008272703128     1.260508960000    18.998403224000

  Charge       = 0
  Multiplicity = 1
  Basis Set: 6-31G*
  Basis Set:

    Orbital Energies (a.u.)
    -----------------------

    Doubly Occupied:

       1A    -26.362692     2A    -26.362395     3A    -26.361575
       4A    -26.360849     5A    -26.358522     6A    -26.357993
       7A    -20.617037     8A    -11.526569     9A    -11.525419
      10A    -11.348989    11A     -1.764810    12A     -1.758471
      13A     -1.661794    14A     -1.659014    15A     -1.655661
      16A     -1.654570    17A     -1.435707    18A     -1.101688
      19A     -0.996817    20A     -0.938482    21A     -0.863308
      22A     -0.862858    23A     -0.851702    24A     -0.843962
      25A     -0.832317    26A     -0.815186    27A     -0.743772
      28A     -0.727549    29A     -0.724289    30A     -0.717418
      31A     -0.688873    32A     -0.685083    33A     -0.683829
      34A     -0.673571    35A     -0.669100    36A     -0.662709
      37A     -0.656537    38A     -0.653314    39A     -0.621138
      40A     -0.549665    41A     -0.506636

  @DF-RHF Final Energy:  -786.27651726382760

   => Energetics <=

    Nuclear Repulsion Energy =            671.2224201058602375
    One-Electron Energy =               -2429.3145336244351711
    Two-Electron Energy =                 971.8155962547450599
    DFT Exchange-Correlation Energy =       0.0000000000000000
    Empirical Dispersion Energy =           0.0000000000000000
    PCM Polarization Energy =               0.0000000000000000
    EFP Energy =                            0.0000000000000000
    Total Energy =                       -786.2765172638298736

  Mulliken Charges: (a.u.)
   Center  Symbol    Alpha    Beta     Spin     Total
       1     H     0.26677  0.26677  0.00000  0.46646
       2     O     4.36208  4.36208  0.00000 -0.72416
       3     C     3.04520  3.04520  0.00000 -0.09040
       4     C     2.44837  2.44837  0.00000  1.10326
       5     C     2.44491  2.44491  0.00000  1.11019
       6     H     0.37603  0.37603  0.00000  0.24793
       7     F     4.67727  4.67727  0.00000 -0.35455
       8     F     4.67274  4.67274  0.00000 -0.34548
       9     F     4.67811  4.67811  0.00000 -0.35622
      10     F     4.67471  4.67471  0.00000 -0.34941
      11     F     4.67343  4.67343  0.00000 -0.34687
      12     F     4.68038  4.68038  0.00000 -0.36076

   Total alpha = 41.00000, Total beta = 41.00000, Total charge =  0.00000
