                              Psi4 1.0.54 Driver

  ==> Input File <==

--------------------------------------------------------------------------
set {
	reference rhf
	basis cc-pvtz
}

set_num_threads( 4 )
memory 2 gb

molecule MOL {
0 1

O	 0.990519	 0.278286	 -0.930934
C	 1.704209	 0.119472	 -0.000093
C	 1.595477	 0.839522	 1.319508
O	 2.715427	 -0.733672	 0.000025
C	 0.447989	 1.837416	 1.381167
H	 1.499943	 0.082512	 2.091038
H	 2.548949	 1.325303	 1.499367
C	 0.367784	 2.547280	 2.729380
H	 -0.484554	 1.322441	 1.180073
H	 0.565539	 2.566537	 0.587533
C	 -0.777134	 3.552817	 2.810159
H	 0.252463	 1.810324	 3.521117
H	 1.307210	 3.059046	 2.926391
C	 -0.857646	 4.261961	 4.157766
H	 -1.716027	 3.042569	 2.614493
H	 -0.662077	 4.290313	 2.020842
H	 -1.007451	 3.552883	 4.965232
H	 -1.680040	 4.967545	 4.181309
H	 0.054675	 4.810819	 4.366715
C	 4.020999	 -0.192556	 0.000019
H	 4.182809	 0.412891	 -0.879449
H	 4.692590	 -1.035653	 0.000152
H	 4.182726	 0.413087	 0.879368

	symmetry c1
}
set optking {
	frozen_dihedral = ("
		1 2 4 20
	")
}

ee,wfn = optimize('scf', return_wfn=True)
oeprop( wfn, 'DIPOLE', 'QUADRUPOLE', 'MULLIKEN_CHARGES')
f=open( 'psi4out.xyz', 'w' )
f.write( "23  " )
f.write( str(ee) + "\n" )
f.write( MOL.save_string_xyz() )
f.close()
--------------------------------------------------------------------------

    Molecular point group: c1
  Charge       = 0
  Multiplicity = 1
  Basis Set: CC-PVTZ
  Basis Set:
  @DF-RHF Final Energy:  -423.10777631201461
    Total Energy =                       -423.1077763120146074
    Molecular point group: c1
  Basis Set: CC-PVTZ
  Basis Set:
  Basis Set: CC-PVTZ
  Basis Set:
  @DF-RHF Final Energy:  -423.10651055494770
    Total Energy =                       -423.1065105549480450
  Basis Set: CC-PVTZ
  Basis Set:
  Basis Set: CC-PVTZ
  Basis Set:
  @DF-RHF Final Energy:  -423.10987005958413
    Total Energy =                       -423.1098700595845230
  Basis Set: CC-PVTZ
  Basis Set:
  Basis Set: CC-PVTZ
  Basis Set:
  @DF-RHF Final Energy:  -423.11079607318590
    Total Energy =                       -423.1107960731862931
  Basis Set: CC-PVTZ
  Basis Set:
  Basis Set: CC-PVTZ
  Basis Set:
  @DF-RHF Final Energy:  -423.11084154488560
    Total Energy =                       -423.1108415448856022
  Basis Set: CC-PVTZ
  Basis Set:
  Basis Set: CC-PVTZ
  Basis Set:
  @DF-RHF Final Energy:  -423.11085146108172
    Total Energy =                       -423.1108514610812108
  Basis Set: CC-PVTZ
  Basis Set:
  Charge       = 0
  Multiplicity = 1
  Basis Set: CC-PVTZ
  Basis Set:

    Orbital Energies (a.u.)
    -----------------------

    Doubly Occupied:

       1A    -20.579468     2A    -20.543518     3A    -11.367430
       4A    -11.290729     5A    -11.239407     6A    -11.220704
       7A    -11.218975     8A    -11.216875     9A    -11.209792
      10A     -1.461254    11A     -1.369940    12A     -1.096737
      13A     -1.042698    14A     -0.981286    15A     -0.947349
      16A     -0.852600    17A     -0.798643    18A     -0.766406
      19A     -0.698768    20A     -0.680236    21A     -0.678916
      22A     -0.652578    23A     -0.621540    24A     -0.607244
      25A     -0.581080    26A     -0.569705    27A     -0.557885
      28A     -0.538330    29A     -0.511309    30A     -0.498846
      31A     -0.487194    32A     -0.481916    33A     -0.471229
      34A     -0.468825    35A     -0.452714    36A     -0.434508

  @DF-RHF Final Energy:  -423.11085204709565

   => Energetics <=

    Nuclear Repulsion Energy =            453.9028154106263742
    One-Electron Energy =               -1475.6340686017788357
    Two-Electron Energy =                 598.6204011440568138
    DFT Exchange-Correlation Energy =       0.0000000000000000
    Empirical Dispersion Energy =           0.0000000000000000
    PCM Polarization Energy =               0.0000000000000000
    EFP Energy =                            0.0000000000000000
    Total Energy =                       -423.1108520470957046
    Molecular point group: c1
  Basis Set: CC-PVTZ
  Basis Set:

  -Total Gradient:
     Atom            X                  Y                   Z
    ------   -----------------  -----------------  -----------------
       1        0.000396964159     0.000614976578    -0.000264607136
       2       -0.000604840385    -0.000925017961     0.000074096372
       3       -0.000006135549     0.000031071209    -0.000052290657
       4        0.000220587692     0.000279549752     0.000833063540
       5        0.000014601163    -0.000011215545     0.000014684272
       6       -0.000002828578    -0.000010063124    -0.000004049635
       7       -0.000001434250    -0.000006231757     0.000015348768
       8       -0.000001262233     0.000003181849    -0.000017192816
       9        0.000003536914     0.000000756185    -0.000000241683
      10        0.000001208009     0.000004403084    -0.000000199085
      11        0.000004885645    -0.000003495116     0.000014777644
      12        0.000000206398     0.000001720716    -0.000003708100
      13       -0.000002598218     0.000000232323    -0.000001339021
      14       -0.000015523558     0.000010310760    -0.000000362438
      15        0.000000720340     0.000001347675     0.000000554163
      16        0.000001431145    -0.000000656433     0.000004042016
      17        0.000000005081     0.000000055097    -0.000003447363
      18       -0.000001390604     0.000004441634     0.000009605649
      19       -0.000001020576    -0.000001777439    -0.000002236292
      20       -0.000024040268    -0.000011209680    -0.000614017082
      21       -0.000019303519    -0.000006544912     0.000006287528
      22        0.000022708388     0.000024616091     0.000006953702
      23        0.000013522810    -0.000000450988    -0.000015722351

  **** Optimization is complete! (in 7 steps) ****
    Final optimized geometry and variables:
    Molecular point group: c1

    Geometry (in Angstrom), charge = 0, multiplicity = 1:

    O           -0.109671894748    -0.939409939708    -2.214172846915
    C            0.639162450786    -1.093276458921    -1.320851039197
    C            0.489563539830    -0.455566236296     0.039260520502
    O            1.687071720986    -1.934400830386    -1.439352334773
    C           -0.746024510191     0.423023875535     0.176932655382
    H            0.480840536931    -1.263667243070     0.764272307424
    H            1.387869403121     0.116955233782     0.247572922236
    C           -0.868494799552     1.041685363425     1.566332888605
    H           -1.627887477802    -0.167335906865    -0.042996845351
    H           -0.713273858824     1.204910761891    -0.573328224449
    C           -2.105162210163     1.921780851030     1.723300288750
    H           -0.895016758316     0.252043534859     2.313935501295
    H            0.019483743338     1.632597662876     1.780778189524
    C           -2.228010332935     2.540069354972     3.111805914440
    H           -2.992631824179     1.332474605574     1.511061014766
    H           -2.079419607005     2.711472801604     0.977750146019
    H           -2.290947569783     1.773988322344     3.877535503562
    H           -3.115359737429     3.157532830865     3.189030935934
    H           -1.370349297131     3.164237470981     3.340123496391
    C            2.985823800728    -1.394844674710    -1.502468416725
    H            3.058153235991    -0.660030655663    -2.295285209134
    H            3.648666679391    -2.215804223803    -1.722396294246
    H            3.282301077565    -0.946459583718    -0.562190134613

  Mulliken Charges: (a.u.)
   Center  Symbol    Alpha    Beta     Spin     Total
       1     O     4.16718  4.16718  0.00000 -0.33436
       2     C     2.78752  2.78752  0.00000  0.42495
       3     C     3.12907  3.12907  0.00000 -0.25815
       4     O     4.16115  4.16115  0.00000 -0.32229
       5     C     3.08404  3.08404  0.00000 -0.16808
       6     H     0.43688  0.43688  0.00000  0.12623
       7     H     0.44543  0.44543  0.00000  0.10914
       8     C     3.08779  3.08779  0.00000 -0.17559
       9     H     0.44378  0.44378  0.00000  0.11244
      10     H     0.44591  0.44591  0.00000  0.10818
      11     C     3.08467  3.08467  0.00000 -0.16934
      12     H     0.45523  0.45523  0.00000  0.08955
      13     H     0.45656  0.45656  0.00000  0.08687
      14     C     3.15029  3.15029  0.00000 -0.30059
      15     H     0.45248  0.45248  0.00000  0.09504
      16     H     0.45310  0.45310  0.00000  0.09379
      17     H     0.45510  0.45510  0.00000  0.08981
      18     H     0.44730  0.44730  0.00000  0.10539
      19     H     0.45557  0.45557  0.00000  0.08887
      20     C     3.04109  3.04109  0.00000 -0.08218
      21     H     0.45795  0.45795  0.00000  0.08410
      22     H     0.43876  0.43876  0.00000  0.12248
      23     H     0.46314  0.46314  0.00000  0.07372

   Total alpha = 36.00000, Total beta = 36.00000, Total charge =  0.00000

*** Psi4 exiting successfully. Buy a developer a beer!
