                              Psi4 1.0.54 Driver

  ==> Input File <==

--------------------------------------------------------------------------
set {
	reference rhf
	basis cc-pvtz
}

set_num_threads( 4 )
memory 2 gb

molecule MOL {
0 1

H	 -3.401682	 -1.036167	 0.000000
O	 -3.113760	 -0.140926	 0.000000
C	 -1.775087	 -0.058754	 0.000000
C	 -1.050970	 0.190495	 -1.159295
C	 -1.123158	 -0.232414	 1.209551
H	 -1.563876	 0.324118	 -2.093907
C	 0.320533	 0.264754	 -1.103099
H	 -1.700403	 -0.423690	 2.091719
C	 0.250704	 -0.155015	 1.248793
H	 0.890652	 0.456500	 -1.990402
C	 0.988522	 0.092977	 0.101374
H	 0.757516	 -0.289583	 2.186637
C	 2.459665	 0.171518	 0.167955
O	 3.172150	 0.378661	 -0.757038
H	 2.881778	 0.020865	 1.167418

	symmetry c1
}
set optking {
	frozen_dihedral = ("
		5 3 2 1
	")
}

ee,wfn = optimize('scf', return_wfn=True)
oeprop( wfn, 'DIPOLE', 'QUADRUPOLE', 'MULLIKEN_CHARGES')
f=open( 'psi4out.xyz', 'w' )
f.write( "15  " )
f.write( str(ee) + "\n" )
f.write( MOL.save_string_xyz() )
f.close()
--------------------------------------------------------------------------

    Molecular point group: c1
  Charge       = 0
  Multiplicity = 1
  Basis Set: CC-PVTZ
  Basis Set:
  @DF-RHF Final Energy:  -418.43572239343143
    Total Energy =                       -418.4357223934307513
    Molecular point group: c1
  Basis Set: CC-PVTZ
  Basis Set:
  Basis Set: CC-PVTZ
  Basis Set:
  @DF-RHF Final Energy:  -418.43684947401135
    Total Energy =                       -418.4368494740110691
  Basis Set: CC-PVTZ
  Basis Set:
  Basis Set: CC-PVTZ
  Basis Set:
  @DF-RHF Final Energy:  -418.43680434163406
    Total Energy =                       -418.4368043416338878
  Basis Set: CC-PVTZ
  Basis Set:
  Basis Set: CC-PVTZ
  Basis Set:
  @DF-RHF Final Energy:  -418.43670122490335
    Total Energy =                       -418.4367012249031177
  Basis Set: CC-PVTZ
  Basis Set:
  Basis Set: CC-PVTZ
  Basis Set:
  @DF-RHF Final Energy:  -418.43693567227461
    Total Energy =                       -418.4369356722747852
  Basis Set: CC-PVTZ
  Basis Set:
  Charge       = 0
  Multiplicity = 1
  Basis Set: CC-PVTZ
  Basis Set:

    Orbital Energies (a.u.)
    -----------------------

    Doubly Occupied:

       1A    -20.587948     2A    -20.550721     3A    -11.326366
       4A    -11.312601     5A    -11.258176     6A    -11.251498
       7A    -11.243323     8A    -11.241900     9A    -11.239880
      10A     -1.417077    11A     -1.406836    12A     -1.175704
      13A     -1.045368    14A     -1.040589    15A     -0.891479
      16A     -0.860536    17A     -0.801220    18A     -0.756167
      19A     -0.707991    20A     -0.680334    21A     -0.649263
      22A     -0.636582    23A     -0.622706    24A     -0.609906
      25A     -0.564970    26A     -0.558593    27A     -0.540993
      28A     -0.502696    29A     -0.487684    30A     -0.425237
      31A     -0.359816    32A     -0.345901

  @DF-RHF Final Energy:  -418.43693730547670

   => Energetics <=

    Nuclear Repulsion Energy =            401.6994264728688222
    One-Electron Energy =               -1366.0726050122375455
    Two-Electron Energy =                 545.9362412338919057
    DFT Exchange-Correlation Energy =       0.0000000000000000
    Empirical Dispersion Energy =           0.0000000000000000
    PCM Polarization Energy =               0.0000000000000000
    EFP Energy =                            0.0000000000000000
    Total Energy =                       -418.4369373054768175
    Molecular point group: c1
  Basis Set: CC-PVTZ
  Basis Set:

  -Total Gradient:
     Atom            X                  Y                   Z
    ------   -----------------  -----------------  -----------------
       1        0.000042663416    -0.000031571911    -0.001163196217
       2       -0.000147484693     0.000436932856     0.001512629257
       3        0.000155685060    -0.001155989793    -0.000733400008
       4       -0.000249943295    -0.000062085932     0.000111495363
       5        0.000161165317     0.000837258538     0.000243784754
       6        0.000005383034     0.000007527439     0.000001982125
       7        0.000218478714    -0.000046804988     0.000136395484
       8        0.000000820753     0.000007973552    -0.000013695486
       9       -0.000172064547    -0.000092925674     0.000100660276
      10       -0.000019363595     0.000007683984    -0.000000651175
      11        0.000007036392     0.000068418593    -0.000227001080
      12        0.000020604754     0.000014496535    -0.000005593454
      13       -0.000037462812     0.000030230915     0.000101308506
      14        0.000015706285    -0.000008698960    -0.000048814236
      15       -0.000001224782    -0.000012445156    -0.000015904110

  **** Optimization is complete! (in 6 steps) ****
    Final optimized geometry and variables:
    Molecular point group: c1

    Geometry (in Angstrom), charge = 0, multiplicity = 1:

    H           -3.438981310601    -1.056706220756     0.009579075903
    O           -3.125253048430    -0.168938147104     0.000701353821
    C           -1.764945199305    -0.132677548191     0.054180988191
    C           -1.050637985371     0.126708211811    -1.105653650932
    C           -1.111955356223    -0.292885173713     1.260303469785
    H           -1.583932347544     0.263413976602    -2.025555800407
    C            0.320988814233     0.212479734654    -1.056408698349
    H           -1.682729510750    -0.470232464175     2.150628634388
    C            0.266121368700    -0.209322492768     1.299670342690
    H            0.888653802630     0.411911460622    -1.943469137450
    C            0.991044761998     0.041543654738     0.148533879063
    H            0.778107685607    -0.334456142852     2.235886662100
    C            2.466164814262     0.130482590194     0.213173912269
    O            3.173006580758     0.337263689609    -0.714560907095
    H            2.890504509031    -0.012849432574     1.212619638263

  Mulliken Charges: (a.u.)
   Center  Symbol    Alpha    Beta     Spin     Total
       1     H     0.38613  0.38613  0.00000  0.22774
       2     O     4.18601  4.18601  0.00000 -0.37201
       3     C     2.86580  2.86580  0.00000  0.26841
       4     C     3.10611  3.10611  0.00000 -0.21223
       5     C     3.11237  3.11237  0.00000 -0.22475
       6     H     0.41267  0.41267  0.00000  0.17465
       7     C     3.06985  3.06985  0.00000 -0.13970
       8     H     0.41544  0.41544  0.00000  0.16912
       9     C     3.07838  3.07838  0.00000 -0.15676
      10     H     0.40674  0.40674  0.00000  0.18652
      11     C     2.99531  2.99531  0.00000  0.00938
      12     H     0.42088  0.42088  0.00000  0.15823
      13     C     2.91020  2.91020  0.00000  0.17961
      14     O     4.17491  4.17491  0.00000 -0.34983
      15     H     0.45918  0.45918  0.00000  0.08163

   Total alpha = 32.00000, Total beta = 32.00000, Total charge = -0.00000

*** Psi4 exiting successfully. Buy a developer a beer!
