  ==> Input File <==

--------------------------------------------------------------------------
set {
	reference rhf
	basis 6-31G*
}

set_num_threads( 1 )
memory 2 gb

molecule MOL {
0 1

O	 3.221680	 1.124933	 -0.106960
C	 2.701189	 0.057885	 -0.047330
C	 1.251348	 -0.232511	 -0.351341
O	 3.347903	 -1.046386	 0.304773
C	 0.467000	 1.007716	 -0.774127
H	 1.234428	 -1.004096	 -1.113942
H	 0.819082	 -0.684442	 0.537817
C	 -1.028871	 0.749818	 -0.984724
H	 0.901553	 1.414517	 -1.682310
H	 0.592213	 1.771579	 -0.014353
C	 -1.365518	 -0.173255	 -2.159337
H	 -1.516549	 1.708488	 -1.145484
H	 -1.458763	 0.342582	 -0.070743
C	 -2.870957	 -0.310900	 -2.395360
H	 -0.893659	 0.210619	 -3.062558
H	 -0.944672	 -1.162022	 -1.991405
C	 -3.219336	 -1.235167	 -3.563475
H	 -3.298039	 0.673789	 -2.577632
H	 -3.344869	 -0.684574	 -1.489008
C	 -4.724494	 -1.364174	 -3.794899
H	 -2.745734	 -0.863777	 -4.469793
H	 -2.796992	 -2.221134	 -3.381060
H	 -4.939445	 -2.025300	 -4.628755
H	 -5.171491	 -0.398723	 -4.014661
H	 -5.223120	 -1.765960	 -2.917281
C	 4.728119	 -1.109107	 -0.004993
H	 4.882018	 -1.033965	 -1.071845
H	 5.068212	 -2.067527	 0.355250
H	 5.265056	 -0.311663	 0.488280

	symmetry c1
}
set optking {
	frozen_dihedral = ("
		21 17 14 11,
		17 14 11 15,
		15 11 8 5,
		6 3 5 9,
		11 8 5 9,
		2 4 26 27,
		6 3 2 1
	")
}

ee = energy('scf')
oeprop('DIPOLE', 'QUADRUPOLE', 'MULLIKEN_CHARGES')
f=open( 'psi4out.xyz', 'w' )
f.write( "29  " )
f.write( str(ee) + "\n" )
f.write( MOL.save_string_xyz() )
f.close()
--------------------------------------------------------------------------

    Molecular point group: c1

    Geometry (in Angstrom), charge = 0, multiplicity = 1:

       Center              X                  Y                   Z               Mass
    ------------   -----------------  -----------------  -----------------  -----------------
           O          2.951873302765     1.366663395620     1.146717442121    15.994914619560
           C          2.431382302765     0.299615395620     1.206347442121    12.000000000000
           C          0.981541302765     0.009219395620     0.902336442121    12.000000000000
           O          3.078096302765    -0.804655604380     1.558450442121    15.994914619560
           C          0.197193302765     1.249446395620     0.479550442121    12.000000000000
           H          0.964621302765    -0.762365604380     0.139735442121     1.007825032070
           H          0.549275302765    -0.442711604380     1.791494442121     1.007825032070
           C         -1.298677697235     0.991548395620     0.268953442121    12.000000000000
           H          0.631746302765     1.656247395620    -0.428632557879     1.007825032070
           H          0.322406302765     2.013309395620     1.239324442121     1.007825032070
           C         -1.635324697235     0.068475395620    -0.905659557879    12.000000000000
           H         -1.786355697235     1.950218395620     0.108193442121     1.007825032070
           H         -1.728569697235     0.584312395620     1.182934442121     1.007825032070
           C         -3.140763697235    -0.069169604380    -1.141682557879    12.000000000000
           H         -1.163465697235     0.452349395620    -1.808880557879     1.007825032070
           H         -1.214478697235    -0.920291604380    -0.737727557879     1.007825032070
           C         -3.489142697235    -0.993436604380    -2.309797557879    12.000000000000
           H         -3.567845697235     0.915519395620    -1.323954557879     1.007825032070
           H         -3.614675697235    -0.442843604380    -0.235330557879     1.007825032070
           C         -4.994300697235    -1.122443604380    -2.541221557879    12.000000000000
           H         -3.015540697235    -0.622046604380    -3.216115557879     1.007825032070
           H         -3.066798697235    -1.979403604380    -2.127382557879     1.007825032070
           H         -5.209251697235    -1.783569604380    -3.375077557879     1.007825032070
           H         -5.441297697235    -0.156992604380    -2.760983557879     1.007825032070
           H         -5.492926697235    -1.524229604380    -1.663603557879     1.007825032070
           C          4.458312302765    -0.867376604380     1.248684442121    12.000000000000
           H          4.612211302765    -0.792234604380     0.181832442121     1.007825032070
           H          4.798405302765    -1.825796604380     1.608927442121     1.007825032070
           H          4.995249302765    -0.069932604380     1.741957442121     1.007825032070

  Charge       = 0
  Multiplicity = 1
  Basis Set: 6-31G*
  Basis Set:

    Orbital Energies (a.u.)
    -----------------------

    Doubly Occupied:

       1A    -20.598674     2A    -20.546977     3A    -11.372399
       4A    -11.282991     5A    -11.234838     6A    -11.219076
       7A    -11.217733     8A    -11.216389     9A    -11.216240
      10A    -11.214773    11A    -11.209364    12A     -1.467629
      13A     -1.362948    14A     -1.098219    15A     -1.066808
      16A     -1.019020    17A     -0.977602    18A     -0.929946
      19A     -0.862379    20A     -0.799728    21A     -0.790885
      22A     -0.763928    23A     -0.700638    24A     -0.681196
      25A     -0.671556    26A     -0.651602    27A     -0.628473
      28A     -0.606468    29A     -0.596162    30A     -0.582609
      31A     -0.568232    32A     -0.547660    33A     -0.536616
      34A     -0.530102    35A     -0.514164    36A     -0.509680
      37A     -0.498534    38A     -0.478271    39A     -0.470464
      40A     -0.462631    41A     -0.461162    42A     -0.452537
      43A     -0.440771    44A     -0.434113

  @DF-RHF Final Energy:  -501.03883038812978

   => Energetics <=

    Nuclear Repulsion Energy =            610.7586758981528874
    One-Electron Energy =               -1892.6105626234989359
    Two-Electron Energy =                 780.8130563372159259
    DFT Exchange-Correlation Energy =       0.0000000000000000
    Empirical Dispersion Energy =           0.0000000000000000
    PCM Polarization Energy =               0.0000000000000000
    EFP Energy =                            0.0000000000000000
    Total Energy =                       -501.0388303881301226

  Mulliken Charges: (a.u.)
   Center  Symbol    Alpha    Beta     Spin     Total
       1     O     4.28088  4.28088  0.00000 -0.56176
       2     C     2.60451  2.60451  0.00000  0.79098
       3     C     3.21083  3.21083  0.00000 -0.42167
       4     O     4.30882  4.30882  0.00000 -0.61764
       5     C     3.15426  3.15426  0.00000 -0.30852
       6     H     0.40080  0.40080  0.00000  0.19839
       7     H     0.40025  0.40025  0.00000  0.19949
       8     C     3.15651  3.15651  0.00000 -0.31302
       9     H     0.41370  0.41370  0.00000  0.17260
      10     H     0.40824  0.40824  0.00000  0.18351
      11     C     3.15504  3.15504  0.00000 -0.31009
      12     H     0.41826  0.41826  0.00000  0.16348
      13     H     0.42362  0.42362  0.00000  0.15276
      14     C     3.15029  3.15029  0.00000 -0.30058
      15     H     0.42289  0.42289  0.00000  0.15421
      16     H     0.42384  0.42384  0.00000  0.15232
      17     C     3.15145  3.15145  0.00000 -0.30290
      18     H     0.42324  0.42324  0.00000  0.15352
      19     H     0.42383  0.42383  0.00000  0.15233
      20     C     3.23935  3.23935  0.00000 -0.47871
      21     H     0.42291  0.42291  0.00000  0.15417
      22     H     0.42353  0.42353  0.00000  0.15293
      23     H     0.41925  0.41925  0.00000  0.16151
      24     H     0.42149  0.42149  0.00000  0.15701
      25     H     0.42175  0.42175  0.00000  0.15650
      26     C     3.09444  3.09444  0.00000 -0.18888
      27     H     0.41533  0.41533  0.00000  0.16933
      28     H     0.40740  0.40740  0.00000  0.18520
      29     H     0.40326  0.40326  0.00000  0.19349

   Total alpha = 44.00000, Total beta = 44.00000, Total charge =  0.00000
