  ==> Input File <==

--------------------------------------------------------------------------
set {
	reference rhf
	basis 6-31G*
}

set_num_threads( 4 )
memory 2 gb

molecule MOL {
0 1

O	 0.761668	 1.284737	 -0.221842
C	 0.576249	 0.131685	 -0.000108
C	 -0.766779	 -0.556801	 -0.000461
O	 1.553353	 -0.720055	 0.283562
C	 -1.945214	 0.412366	 0.000161
H	 -0.796911	 -1.211249	 -0.867467
H	 -0.796854	 -1.212390	 0.865687
C	 -3.287791	 -0.317055	 0.000105
H	 -1.876087	 1.060580	 -0.866812
H	 -1.875822	 1.059691	 0.867761
H	 -3.394745	 -0.949193	 -0.877058
H	 -4.111778	 0.388953	 0.000015
H	 -3.394954	 -0.949187	 0.877259
C	 2.870004	 -0.199896	 0.316343
H	 3.139983	 0.211685	 -0.645559
H	 3.510444	 -1.033279	 0.559601
H	 2.955639	 0.570523	 1.069092

	symmetry c1
}
set optking {
	frozen_dihedral = ("
		1 2 3 6
	")
}

ee = optimize('scf')
oeprop('DIPOLE', 'QUADRUPOLE', 'MULLIKEN_CHARGES')
f=open( 'psi4out.xyz', 'w' )
f.write( "17  " )
f.write( str(ee) + "\n" )
f.write( MOL.save_string_xyz() )
f.close()
--------------------------------------------------------------------------

    Molecular point group: c1
  Charge       = 0
  Multiplicity = 1
  Basis Set: 6-31G*
  Basis Set:
  @DF-RHF Final Energy:  -344.90667271754774
    Total Energy =                       -344.9066727175479627
    Molecular point group: c1
  Basis Set: 6-31G*
  Basis Set:
  Basis Set: 6-31G*
  Basis Set:
  @DF-RHF Final Energy:  -344.90615774585109
    Total Energy =                       -344.9061577458508054
  Basis Set: 6-31G*
  Basis Set:
  Basis Set: 6-31G*
  Basis Set:
  @DF-RHF Final Energy:  -344.90672729072651
    Total Energy =                       -344.9067272907261099
  Basis Set: 6-31G*
  Basis Set:
  Basis Set: 6-31G*
  Basis Set:
  @DF-RHF Final Energy:  -344.90674593028882
    Total Energy =                       -344.9067459302885936
  Basis Set: 6-31G*
  Basis Set:
  Charge       = 0
  Multiplicity = 1
  Basis Set: 6-31G*
  Basis Set:

    Orbital Energies (a.u.)
    -----------------------

    Doubly Occupied:

       1A    -20.604310     2A    -20.545631     3A    -11.372708
       4A    -11.281151     5A    -11.236017     6A    -11.222248
       7A    -11.214678     8A     -1.469849     9A     -1.363152
      10A     -1.080643    11A     -1.001460    12A     -0.939925
      13A     -0.827294    14A     -0.767660    15A     -0.700304
      16A     -0.683488    17A     -0.672349    18A     -0.637123
      19A     -0.595133    20A     -0.575609    21A     -0.568115
      22A     -0.527843    23A     -0.522208    24A     -0.498878
      25A     -0.486802    26A     -0.478830    27A     -0.456497
      28A     -0.437973

  @DF-RHF Final Energy:  -344.90674616183043

   => Energetics <=

    Nuclear Repulsion Energy =            312.4774757350692767
    One-Electron Energy =               -1089.2326887618269211
    Two-Electron Energy =                 431.8484668649272749
    DFT Exchange-Correlation Energy =       0.0000000000000000
    Empirical Dispersion Energy =           0.0000000000000000
    PCM Polarization Energy =               0.0000000000000000
    EFP Energy =                            0.0000000000000000
    Total Energy =                       -344.9067461618304264
    Molecular point group: c1
  Basis Set: 6-31G*
  Basis Set:

  -Total Gradient:
     Atom            X                  Y                   Z
    ------   -----------------  -----------------  -----------------
       1        0.000053586086    -0.000124793694    -0.000500117892
       2       -0.000124856833     0.000264135602     0.000718611933
       3        0.000255439612    -0.000479799226     0.000015153377
       4       -0.000008602458     0.000000684003     0.000064986091
       5       -0.000002706227     0.000014183577     0.000048455977
       6       -0.000199517724     0.000340035628    -0.000255980858
       7        0.000022398123     0.000008975237     0.000001594457
       8        0.000005334361    -0.000008902750    -0.000009654218
       9       -0.000002402157     0.000004558903    -0.000006959989
      10        0.000005403203    -0.000004249982    -0.000012998959
      11       -0.000007746935    -0.000004470244    -0.000002665613
      12        0.000003853638     0.000002281182     0.000003474609
      13        0.000002679924     0.000000455357    -0.000001661045
      14       -0.000002312205    -0.000031282920    -0.000132976741
      15        0.000029056680     0.000004987865     0.000026899448
      16        0.000000537529     0.000005486541     0.000021160826
      17       -0.000030144621     0.000007714922     0.000022678597

  **** Optimization is complete! (in 5 steps) ****
    Final optimized geometry and variables:
    Molecular point group: c1

    Geometry (in Angstrom), charge = 0, multiplicity = 1:

    O            0.759201882553     1.281144944699    -0.253360392130
    C            0.577682774400     0.127442783812    -0.031264201290
    C           -0.764271819488    -0.563502197600    -0.032520986388
    O            1.559898667734    -0.725174777350     0.230316020181
    C           -1.943080316289     0.405713243261    -0.061515033444
    H           -0.782463053056    -1.215593575502    -0.903003969212
    H           -0.808040818250    -1.217187754052     0.832684565763
    C           -3.285218088160    -0.323921390641    -0.087891885634
    H           -1.853536457903     1.050798853948    -0.928102801330
    H           -1.894301239245     1.055621053622     0.806478134676
    H           -3.373634136382    -0.956907232079    -0.966531512769
    H           -4.109110461586     0.381938904334    -0.106040086052
    H           -3.410518293311    -0.955197995222     0.787409502424
    C            2.878064049232    -0.207672078256     0.226349445999
    H            3.124112822280     0.199079202905    -0.743983008299
    H            3.522967205151    -1.041223540338     0.457032402464
    H            2.984237397673     0.565941086143     0.973125493753

  Mulliken Charges: (a.u.)
   Center  Symbol    Alpha    Beta     Spin     Total
       1     O     4.28593  4.28593  0.00000 -0.57187
       2     C     2.60572  2.60572  0.00000  0.78856
       3     C     3.20626  3.20626  0.00000 -0.41252
       4     O     4.30689  4.30689  0.00000 -0.61378
       5     C     3.15264  3.15264  0.00000 -0.30528
       6     H     0.40063  0.40063  0.00000  0.19874
       7     H     0.40117  0.40117  0.00000  0.19767
       8     C     3.24267  3.24267  0.00000 -0.48535
       9     H     0.40796  0.40796  0.00000  0.18408
      10     H     0.41355  0.41355  0.00000  0.17290
      11     H     0.42122  0.42122  0.00000  0.15755
      12     H     0.41512  0.41512  0.00000  0.16976
      13     H     0.42134  0.42134  0.00000  0.15732
      14     C     3.09264  3.09264  0.00000 -0.18527
      15     H     0.40918  0.40918  0.00000  0.18164
      16     H     0.40835  0.40835  0.00000  0.18329
      17     H     0.40872  0.40872  0.00000  0.18255

   Total alpha = 28.00000, Total beta = 28.00000, Total charge = -0.00000
