  ==> Input File <==

--------------------------------------------------------------------------
set {
	reference rhf
	basis 6-31G*
}

set_num_threads( 4 )
memory 2 gb

molecule MOL {
0 1

O	 3.225979	 0.970355	 -0.599647
C	 2.701189	 0.057885	 -0.047330
C	 1.245376	 -0.013843	 0.345420
O	 3.347903	 -1.046386	 0.304773
C	 0.796012	 -1.422268	 0.728211
H	 1.098787	 0.693943	 1.154581
H	 0.665859	 0.367766	 -0.491379
C	 -0.702851	 -1.531712	 1.028088
H	 1.368537	 -1.760455	 1.586677
H	 1.046157	 -2.097391	 -0.082997
C	 -1.169069	 -0.771800	 2.273193
H	 -0.945406	 -2.584511	 1.152603
H	 -1.271312	 -1.191728	 0.163639
C	 -2.647916	 -1.001507	 2.591385
H	 -0.565912	 -1.078763	 3.126301
H	 -0.998797	 0.294962	 2.146707
C	 -3.126209	 -0.242857	 3.830666
H	 -2.824287	 -2.066471	 2.732729
H	 -3.250911	 -0.704774	 1.734621
C	 -4.603080	 -0.480659	 4.143723
H	 -2.524043	 -0.537441	 4.687555
H	 -2.954743	 0.822249	 3.689494
H	 -4.912054	 0.070086	 5.026798
H	 -4.800879	 -1.533439	 4.324619
H	 -5.234757	 -0.163816	 3.318575
C	 4.728119	 -1.109107	 -0.004993
H	 4.882018	 -1.033965	 -1.071845
H	 5.068212	 -2.067527	 0.355250
H	 5.265056	 -0.311663	 0.488280

	symmetry c1
}
set optking {
	frozen_dihedral = ("
		6 3 2 1
	")
}

ee = optimize('scf')
oeprop('DIPOLE', 'QUADRUPOLE', 'MULLIKEN_CHARGES')
f=open( 'psi4out.xyz', 'w' )
f.write( "29  " )
f.write( str(ee) + "\n" )
f.write( MOL.save_string_xyz() )
f.close()
--------------------------------------------------------------------------

    Molecular point group: c1
  Charge       = 0
  Multiplicity = 1
  Basis Set: 6-31G*
  Basis Set:
  @DF-RHF Final Energy:  -501.04020023087890
    Total Energy =                       -501.0402002308793499
    Molecular point group: c1
  Basis Set: 6-31G*
  Basis Set:
  Basis Set: 6-31G*
  Basis Set:
  @DF-RHF Final Energy:  -501.04078378175120
    Total Energy =                       -501.0407837817521113
  Basis Set: 6-31G*
  Basis Set:
  Basis Set: 6-31G*
  Basis Set:
  @DF-RHF Final Energy:  -501.04148973969416
    Total Energy =                       -501.0414897396942706
  Basis Set: 6-31G*
  Basis Set:
  Basis Set: 6-31G*
  Basis Set:
  @DF-RHF Final Energy:  -501.04155715549348
    Total Energy =                       -501.0415571554930239
  Basis Set: 6-31G*
  Basis Set:
  Basis Set: 6-31G*
  Basis Set:
  @DF-RHF Final Energy:  -501.04151693369761
    Total Energy =                       -501.0415169336972667
  Basis Set: 6-31G*
  Basis Set:
  Basis Set: 6-31G*
  Basis Set:
  @DF-RHF Final Energy:  -501.04157980868933
    Total Energy =                       -501.0415798086896757
  Basis Set: 6-31G*
  Basis Set:
  Basis Set: 6-31G*
  Basis Set:
  @DF-RHF Final Energy:  -501.04156310660721
    Total Energy =                       -501.0415631066073274
  Basis Set: 6-31G*
  Basis Set:
  Charge       = 0
  Multiplicity = 1
  Basis Set: 6-31G*
  Basis Set:

    Orbital Energies (a.u.)
    -----------------------

    Doubly Occupied:

       1A    -20.606073     2A    -20.540042     3A    -11.371993
       4A    -11.281343     5A    -11.234821     6A    -11.223320
       7A    -11.219844     8A    -11.217391     9A    -11.216517
      10A    -11.215451    11A    -11.209534    12A     -1.469797
      13A     -1.360416    14A     -1.100009    15A     -1.067964
      16A     -1.018673    17A     -0.973793    18A     -0.932502
      19A     -0.865269    20A     -0.799677    21A     -0.791088
      22A     -0.773311    23A     -0.697136    24A     -0.682579
      25A     -0.669490    26A     -0.651868    27A     -0.629413
      28A     -0.605434    29A     -0.590346    30A     -0.577404
      31A     -0.567900    32A     -0.545456    33A     -0.538792
      34A     -0.531445    35A     -0.520329    36A     -0.513402
      37A     -0.500444    38A     -0.481159    39A     -0.472422
      40A     -0.464101    41A     -0.463150    42A     -0.453377
      43A     -0.443558    44A     -0.425557

  @DF-RHF Final Energy:  -501.04158127281926

   => Energetics <=

    Nuclear Repulsion Energy =            612.5637004538366455
    One-Electron Energy =               -1896.1833868088890540
    Two-Electron Energy =                 782.5781050822331508
    DFT Exchange-Correlation Energy =       0.0000000000000000
    Empirical Dispersion Energy =           0.0000000000000000
    PCM Polarization Energy =               0.0000000000000000
    EFP Energy =                            0.0000000000000000
    Total Energy =                       -501.0415812728192577
    Molecular point group: c1
  Basis Set: 6-31G*
  Basis Set:

  -Total Gradient:
     Atom            X                  Y                   Z
    ------   -----------------  -----------------  -----------------
       1        0.000145528297     0.000244158433     0.000622726817
       2       -0.000280421126    -0.000199396752    -0.000991936693
       3        0.000267989702    -0.000459343917     0.000764461483
       4        0.000058118582    -0.000056582028     0.000012045239
       5        0.000007830171     0.000009503286    -0.000010057005
       6       -0.000158161852     0.000479149788    -0.000410525301
       7       -0.000000450006    -0.000001302823     0.000000158656
       8       -0.000006475758    -0.000005120092    -0.000001159212
       9       -0.000002640895    -0.000001670036    -0.000003793477
      10       -0.000003864543    -0.000008927430     0.000004860620
      11        0.000000517833     0.000002844286     0.000001376545
      12       -0.000000192489     0.000000749537     0.000001445693
      13       -0.000000945648    -0.000002640425     0.000000477636
      14        0.000000026120     0.000000673217    -0.000001113154
      15       -0.000001316800    -0.000000753020     0.000001001327
      16       -0.000001894215    -0.000001547910     0.000002397296
      17       -0.000000126179     0.000000220580     0.000000506322
      18        0.000000520313     0.000000560922     0.000000129355
      19       -0.000000386169    -0.000000258501    -0.000000189954
      20       -0.000000122917     0.000000183451    -0.000000163869
      21        0.000000012603    -0.000000182545     0.000000054035
      22        0.000000079144    -0.000000176182     0.000000006956
      23        0.000000044190     0.000000052098    -0.000000106846
      24        0.000000076240     0.000000052208     0.000000089768
      25       -0.000000102164    -0.000000040649    -0.000000056449
      26       -0.000033563190     0.000003733409     0.000009129202
      27        0.000004032817    -0.000000666988    -0.000002540164
      28        0.000000558098    -0.000002760913     0.000001082880
      29        0.000005329837    -0.000000511006    -0.000000307697

  **** Optimization is complete! (in 8 steps) ****
    Final optimized geometry and variables:
    Molecular point group: c1

    Geometry (in Angstrom), charge = 0, multiplicity = 1:

    O            2.776635434909     1.575342953056    -1.886663200332
    C            2.324887478736     0.612094419340    -1.354089705577
    C            0.874789334899     0.496233532044    -0.938356136171
    O            3.054237623962    -0.447576053450    -1.039869913032
    C            0.377858203305    -0.904904009468    -0.578398327103
    H            0.753967263685     1.184299404357    -0.106916754732
    H            0.295324379021     0.915970145675    -1.754045786524
    C           -1.126737009153    -0.961788420993    -0.289681623453
    H            0.928873388746    -1.278787093938     0.278378446873
    H            0.601018604648    -1.579051844039    -1.399690377345
    C           -1.571811199339    -0.202914898949     0.963785097248
    H           -1.409627001400    -2.006439102924    -0.182080462694
    H           -1.675551815345    -0.587828804051    -1.152493923869
    C           -3.059930851894    -0.383408217796     1.270478774045
    H           -0.985269056815    -0.543638438714     1.815727410548
    H           -1.362631522172     0.858505335578     0.853387715376
    C           -3.517851722894     0.375468621386     2.517284982645
    H           -3.275587868959    -1.443109273885     1.396308157849
    H           -3.646413625147    -0.053429568536     0.414497482287
    C           -5.004349110738     0.187591043670     2.818454414581
    H           -2.932207255366     0.047532030857     3.373536664099
    H           -3.306765378328     1.435313207891     2.391609389588
    H           -5.298491006173     0.737478931983     3.707079396356
    H           -5.241611177393    -0.859576802455     2.983931575441
    H           -5.618782920406     0.538375677852     1.994057527915
    C            4.430624141261    -0.399476197527    -1.371180637224
    H            4.559882007632    -0.282284548979    -2.437285770750
    H            4.845305939948    -1.340205512574    -1.044102748485
    H            4.914210055502     0.421601672075    -0.862173652162

  Mulliken Charges: (a.u.)
   Center  Symbol    Alpha    Beta     Spin     Total
       1     O     4.28947  4.28947  0.00000 -0.57893
       2     C     2.60494  2.60494  0.00000  0.79011
       3     C     3.21239  3.21239  0.00000 -0.42479
       4     O     4.30390  4.30390  0.00000 -0.60781
       5     C     3.15310  3.15310  0.00000 -0.30621
       6     H     0.39721  0.39721  0.00000  0.20558
       7     H     0.39844  0.39844  0.00000  0.20313
       8     C     3.15686  3.15686  0.00000 -0.31372
       9     H     0.41275  0.41275  0.00000  0.17450
      10     H     0.41448  0.41448  0.00000  0.17103
      11     C     3.15548  3.15548  0.00000 -0.31096
      12     H     0.41868  0.41868  0.00000  0.16263
      13     H     0.42253  0.42253  0.00000  0.15494
      14     C     3.15039  3.15039  0.00000 -0.30078
      15     H     0.42302  0.42302  0.00000  0.15397
      16     H     0.42233  0.42233  0.00000  0.15535
      17     C     3.15159  3.15159  0.00000 -0.30317
      18     H     0.42363  0.42363  0.00000  0.15274
      19     H     0.42346  0.42346  0.00000  0.15308
      20     C     3.23941  3.23941  0.00000 -0.47881
      21     H     0.42299  0.42299  0.00000  0.15402
      22     H     0.42283  0.42283  0.00000  0.15435
      23     H     0.41903  0.41903  0.00000  0.16195
      24     H     0.42174  0.42174  0.00000  0.15652
      25     H     0.42157  0.42157  0.00000  0.15686
      26     C     3.09258  3.09258  0.00000 -0.18516
      27     H     0.40816  0.40816  0.00000  0.18367
      28     H     0.40867  0.40867  0.00000  0.18266
      29     H     0.40837  0.40837  0.00000  0.18325

   Total alpha = 44.00000, Total beta = 44.00000, Total charge =  0.00000
