  ==> Input File <==

--------------------------------------------------------------------------
set {
	reference rhf
	basis 6-31G*
}

set_num_threads( 4 )
memory 2 gb

molecule MOL {
0 1

H	 -2.499100	 -0.730091	 -0.745082
O	 -2.347518	 -0.290803	 0.079804
C	 -1.184022	 0.487508	 -0.006784
C	 0.062599	 -0.378592	 0.031606
H	 -1.176523	 1.099369	 -0.904519
H	 -1.187323	 1.153111	 0.844927
O	 -0.255413	 -1.561185	 0.695023
H	 0.867893	 0.146688	 0.548872
H	 0.401709	 -0.575965	 -0.983595
C	 0.791450	 -2.475625	 0.778810
H	 1.638176	 -2.062258	 1.323616
H	 0.424869	 -3.344335	 1.307831
H	 1.132031	 -2.780969	 -0.208388

	symmetry c1
}
set optking {
	frozen_dihedral = ("
		8 4 3 5
	")
}

ee = optimize('scf')
oeprop('DIPOLE', 'QUADRUPOLE', 'MULLIKEN_CHARGES')
f=open( 'psi4out.xyz', 'w' )
f.write( "13  " )
f.write( str(ee) + "\n" )
f.write( MOL.save_string_xyz() )
f.close()
--------------------------------------------------------------------------

    Molecular point group: c1
  Charge       = 0
  Multiplicity = 1
  Basis Set: 6-31G*
  Basis Set:
  @DF-RHF Final Energy:  -267.93970998715105
    Total Energy =                       -267.9397099871510477
    Molecular point group: c1
  Basis Set: 6-31G*
  Basis Set:
  Basis Set: 6-31G*
  Basis Set:
  @DF-RHF Final Energy:  -267.94124093721075
    Total Energy =                       -267.9412409372106367
  Basis Set: 6-31G*
  Basis Set:
  Basis Set: 6-31G*
  Basis Set:
  @DF-RHF Final Energy:  -267.94264595331038
    Total Energy =                       -267.9426459533103753
  Basis Set: 6-31G*
  Basis Set:
  Basis Set: 6-31G*
  Basis Set:
  @DF-RHF Final Energy:  -267.94343436508245
    Total Energy =                       -267.9434343650822257
  Basis Set: 6-31G*
  Basis Set:
  @DF-RHF Final Energy:  -267.94506324441613
    Total Energy =                       -267.9450632444159055
  @DF-RHF Final Energy:  -267.94856175809389
    Total Energy =                       -267.9485617580940016
  @DF-RHF Final Energy:  -267.94951993642258
    Total Energy =                       -267.9495199364223481
  @DF-RHF Final Energy:  -267.94789666652480
    Total Energy =                       -267.9478966665249118
  @DF-RHF Final Energy:  -267.94920550581446
    Total Energy =                       -267.9492055058144047
  @DF-RHF Final Energy:  -267.94969709531784
    Total Energy =                       -267.9496970953178447
  @DF-RHF Final Energy:  -267.94856967119597
    Total Energy =                       -267.9485696711958553
  Basis Set: 6-31G*
  Basis Set:
  @DF-RHF Final Energy:  -267.94990502851329
    Total Energy =                       -267.9499050285131716
  Basis Set: 6-31G*
  Basis Set:
  Basis Set: 6-31G*
  Basis Set:
  @DF-RHF Final Energy:  -267.94990540618471
    Total Energy =                       -267.9499054061845413
  Basis Set: 6-31G*
  Basis Set:
  Basis Set: 6-31G*
  Basis Set:
  @DF-RHF Final Energy:  -267.94992338187205
    Total Energy =                       -267.9499233818719972
  Basis Set: 6-31G*
  Basis Set:
  Charge       = 0
  Multiplicity = 1
  Basis Set: 6-31G*
  Basis Set:

    Orbital Energies (a.u.)
    -----------------------

    Doubly Occupied:

       1A    -20.570979     2A    -20.541164     3A    -11.277605
       4A    -11.276434     5A    -11.268178     6A     -1.398094
       7A     -1.347472     8A     -1.017756     9A     -0.924390
      10A     -0.835158    11A     -0.702344    12A     -0.685257
      13A     -0.664894    14A     -0.633608    15A     -0.589096
      16A     -0.570678    17A     -0.548176    18A     -0.493219
      19A     -0.478868    20A     -0.439415    21A     -0.421263

  @DF-RHF Final Energy:  -267.94992402334407

   => Energetics <=

    Nuclear Repulsion Energy =            195.4544096624925942
    One-Electron Energy =                -753.4405720146977501
    Two-Electron Energy =                 290.0362383288610886
    DFT Exchange-Correlation Energy =       0.0000000000000000
    Empirical Dispersion Energy =           0.0000000000000000
    PCM Polarization Energy =               0.0000000000000000
    EFP Energy =                            0.0000000000000000
    Total Energy =                       -267.9499240233440673
    Molecular point group: c1
  Basis Set: 6-31G*
  Basis Set:

  -Total Gradient:
     Atom            X                  Y                   Z
    ------   -----------------  -----------------  -----------------
       1        0.000046543701     0.000070812775    -0.000005411962
       2        0.000040943659     0.000044292406    -0.000018172603
       3        0.003462705095     0.005669853792     0.007508800234
       4        0.002897172611     0.003356019388    -0.008947277229
       5       -0.003489365161    -0.005357137863    -0.004839507283
       6        0.000009876420    -0.000043626830     0.000007293360
       7        0.000030566817    -0.000014546069    -0.000027950600
       8       -0.002984196441    -0.003737310473     0.006333686539
       9       -0.000008526401    -0.000007934900    -0.000014580504
      10       -0.000018412900     0.000026924272     0.000009886442
      11        0.000007196953    -0.000001415992     0.000001469269
      12       -0.000000782937     0.000000285207    -0.000002525656
      13        0.000006278587    -0.000006215712    -0.000005710007

  **** Optimization is complete! (in 15 steps) ****
    Final optimized geometry and variables:
    Molecular point group: c1

    Geometry (in Angstrom), charge = 0, multiplicity = 1:

    H           -1.665524683361    -0.187445467335    -0.027626055863
    O           -1.706507436579     0.609588662127    -0.539832919404
    C           -0.565642988580     1.365026676303    -0.254950775316
    C            0.686095859703     0.487269345985    -0.185187439120
    H           -0.476937551286     2.054818017263    -1.084658466772
    H           -0.688509074144     1.919931268647     0.671025614439
    O            0.315171002033    -0.723130975948     0.418025776020
    H            1.435608100707     0.958105008504     0.448125415136
    H            1.100092396830     0.301078305358    -1.172525102509
    C            1.350801101618    -1.645899705198     0.551191700356
    H            2.151193152820    -1.254904515337     1.175610290494
    H            0.941917807692    -2.531085102741     1.018122371863
    H            1.765709731333    -1.916024186919    -0.417201139595

  Mulliken Charges: (a.u.)
   Center  Symbol    Alpha    Beta     Spin     Total
       1     H     0.26795  0.26795  0.00000  0.46410
       2     O     4.37672  4.37672  0.00000 -0.75343
       3     C     2.99630  2.99630  0.00000  0.00741
       4     C     3.00450  3.00450  0.00000 -0.00899
       5     H     0.41710  0.41710  0.00000  0.16580
       6     H     0.42586  0.42586  0.00000  0.14828
       7     O     4.31840  4.31840  0.00000 -0.63681
       8     H     0.42741  0.42741  0.00000  0.14518
       9     H     0.42314  0.42314  0.00000  0.15371
      10     C     3.07958  3.07958  0.00000 -0.15917
      11     H     0.42726  0.42726  0.00000  0.14548
      12     H     0.41003  0.41003  0.00000  0.17994
      13     H     0.42574  0.42574  0.00000  0.14852

   Total alpha = 21.00000, Total beta = 21.00000, Total charge = -0.00000
