                              Psi4 1.0.54 Driver

  ==> Input File <==

--------------------------------------------------------------------------
set {
	reference rhf
	basis cc-pvtz
}

set_num_threads( 4 )
memory 2 gb

molecule MOL {
0 1

H	 1.033986	 -1.662456	 -0.774804
C	 0.385881	 -0.804371	 -0.962152
N	 -0.537714	 -0.645117	 0.000000
O	 0.519659	 -0.115889	 -1.923825
C	 -1.522613	 0.412524	 0.000000
H	 -0.533823	 -1.295258	 0.746515
H	 -2.150256	 0.356137	 -0.880771
H	 -1.005621	 1.357208	 0.000000
H	 -2.150256	 0.356137	 0.880771

	symmetry c1
}
set optking {
	frozen_dihedral = ("
		6 3 5 7
	")
}

ee,wfn = optimize('scf', return_wfn=True)
oeprop( wfn, 'DIPOLE', 'QUADRUPOLE', 'MULLIKEN_CHARGES')
f=open( 'psi4out.xyz', 'w' )
f.write( "9  " )
f.write( str(ee) + "\n" )
f.write( MOL.save_string_xyz() )
f.close()
--------------------------------------------------------------------------

    Molecular point group: c1
  Charge       = 0
  Multiplicity = 1
  Basis Set: CC-PVTZ
  Basis Set:
  @DF-RHF Final Energy:  -208.04305290813073
    Total Energy =                       -208.0430529081306759
    Molecular point group: c1
  Basis Set: CC-PVTZ
  Basis Set:
  Basis Set: CC-PVTZ
  Basis Set:
  @DF-RHF Final Energy:  -208.04359362457501
    Total Energy =                       -208.0435936245750383
  Basis Set: CC-PVTZ
  Basis Set:
  Basis Set: CC-PVTZ
  Basis Set:
  @DF-RHF Final Energy:  -208.04363957877970
    Total Energy =                       -208.0436395787796187
  Basis Set: CC-PVTZ
  Basis Set:
  Basis Set: CC-PVTZ
  Basis Set:
  @DF-RHF Final Energy:  -208.04360848639445
    Total Energy =                       -208.0436084863941915
  Basis Set: CC-PVTZ
  Basis Set:
  Charge       = 0
  Multiplicity = 1
  Basis Set: CC-PVTZ
  Basis Set:

    Orbital Energies (a.u.)
    -----------------------

    Doubly Occupied:

       1A    -20.516578     2A    -15.584348     3A    -11.335890
       4A    -11.260598     5A     -1.393955     6A     -1.239322
       7A     -0.969799     8A     -0.809333     9A     -0.749207
      10A     -0.645794    11A     -0.629953    12A     -0.596211
      13A     -0.559739    14A     -0.536730    15A     -0.428166
      16A     -0.396734

  @DF-RHF Final Energy:  -208.04366278447250

   => Energetics <=

    Nuclear Repulsion Energy =            122.9474005192801371
    One-Electron Energy =                -526.6774134349401493
    Two-Electron Energy =                 195.6863501311874245
    DFT Exchange-Correlation Energy =       0.0000000000000000
    Empirical Dispersion Energy =           0.0000000000000000
    PCM Polarization Energy =               0.0000000000000000
    EFP Energy =                            0.0000000000000000
    Total Energy =                       -208.0436627844726161
    Molecular point group: c1
  Basis Set: CC-PVTZ
  Basis Set:

  -Total Gradient:
     Atom            X                  Y                   Z
    ------   -----------------  -----------------  -----------------
       1        0.000051164074    -0.000009230217    -0.000024151963
       2       -0.000032420631    -0.000003113455    -0.000066139695
       3       -0.000092895786     0.000081486418    -0.000024459331
       4        0.000030233808    -0.000040576707     0.000076675397
       5        0.000048132696    -0.000092419085     0.000014872183
       6        0.000010133053     0.000017278524     0.000008681069
       7       -0.000002872471     0.000009856767     0.000019140653
       8       -0.000016446619     0.000024889169     0.000002374949
       9        0.000004971878     0.000011828585    -0.000006993263

  **** Optimization is complete! (in 5 steps) ****
    Final optimized geometry and variables:
    Molecular point group: c1

    Geometry (in Angstrom), charge = 0, multiplicity = 1:

    H            1.329266921192    -1.399066102384    -0.057316460861
    C            0.681512364116    -0.538736659304    -0.236142048590
    N           -0.238885215883    -0.368825042301     0.724670313010
    O            0.803693715361     0.157925752714    -1.193652206262
    C           -1.199301456094     0.711562288992     0.689244152427
    H           -0.249966131475    -1.006356245408     1.480595507794
    H           -1.817991894044     0.650491978960    -0.195593382684
    H           -0.702081402778     1.671958554775     0.688972725115
    H           -1.830049105965     0.643354675203     1.563636051440

  Mulliken Charges: (a.u.)
   Center  Symbol    Alpha    Beta     Spin     Total
       1     H     0.46451  0.46451  0.00000  0.07098
       2     C     2.87936  2.87936  0.00000  0.24129
       3     N     3.60557  3.60557  0.00000 -0.21115
       4     O     4.21442  4.21442  0.00000 -0.42883
       5     C     3.07475  3.07475  0.00000 -0.14950
       6     H     0.40993  0.40993  0.00000  0.18014
       7     H     0.44836  0.44836  0.00000  0.10329
       8     H     0.44844  0.44844  0.00000  0.10313
       9     H     0.45467  0.45467  0.00000  0.09066

   Total alpha = 16.00000, Total beta = 16.00000, Total charge = -0.00000

*** Psi4 exiting successfully. Buy a developer a beer!
