                              Psi4 1.0.54 Driver

  ==> Input File <==

--------------------------------------------------------------------------
set {
	reference rhf
	basis cc-pvtz
}

set_num_threads( 4 )
memory 2 gb

molecule MOL {
0 1

H	 -2.816458	 -0.841657	 -0.064679
N	 -1.878861	 -0.711874	 0.250184
C	 -1.341419	 0.551458	 -0.220231
H	 -1.333674	 -1.468530	 -0.105118
C	 -0.643647	 0.368841	 -1.548543
H	 -2.096421	 1.328536	 -0.332776
H	 -0.612500	 0.908042	 0.499196
O	 -1.588078	 -0.005567	 -2.505402
H	 -0.161051	 1.299572	 -1.843521
H	 0.122113	 -0.398041	 -1.456715
C	 -1.060301	 -0.272495	 -3.762152
H	 -1.876987	 -0.546451	 -4.414346
H	 -0.559951	 0.600056	 -4.176880
H	 -0.348062	 -1.093553	 -3.728367

	symmetry c1
}
set optking {
	frozen_dihedral = ("
		6 3 2 4
	")
}

ee,wfn = optimize('scf', return_wfn=True)
oeprop( wfn, 'DIPOLE', 'QUADRUPOLE', 'MULLIKEN_CHARGES')
f=open( 'psi4out.xyz', 'w' )
f.write( "14  " )
f.write( str(ee) + "\n" )
f.write( MOL.save_string_xyz() )
f.close()
--------------------------------------------------------------------------

    Molecular point group: c1
  Charge       = 0
  Multiplicity = 1
  Basis Set: CC-PVTZ
  Basis Set:
  @DF-RHF Final Energy:  -248.22129973655416
    Total Energy =                       -248.2212997365542151
    Molecular point group: c1
  Basis Set: CC-PVTZ
  Basis Set:
  Basis Set: CC-PVTZ
  Basis Set:
  @DF-RHF Final Energy:  -247.29829068633529
    Total Energy =                       -247.2982906863350649
  Basis Set: CC-PVTZ
  Basis Set:
  Basis Set: CC-PVTZ
  Basis Set:
  @DF-RHF Final Energy:  -247.47806306088151
    Total Energy =                       -247.4780630608815102
  Basis Set: CC-PVTZ
  Basis Set:
  Basis Set: CC-PVTZ
  Basis Set:
  @DF-RHF Final Energy:  -247.80302504868078
    Total Energy =                       -247.8030250486806949
  Basis Set: CC-PVTZ
  Basis Set:
  @DF-RHF Final Energy:  -248.05530551373826
    Total Energy =                       -248.0553055137384035
  @DF-RHF Final Energy:  -248.18341305311463
    Total Energy =                       -248.1834130531148048
  @DF-RHF Final Energy:  -247.30732461721067
    Total Energy =                       -247.3073246172107247
  @DF-RHF Final Energy:  -247.60997504025030
    Total Energy =                       -247.6099750402503332
  @DF-RHF Final Energy:  -247.95288137267744
    Total Energy =                       -247.9528813726772682
  @DF-RHF Final Energy:  -248.15171960837603
    Total Energy =                       -248.1517196083760837
  @DF-RHF Final Energy:  -248.21558615974169
    Total Energy =                       -248.2155861597415765
  @DF-RHF Final Energy:  -248.22170540516834
    Total Energy =                       -248.2217054051685636
  Basis Set: CC-PVTZ
  Basis Set:
  @DF-RHF Final Energy:  -248.22305581814911
    Total Energy =                       -248.2230558181493052
  Basis Set: CC-PVTZ
  Basis Set:
  Basis Set: CC-PVTZ
  Basis Set:
  @DF-RHF Final Energy:  -248.22333695291587
    Total Energy =                       -248.2233369529158722
  Basis Set: CC-PVTZ
  Basis Set:
  Basis Set: CC-PVTZ
  Basis Set:
  @DF-RHF Final Energy:  -248.22335302254200
    Total Energy =                       -248.2233530225419145
  Basis Set: CC-PVTZ
  Basis Set:
  Charge       = 0
  Multiplicity = 1
  Basis Set: CC-PVTZ
  Basis Set:

    Orbital Energies (a.u.)
    -----------------------

    Doubly Occupied:

       1A    -20.553970     2A    -15.524648     3A    -11.268404
       4A    -11.267148     5A    -11.240864     6A     -1.388459
       7A     -1.176654     8A     -1.002159     9A     -0.910539
      10A     -0.824026    11A     -0.688068    12A     -0.669085
      13A     -0.649860    14A     -0.636347    15A     -0.582409
      16A     -0.546732    17A     -0.535177    18A     -0.506500
      19A     -0.475809    20A     -0.423795    21A     -0.385672

  @DF-RHF Final Energy:  -248.22335440397103

   => Energetics <=

    Nuclear Repulsion Energy =            194.2654333479580373
    One-Electron Energy =                -722.4649216609494715
    Two-Electron Energy =                 279.9761339090206320
    DFT Exchange-Correlation Energy =       0.0000000000000000
    Empirical Dispersion Energy =           0.0000000000000000
    PCM Polarization Energy =               0.0000000000000000
    EFP Energy =                            0.0000000000000000
    Total Energy =                       -248.2233544039708022
    Molecular point group: c1
  Basis Set: CC-PVTZ
  Basis Set:

  -Total Gradient:
     Atom            X                  Y                   Z
    ------   -----------------  -----------------  -----------------
       1       -0.000018790507     0.000001924717     0.000005935304
       2        0.002666120041    -0.002613915765    -0.001161845162
       3        0.001614109199    -0.002590438529     0.001351589715
       4       -0.002462735320     0.002601265929     0.000765999802
       5       -0.000020455463    -0.000002436762    -0.000008504912
       6       -0.001824542636     0.002614823203    -0.000975956151
       7        0.000018520977    -0.000005389399     0.000000998246
       8       -0.000002579286     0.000013501715    -0.000015674893
       9        0.000007872797     0.000000158990     0.000007783506
      10        0.000018501168    -0.000014138359    -0.000004278040
      11        0.000017505210    -0.000043134842     0.000059868332
      12       -0.000018621350     0.000012518644    -0.000015477559
      13        0.000008033593     0.000023731581    -0.000022193152
      14       -0.000002938424     0.000001528882     0.000011754965

  **** Optimization is complete! (in 16 steps) ****
    Final optimized geometry and variables:
    Molecular point group: c1

    Geometry (in Angstrom), charge = 0, multiplicity = 1:

    H           -1.268067526158    -1.790010041931     0.698569546466
    N           -0.422938523899    -2.044045438153     0.233142784359
    C            0.648362076298    -1.148465247597     0.641305240535
    H           -0.618299273954    -1.940984587830    -0.741349141374
    C            0.744723890913     0.139016805881    -0.155186305211
    H            0.493162782140    -0.878494054521     1.678707507436
    H            1.601470279167    -1.662128153599     0.570966555224
    O           -0.417992052742     0.884085578443     0.025841094583
    H            1.614231099146     0.707927021697     0.173360212948
    H            0.885187271960    -0.085229392959    -1.214063894654
    C           -0.451156384087     2.083320021015    -0.674012837953
    H           -1.392056026919     2.568277695553    -0.457707371177
    H            0.359622844201     2.743332959872    -0.373390075193
    H           -0.380352428557     1.920507217823    -1.747357262227

  Mulliken Charges: (a.u.)
   Center  Symbol    Alpha    Beta     Spin     Total
       1     H     0.42710  0.42710  0.00000  0.14579
       2     N     3.68482  3.68482  0.00000 -0.36964
       3     C     3.02420  3.02420  0.00000 -0.04840
       4     H     0.43387  0.43387  0.00000  0.13227
       5     C     2.97193  2.97193  0.00000  0.05614
       6     H     0.45531  0.45531  0.00000  0.08939
       7     H     0.45812  0.45812  0.00000  0.08376
       8     O     4.17663  4.17663  0.00000 -0.35325
       9     H     0.47056  0.47056  0.00000  0.05889
      10     H     0.47674  0.47674  0.00000  0.04652
      11     C     3.03134  3.03134  0.00000 -0.06268
      12     H     0.44686  0.44686  0.00000  0.10627
      13     H     0.47079  0.47079  0.00000  0.05841
      14     H     0.47173  0.47173  0.00000  0.05653

   Total alpha = 21.00000, Total beta = 21.00000, Total charge = -0.00000

*** Psi4 exiting successfully. Buy a developer a beer!
