  ==> Input File <==

--------------------------------------------------------------------------
set {
	reference rhf
	basis 6-31G*
}

set_num_threads( 4 )
memory 2 gb

molecule MOL {
0 1

H	 -3.208842	 -1.119045	 -0.145395
O	 -2.310168	 -0.871793	 -0.309793
C	 -2.026376	 0.340750	 0.341611
C	 -0.673256	 0.843270	 -0.132153
H	 -2.792215	 1.080697	 0.115987
H	 -2.013526	 0.200402	 1.421792
C	 0.486613	 -0.083066	 0.235839
H	 -0.715586	 0.970948	 -1.210718
H	 -0.508072	 1.829858	 0.297090
C	 1.840406	 0.433480	 -0.254303
H	 0.300215	 -1.068318	 -0.178947
H	 0.519509	 -0.203625	 1.318070
C	 3.000220	 -0.489290	 0.118523
H	 1.809207	 0.553576	 -1.335192
H	 2.021860	 1.424500	 0.157276
H	 2.864959	 -1.479103	 -0.307933
H	 3.946603	 -0.099227	 -0.243630
H	 3.080049	 -0.602997	 1.196117

	symmetry c1
}
set optking {
	frozen_dihedral = ("
		1 2 3 4
	")
}

ee = optimize('scf')
oeprop('DIPOLE', 'QUADRUPOLE', 'MULLIKEN_CHARGES')
f=open( 'psi4out.xyz', 'w' )
f.write( "18  " )
f.write( str(ee) + "\n" )
f.write( MOL.save_string_xyz() )
f.close()
--------------------------------------------------------------------------

    Molecular point group: c1
  Charge       = 0
  Multiplicity = 1
  Basis Set: 6-31G*
  Basis Set:
  @DF-RHF Final Energy:  -271.17975450858785
    Total Energy =                       -271.1797545085879619
    Molecular point group: c1
  Basis Set: 6-31G*
  Basis Set:
  Basis Set: 6-31G*
  Basis Set:
  @DF-RHF Final Energy:  -271.17975915596929
    Total Energy =                       -271.1797591559693501
  Basis Set: 6-31G*
  Basis Set:
  Basis Set: 6-31G*
  Basis Set:
  @DF-RHF Final Energy:  -271.17976065715800
    Total Energy =                       -271.1797606571579990
  Basis Set: 6-31G*
  Basis Set:
  Charge       = 0
  Multiplicity = 1
  Basis Set: 6-31G*
  Basis Set:

    Orbital Energies (a.u.)
    -----------------------

    Doubly Occupied:

       1A    -20.552858     2A    -11.268035     3A    -11.211917
       4A    -11.210502     5A    -11.206079     6A    -11.204249
       7A     -1.359599     8A     -1.074524     9A     -1.008560
      10A     -0.912851    11A     -0.817513    12A     -0.783799
      13A     -0.704209    14A     -0.644191    15A     -0.622857
      16A     -0.579080    17A     -0.571982    18A     -0.555899
      19A     -0.520831    20A     -0.504308    21A     -0.488583
      22A     -0.466682    23A     -0.458003    24A     -0.444242
      25A     -0.430373

  @DF-RHF Final Energy:  -271.17976149155083

   => Energetics <=

    Nuclear Repulsion Energy =            249.0375109092174171
    One-Electron Energy =                -861.2310971946873224
    Two-Electron Energy =                 341.0138247939190705
    DFT Exchange-Correlation Energy =       0.0000000000000000
    Empirical Dispersion Energy =           0.0000000000000000
    PCM Polarization Energy =               0.0000000000000000
    EFP Energy =                            0.0000000000000000
    Total Energy =                       -271.1797614915508348
    Molecular point group: c1
  Basis Set: 6-31G*
  Basis Set:

  -Total Gradient:
     Atom            X                  Y                   Z
    ------   -----------------  -----------------  -----------------
       1       -0.000286746497     0.000537073800    -0.000863429906
       2        0.000252791800    -0.000529628843     0.000886655887
       3        0.000335672294    -0.000336052099     0.000513801516
       4       -0.000317192729     0.000332995268    -0.000563008687
       5        0.000013599247     0.000005714463    -0.000006276440
       6       -0.000022176329    -0.000006323955     0.000000301736
       7        0.000006906373    -0.000010181723     0.000016253419
       8        0.000009218121     0.000008270681    -0.000007862923
       9       -0.000008386365    -0.000018246899     0.000010833377
      10        0.000005369375     0.000001974715     0.000006319437
      11        0.000003638424     0.000012235950     0.000014881800
      12       -0.000001050695    -0.000001020958    -0.000001121934
      13        0.000001071446     0.000000200089    -0.000007751455
      14        0.000000561335     0.000004308063     0.000000314822
      15        0.000007351580     0.000001446289     0.000004108042
      16       -0.000000244048    -0.000002990663     0.000001156234
      17        0.000001557881    -0.000001934203    -0.000001769511
      18       -0.000001941212     0.000002160027    -0.000003405412

  **** Optimization is complete! (in 4 steps) ****
    Final optimized geometry and variables:
    Molecular point group: c1

    Geometry (in Angstrom), charge = 0, multiplicity = 1:

    H           -3.203122904397    -1.126985394469    -0.136601358536
    O           -2.304635467938    -0.878823477243    -0.299854287369
    C           -2.026578018873     0.341388015036     0.340237759313
    C           -0.673082995090     0.844588242640    -0.132032143511
    H           -2.791109950471     1.078257486410     0.100898654151
    H           -2.022818760354     0.212087913055     1.421781789187
    C            0.486295018213    -0.082665053557     0.235952184573
    H           -0.714575491509     0.973462765748    -1.210353841215
    H           -0.507536655264     1.830024221040     0.299756014058
    C            1.840734767952     0.434656660082    -0.251629902244
    H            0.300532134090    -1.067314711045    -0.180695381912
    H            0.517438551128    -0.205293785759     1.317934590155
    C            2.999376364420    -0.491485910828     0.116415969049
    H            1.809701195545     0.560208584132    -1.331890386848
    H            2.023460675048     1.423413028766     0.164937182911
    H            2.862335275300    -1.479252032454    -0.314260811945
    H            3.946135424765    -0.101272268273    -0.244562505138
    H            3.079593477567    -0.610050816213     1.193419495176

  Mulliken Charges: (a.u.)
   Center  Symbol    Alpha    Beta     Spin     Total
       1     H     0.28044  0.28044  0.00000  0.43912
       2     O     4.36995  4.36995  0.00000 -0.73990
       3     C     2.99736  2.99736  0.00000  0.00527
       4     C     3.15969  3.15969  0.00000 -0.31938
       5     H     0.43001  0.43001  0.00000  0.13997
       6     H     0.43171  0.43171  0.00000  0.13659
       7     C     3.15322  3.15322  0.00000 -0.30644
       8     H     0.41584  0.41584  0.00000  0.16832
       9     H     0.42442  0.42442  0.00000  0.15116
      10     C     3.15177  3.15177  0.00000 -0.30354
      11     H     0.40761  0.40761  0.00000  0.18479
      12     H     0.42716  0.42716  0.00000  0.14568
      13     C     3.23889  3.23889  0.00000 -0.47779
      14     H     0.42266  0.42266  0.00000  0.15467
      15     H     0.42539  0.42539  0.00000  0.14921
      16     H     0.42082  0.42082  0.00000  0.15836
      17     H     0.42046  0.42046  0.00000  0.15908
      18     H     0.42259  0.42259  0.00000  0.15482

   Total alpha = 25.00000, Total beta = 25.00000, Total charge =  0.00000
