  ==> Input File <==

--------------------------------------------------------------------------
set {
	reference rhf
	basis cc-pvtz
}

set_num_threads( 4 )
memory 2 gb

molecule MOL {
0 1

H	 -4.018126	 -0.508080	 0.312296
C	 -2.956008	 -0.353405	 0.324849
C	 -2.440747	 0.863915	 0.732624
C	 -2.107102	 -1.371321	 -0.066542
H	 -3.100266	 1.653552	 1.036280
C	 -1.075815	 1.061918	 0.748486
H	 -2.507687	 -2.314989	 -0.382604
C	 -0.740148	 -1.174595	 -0.051209
H	 -0.659953	 1.998014	 1.061283
C	 -0.220529	 0.043642	 0.356718
H	 -0.079957	 -1.960838	 -0.353699
C	 1.246453	 0.307570	 0.391738
O	 1.968286	 -0.725612	 -0.000027
O	 1.723216	 1.337162	 0.734981
C	 3.373556	 -0.568203	 0.000011
H	 3.695416	 -0.031588	 -0.879663
H	 3.782700	 -1.565294	 -0.000152
H	 3.695405	 -0.031851	 0.879862

	symmetry c1
}
set optking {
	frozen_dihedral = ("
		12 13 15 16
	")
}

ee = optimize('scf')
oeprop('DIPOLE', 'QUADRUPOLE', 'MULLIKEN_CHARGES')
f=open( 'psi4out.xyz', 'w' )
f.write( "18  " )
f.write( str(ee) + "\n" )
f.write( MOL.save_string_xyz() )
f.close()
--------------------------------------------------------------------------

    Molecular point group: c1
  Charge       = 0
  Multiplicity = 1
  Basis Set: CC-PVTZ
  Basis Set:
  @DF-RHF Final Energy:  -457.50960112846985
    Total Energy =                       -457.5096011284692850
    Molecular point group: c1
  Basis Set: CC-PVTZ
  Basis Set:
  Basis Set: CC-PVTZ
  Basis Set:
  @DF-RHF Final Energy:  -457.50964636581278
    Total Energy =                       -457.5096463658126140
  Basis Set: CC-PVTZ
  Basis Set:
  Basis Set: CC-PVTZ
  Basis Set:
  @DF-RHF Final Energy:  -457.50943706453404
    Total Energy =                       -457.5094370645338131
  Basis Set: CC-PVTZ
  Basis Set:
  Basis Set: CC-PVTZ
  Basis Set:
  @DF-RHF Final Energy:  -457.50968663526999
    Total Energy =                       -457.5096866352698726
  Basis Set: CC-PVTZ
  Basis Set:
  Charge       = 0
  Multiplicity = 1
  Basis Set: CC-PVTZ
  Basis Set:

    Orbital Energies (a.u.)
    -----------------------

    Doubly Occupied:

       1A    -20.600766     2A    -20.534256     3A    -11.372083
       4A    -11.280997     5A    -11.244916     6A    -11.243444
       7A    -11.242624     8A    -11.239975     9A    -11.236002
      10A    -11.235238    11A     -1.476419    12A     -1.368632
      13A     -1.170708    14A     -1.051800    15A     -1.028988
      16A     -0.980887    17A     -0.863152    18A     -0.838393
      19A     -0.781017    20A     -0.745029    21A     -0.688001
      22A     -0.681267    23A     -0.676345    24A     -0.634132
      25A     -0.630010    26A     -0.601232    27A     -0.587563
      28A     -0.566637    29A     -0.530443    30A     -0.520260
      31A     -0.509673    32A     -0.502097    33A     -0.463536
      34A     -0.449340    35A     -0.350184    36A     -0.346187

  @DF-RHF Final Energy:  -457.50969372176081

   => Energetics <=

    Nuclear Repulsion Energy =            493.9142197872300244
    One-Electron Energy =               -1602.3033705520169860
    Two-Electron Energy =                 650.8794570430261501
    DFT Exchange-Correlation Energy =       0.0000000000000000
    Empirical Dispersion Energy =           0.0000000000000000
    PCM Polarization Energy =               0.0000000000000000
    EFP Energy =                            0.0000000000000000
    Total Energy =                       -457.5096937217608684
    Molecular point group: c1
  Basis Set: CC-PVTZ
  Basis Set:

  -Total Gradient:
     Atom            X                  Y                   Z
    ------   -----------------  -----------------  -----------------
       1       -0.000001548975    -0.000000354970    -0.000000573426
       2       -0.000001842837     0.000013874336     0.000006052987
       3       -0.000007520525    -0.000010035555    -0.000003773693
       4        0.000016201673    -0.000008049017    -0.000004778246
       5        0.000000296257     0.000000240930     0.000001989664
       6        0.000010818093    -0.000007315492     0.000001825741
       7       -0.000002954980     0.000000991505    -0.000001085843
       8       -0.000025811637    -0.000018092438    -0.000008664472
       9       -0.000000684923     0.000000979544    -0.000002688277
      10        0.000011259665     0.000006338827    -0.000004630883
      11        0.000000425806     0.000003537531     0.000003337494
      12       -0.000004659799    -0.000408014575     0.001274968165
      13        0.000015400466     0.000324451493    -0.001976004605
      14        0.000037789700    -0.000048319598    -0.000036079388
      15       -0.000131333549     0.001418806051     0.001506741988
      16        0.000109315806    -0.001285037536    -0.000770644458
      17       -0.000010857474     0.000013896054     0.000002913874
      18       -0.000014292764     0.000002102912     0.000011093379

  **** Optimization is complete! (in 5 steps) ****
    Final optimized geometry and variables:
    Molecular point group: c1

    Geometry (in Angstrom), charge = 0, multiplicity = 1:

    H           -4.022374890257    -0.467204999676     0.007855029309
    C           -2.960782327617    -0.308493859458     0.017382473950
    C           -2.449078232219     0.911649173633     0.421426717202
    C           -2.108897852787    -1.323780057794    -0.374268863654
    H           -3.110829938823     1.699442500988     0.725216186696
    C           -1.084896937673     1.114953925172     0.433231020917
    H           -2.506482711186    -2.269663838075    -0.687595679066
    C           -0.742551887744    -1.121777684136    -0.362775276892
    H           -0.672008927490     2.053462377619     0.742856036915
    C           -0.226567650244     0.099150485954     0.041460545530
    H           -0.080305162585    -1.906179925801    -0.665626915953
    C            1.239894251838     0.369574440998     0.072764954022
    O            1.962840693534    -0.661103671065    -0.323823348140
    O            1.711476880345     1.401572724497     0.415404498992
    C            3.370327348772    -0.525353345789    -0.304205493537
    H            3.703281371277     0.021192067824    -1.175262596049
    H            3.766261436014    -1.527839005665    -0.335520179195
    H            3.696644369094    -0.019120822149     0.589302939622

  Mulliken Charges: (a.u.)
   Center  Symbol    Alpha    Beta     Spin     Total
       1     H     0.42030  0.42030  0.00000  0.15940
       2     C     3.06974  3.06974  0.00000 -0.13948
       3     C     3.07553  3.07553  0.00000 -0.15105
       4     C     3.07495  3.07495  0.00000 -0.14989
       5     H     0.42040  0.42040  0.00000  0.15919
       6     C     3.07587  3.07587  0.00000 -0.15173
       7     H     0.42190  0.42190  0.00000  0.15620
       8     C     3.08210  3.08210  0.00000 -0.16420
       9     H     0.40659  0.40659  0.00000  0.18681
      10     C     3.01429  3.01429  0.00000 -0.02857
      11     H     0.41107  0.41107  0.00000  0.17785
      12     C     2.78010  2.78010  0.00000  0.43980
      13     O     4.14883  4.14883  0.00000 -0.29765
      14     O     4.21144  4.21144  0.00000 -0.42289
      15     C     3.03723  3.03723  0.00000 -0.07446
      16     H     0.45521  0.45521  0.00000  0.08959
      17     H     0.44649  0.44649  0.00000  0.10703
      18     H     0.44797  0.44797  0.00000  0.10406

   Total alpha = 36.00000, Total beta = 36.00000, Total charge = -0.00000
