                              Psi4 1.0.54 Driver

  ==> Input File <==

--------------------------------------------------------------------------
set {
	reference rhf
	basis cc-pvtz
}

set_num_threads( 4 )
memory 2 gb

molecule MOL {
0 1

H	 -2.644180	 -0.653737	 1.272255
C	 -2.092774	 -0.380414	 0.391915
O	 -0.808934	 -0.154049	 0.752536
F	 -2.163230	 -1.351640	 -0.507133
F	 -2.627232	 0.691260	 -0.169301
C	 0.085006	 0.250800	 -0.215074
C	 1.370439	 -0.548013	 -0.012993
Cl	 0.421658	 1.987697	 -0.091007
H	 -0.272219	 0.063284	 -1.212508
F	 1.731477	 -0.524564	 1.244832
F	 2.330035	 0.001291	 -0.719218
F	 1.245152	 -1.790862	 -0.389665

	symmetry c1
}
set optking {
	frozen_dihedral = ("
		10 7 6 9
	")
}

ee,wfn = optimize('scf', return_wfn=True)
oeprop( wfn, 'DIPOLE', 'QUADRUPOLE', 'MULLIKEN_CHARGES')
f=open( 'psi4out.xyz', 'w' )
f.write( "12  " )
f.write( str(ee) + "\n" )
f.write( MOL.save_string_xyz() )
f.close()
--------------------------------------------------------------------------

    Molecular point group: c1
  Charge       = 0
  Multiplicity = 1
  Basis Set: CC-PVTZ
  Basis Set:
  @DF-RHF Final Energy: -1146.61825110340169
    Total Energy =                      -1146.6182511034028266
    Molecular point group: c1
  Basis Set: CC-PVTZ
  Basis Set:
  Basis Set: CC-PVTZ
  Basis Set:
  @DF-RHF Final Energy: -1146.61931144901791
    Total Energy =                      -1146.6193114490179141
  Basis Set: CC-PVTZ
  Basis Set:
  Basis Set: CC-PVTZ
  Basis Set:
  @DF-RHF Final Energy: -1146.61977915724697
    Total Energy =                      -1146.6197791572471942
  Basis Set: CC-PVTZ
  Basis Set:
  Basis Set: CC-PVTZ
  Basis Set:
  @DF-RHF Final Energy: -1146.61980840580509
    Total Energy =                      -1146.6198084058059976
  Basis Set: CC-PVTZ
  Basis Set:
  Basis Set: CC-PVTZ
  Basis Set:
  @DF-RHF Final Energy: -1146.61981268307318
    Total Energy =                      -1146.6198126830738602
  Basis Set: CC-PVTZ
  Basis Set:
  Charge       = 0
  Multiplicity = 1
  Basis Set: CC-PVTZ
  Basis Set:

    Orbital Energies (a.u.)
    -----------------------

    Doubly Occupied:

       1A   -104.857157     2A    -26.355886     3A    -26.353075
       4A    -26.352823     5A    -26.343060     6A    -26.342950
       7A    -20.640716     8A    -11.520296     9A    -11.483580
      10A    -11.401067    11A    -10.582691    12A     -8.049494
      13A     -8.047498    14A     -8.047430    15A     -1.767976
      16A     -1.724536    17A     -1.663955    18A     -1.660093
      19A     -1.644584    20A     -1.486709    21A     -1.178500
      22A     -1.053576    23A     -0.990408    24A     -0.924479
      25A     -0.864751    26A     -0.858369    27A     -0.852099
      28A     -0.829386    29A     -0.817766    30A     -0.794080
      31A     -0.733125    32A     -0.732182    33A     -0.712466
      34A     -0.708419    35A     -0.684389    36A     -0.681775
      37A     -0.665105    38A     -0.663974    39A     -0.649647
      40A     -0.638563    41A     -0.598765    42A     -0.581953
      43A     -0.525880    44A     -0.478383    45A     -0.470420

  @DF-RHF Final Energy: -1146.61981329851642

   => Energetics <=

    Nuclear Repulsion Energy =            738.3386590833298442
    One-Electron Energy =               -3059.8888781726041088
    Two-Electron Energy =                1174.9304057907581864
    DFT Exchange-Correlation Energy =       0.0000000000000000
    Empirical Dispersion Energy =           0.0000000000000000
    PCM Polarization Energy =               0.0000000000000000
    EFP Energy =                            0.0000000000000000
    Total Energy =                      -1146.6198132985161919
    Molecular point group: c1
  Basis Set: CC-PVTZ
  Basis Set:

  -Total Gradient:
     Atom            X                  Y                   Z
    ------   -----------------  -----------------  -----------------
       1       -0.000003195528     0.000009329468    -0.000000940495
       2        0.000046773558    -0.000031201516    -0.000033714437
       3       -0.000030866012     0.000043535645     0.000048961878
       4       -0.000024514995    -0.000009427004    -0.000006963873
       5       -0.000057408410    -0.000016130278     0.000011245422
       6        0.001872994651     0.002437724867    -0.001363020980
       7        0.001788444796     0.002548571953    -0.000430211257
       8        0.000037201580    -0.000028317989     0.000012040157
       9       -0.001924600842    -0.002576263023     0.001230640898
      10       -0.001637261112    -0.002329678186     0.000529938237
      11       -0.000067931408    -0.000001099937     0.000022371376
      12        0.000000363723    -0.000047043913    -0.000020346932

  **** Optimization is complete! (in 6 steps) ****
    Final optimized geometry and variables:
    Molecular point group: c1

    Geometry (in Angstrom), charge = 0, multiplicity = 1:

    H           -2.671960046869    -0.604032931802     1.219918333411
    C           -2.100145801348    -0.342991350636     0.348833833636
    O           -0.819820490428    -0.136666378681     0.731921207713
    F           -2.170799593812    -1.316532182414    -0.548087714350
    F           -2.607540057006     0.734898135939    -0.225802037208
    C            0.099731476440     0.251637895427    -0.221914651354
    C            1.365758954799    -0.568339142047     0.024969407314
    CL           0.444491359947     1.984786526837    -0.109892853294
    H           -0.249389591195     0.036438466763    -1.216616127565
    F            1.738743364120    -0.529196727648     1.274541528548
    F            2.352071779668    -0.159164908532    -0.727776338398
    F            1.115438342813    -1.821390095105    -0.282927848502

  Mulliken Charges: (a.u.)
   Center  Symbol    Alpha    Beta     Spin     Total
       1     H     0.45197  0.45197  0.00000  0.09606
       2     C     2.74030  2.74030  0.00000  0.51940
       3     O     4.15612  4.15612  0.00000 -0.31225
       4     F     4.61812  4.61812  0.00000 -0.23624
       5     F     4.61516  4.61516  0.00000 -0.23032
       6     C     2.93867  2.93867  0.00000  0.12266
       7     C     2.66992  2.66992  0.00000  0.66016
       8    CL     8.57292  8.57292  0.00000 -0.14584
       9     H     0.43026  0.43026  0.00000  0.13947
      10     F     4.60009  4.60009  0.00000 -0.20017
      11     F     4.60010  4.60010  0.00000 -0.20020
      12     F     4.60637  4.60637  0.00000 -0.21273

   Total alpha = 45.00000, Total beta = 45.00000, Total charge = -0.00000

*** Psi4 exiting successfully. Buy a developer a beer!
