  ==> Input File <==

--------------------------------------------------------------------------
set {
	reference rhf
	basis 6-31G*
}

set_num_threads( 1 )
memory 2 gb

molecule MOL {
0 1

H	 -3.418149	 0.987034	 1.529755
O	 -2.558754	 1.269833	 1.251833
C	 -2.026376	 0.340750	 0.341611
C	 -0.673256	 0.843270	 -0.132153
H	 -1.910917	 -0.631921	 0.816498
H	 -2.694500	 0.213447	 -0.509305
C	 0.486613	 -0.083066	 0.235839
H	 -0.715586	 0.970948	 -1.210718
H	 -0.508072	 1.829858	 0.297090
C	 1.840406	 0.433480	 -0.254303
H	 0.300215	 -1.068318	 -0.178947
H	 0.519509	 -0.203625	 1.318070
C	 3.000220	 -0.489290	 0.118523
H	 1.809207	 0.553576	 -1.335192
H	 2.021860	 1.424500	 0.157276
H	 2.864959	 -1.479103	 -0.307933
H	 3.946603	 -0.099227	 -0.243630
H	 3.080049	 -0.602997	 1.196117

	symmetry c1
}
set optking {
	frozen_dihedral = ("
		14 10 7 11,
		10 7 4 8,
		1 2 3 4
	")
}

ee = energy('scf')
oeprop('DIPOLE', 'QUADRUPOLE', 'MULLIKEN_CHARGES')
f=open( 'psi4out.xyz', 'w' )
f.write( "18  " )
f.write( str(ee) + "\n" )
f.write( MOL.save_string_xyz() )
f.close()
--------------------------------------------------------------------------

    Molecular point group: c1

    Geometry (in Angstrom), charge = 0, multiplicity = 1:

       Center              X                  Y                   Z               Mass
    ------------   -----------------  -----------------  -----------------  -----------------
           H         -3.372068747648     0.592414179413     1.242792210688     1.007825032070
           O         -2.512673747648     0.875213179413     0.964870210688    15.994914619560
           C         -1.980295747648    -0.053869820587     0.054648210688    12.000000000000
           C         -0.627175747648     0.448650179413    -0.419115789312    12.000000000000
           H         -1.864836747648    -1.026540820587     0.529535210688     1.007825032070
           H         -2.648419747648    -0.181172820587    -0.796267789312     1.007825032070
           C          0.532693252352    -0.477685820587    -0.051123789312    12.000000000000
           H         -0.669505747648     0.576328179413    -1.497680789312     1.007825032070
           H         -0.461991747648     1.435238179413     0.010127210688     1.007825032070
           C          1.886486252352     0.038860179413    -0.541265789312    12.000000000000
           H          0.346295252352    -1.462937820587    -0.465909789312     1.007825032070
           H          0.565589252352    -0.598244820587     1.031107210688     1.007825032070
           C          3.046300252352    -0.883909820587    -0.168439789312    12.000000000000
           H          1.855287252352     0.158956179413    -1.622154789312     1.007825032070
           H          2.067940252352     1.029880179413    -0.129686789312     1.007825032070
           H          2.911039252352    -1.873722820587    -0.594895789312     1.007825032070
           H          3.992683252352    -0.493846820587    -0.530592789312     1.007825032070
           H          3.126129252352    -0.997616820587     0.909154210688     1.007825032070

  Charge       = 0
  Multiplicity = 1
  Basis Set: 6-31G*
  Basis Set:

    Orbital Energies (a.u.)
    -----------------------

    Doubly Occupied:

       1A    -20.551439     2A    -11.266068     3A    -11.213919
       4A    -11.213158     5A    -11.209224     6A    -11.207357
       7A     -1.358141     8A     -1.078662     9A     -1.010058
      10A     -0.913108    11A     -0.818720    12A     -0.790732
      13A     -0.702132    14A     -0.642875    15A     -0.628380
      16A     -0.580739    17A     -0.570909    18A     -0.560275
      19A     -0.525994    20A     -0.497782    21A     -0.489265
      22A     -0.468762    23A     -0.463331    24A     -0.451296
      25A     -0.426035

  @DF-RHF Final Energy:  -271.17352512104418

   => Energetics <=

    Nuclear Repulsion Energy =            246.3289057305113943
    One-Electron Energy =                -855.7282245714864075
    Two-Electron Energy =                 338.2257937199307207
    DFT Exchange-Correlation Energy =       0.0000000000000000
    Empirical Dispersion Energy =           0.0000000000000000
    PCM Polarization Energy =               0.0000000000000000
    EFP Energy =                            0.0000000000000000
    Total Energy =                       -271.1735251210442357

  Mulliken Charges: (a.u.)
   Center  Symbol    Alpha    Beta     Spin     Total
       1     H     0.28209  0.28209  0.00000  0.43582
       2     O     4.37083  4.37083  0.00000 -0.74165
       3     C     2.99527  2.99527  0.00000  0.00947
       4     C     3.16488  3.16488  0.00000 -0.32976
       5     H     0.42941  0.42941  0.00000  0.14117
       6     H     0.43090  0.43090  0.00000  0.13819
       7     C     3.15795  3.15795  0.00000 -0.31590
       8     H     0.42152  0.42152  0.00000  0.15696
       9     H     0.40346  0.40346  0.00000  0.19309
      10     C     3.15228  3.15228  0.00000 -0.30456
      11     H     0.42503  0.42503  0.00000  0.14994
      12     H     0.41943  0.41943  0.00000  0.16113
      13     C     3.23924  3.23924  0.00000 -0.47849
      14     H     0.42336  0.42336  0.00000  0.15328
      15     H     0.42106  0.42106  0.00000  0.15789
      16     H     0.42249  0.42249  0.00000  0.15503
      17     H     0.41939  0.41939  0.00000  0.16123
      18     H     0.42142  0.42142  0.00000  0.15716

   Total alpha = 25.00000, Total beta = 25.00000, Total charge =  0.00000
