  ==> Input File <==

--------------------------------------------------------------------------
set {
	reference rhf
	basis 6-31G*
}

set_num_threads( 4 )
memory 2 gb

molecule MOL {
0 1

H	 0.856514	 1.206293	 1.111935
C	 0.283171	 0.288180	 1.187354
N	 -0.528168	 0.128977	 -0.000000
H	 -0.357249	 0.369554	 2.058145
H	 0.987652	 -0.530922	 1.354816
C	 0.248044	 -0.037491	 -1.209632
H	 -1.146602	 -0.649094	 0.114777
H	 0.998722	 0.743888	 -1.266824
H	 -0.398417	 0.061950	 -2.074060
H	 0.763621	 -0.999315	 -1.275517

	symmetry c1
}
set optking {
	frozen_dihedral = ("
		2 3 6 8
	")
}

ee = optimize('scf')
oeprop('DIPOLE', 'QUADRUPOLE', 'MULLIKEN_CHARGES')
f=open( 'psi4out.xyz', 'w' )
f.write( "10  " )
f.write( str(ee) + "\n" )
f.write( MOL.save_string_xyz() )
f.close()
--------------------------------------------------------------------------

    Molecular point group: c1
  Charge       = 0
  Multiplicity = 1
  Basis Set: 6-31G*
  Basis Set:
  @DF-RHF Final Energy:  -134.23805189436433
    Total Energy =                       -134.2380518943642471
    Molecular point group: c1
  Basis Set: 6-31G*
  Basis Set:
  Basis Set: 6-31G*
  Basis Set:
  @DF-RHF Final Energy:  -134.23812524373307
    Total Energy =                       -134.2381252437329522
  Basis Set: 6-31G*
  Basis Set:
  Basis Set: 6-31G*
  Basis Set:
  @DF-RHF Final Energy:  -134.23813328445874
    Total Energy =                       -134.2381332844587121
  Basis Set: 6-31G*
  Basis Set:
  Charge       = 0
  Multiplicity = 1
  Basis Set: 6-31G*
  Basis Set:

    Orbital Energies (a.u.)
    -----------------------

    Doubly Occupied:

       1A    -15.537143     2A    -11.236144     3A    -11.235976
       4A     -1.198566     5A     -0.947730     6A     -0.854633
       7A     -0.662213     8A     -0.610318     9A     -0.591450
      10A     -0.538982    11A     -0.512649    12A     -0.507922
      13A     -0.358965

  @DF-RHF Final Energy:  -134.23813370778203

   => Energetics <=

    Nuclear Repulsion Energy =             84.6247204345952753
    One-Electron Energy =                -348.1403284565251965
    Two-Electron Energy =                 129.2774743141479803
    DFT Exchange-Correlation Energy =       0.0000000000000000
    Empirical Dispersion Energy =           0.0000000000000000
    PCM Polarization Energy =               0.0000000000000000
    EFP Energy =                            0.0000000000000000
    Total Energy =                       -134.2381337077819126
    Molecular point group: c1
  Basis Set: 6-31G*
  Basis Set:

  -Total Gradient:
     Atom            X                  Y                   Z
    ------   -----------------  -----------------  -----------------
       1       -0.000018175760    -0.000014031573    -0.000020944229
       2        0.000027124227     0.002019917130    -0.000196001078
       3        0.000394449881    -0.003190594814     0.000689653652
       4        0.000005936505     0.000002041098     0.000019957225
       5       -0.000020363160     0.000008755705    -0.000023114616
       6       -0.002122410473     0.002736237330    -0.001806937127
       7        0.000022510861     0.000001768852    -0.000012683652
       8        0.001705327136    -0.001545309400     0.001313191159
       9       -0.000002875552    -0.000013110870     0.000032059873
      10        0.000008476336    -0.000005673459     0.000004818792

  **** Optimization is complete! (in 4 steps) ****
    Final optimized geometry and variables:
    Molecular point group: c1

    Geometry (in Angstrom), charge = 0, multiplicity = 1:

    H            0.841411169903     1.093043180552     1.122076157609
    C            0.269260222246     0.174346336602     1.195197688376
    N           -0.539947237505     0.017565975025     0.006746104577
    H           -0.373787091121     0.254405451523     2.064222913483
    H            0.973715093236    -0.644207764912     1.366732857602
    C            0.228050729083    -0.146890173992    -1.208509574175
    H           -1.177905175327    -0.744598734488     0.118096704189
    H            0.977371692222     0.635125122796    -1.265529610784
    H           -0.419991460072    -0.064366878455    -2.073376286221
    H            0.760005515468    -1.100384011331    -1.267453132144

  Mulliken Charges: (a.u.)
   Center  Symbol    Alpha    Beta     Spin     Total
       1     H     0.41797  0.41797  0.00000  0.16407
       2     C     3.14429  3.14429  0.00000 -0.28858
       3     N     3.83998  3.83998  0.00000 -0.67997
       4     H     0.41703  0.41703  0.00000  0.16595
       5     H     0.43502  0.43502  0.00000  0.12996
       6     C     3.14433  3.14433  0.00000 -0.28867
       7     H     0.33219  0.33219  0.00000  0.33561
       8     H     0.41913  0.41913  0.00000  0.16174
       9     H     0.41565  0.41565  0.00000  0.16870
      10     H     0.43440  0.43440  0.00000  0.13120

   Total alpha = 13.00000, Total beta = 13.00000, Total charge =  0.00000
