  ==> Input File <==

--------------------------------------------------------------------------
set {
	reference rhf
	basis 6-31G*
}

set_num_threads( 4 )
memory 2 gb

molecule MOL {
0 1

H	 -4.025412	 -0.508198	 0.322871
C	 -2.961089	 -0.353640	 0.333576
C	 -2.443903	 0.867103	 0.740336
C	 -2.111087	 -1.375443	 -0.059293
H	 -3.104226	 1.658719	 1.044775
C	 -1.075289	 1.065080	 0.753831
H	 -2.513821	 -2.321057	 -0.374294
C	 -0.740747	 -1.179531	 -0.046593
H	 -0.657401	 2.003096	 1.065549
C	 -0.219271	 0.042788	 0.360545
H	 -0.079276	 -1.967470	 -0.349792
C	 1.246951	 0.306947	 0.393254
O	 1.970282	 -0.730723	 0.000018
O	 1.729496	 1.340689	 0.735873
C	 3.377318	 -0.566646	 -0.000065
H	 3.695437	 -0.028981	 -0.881264
H	 3.789299	 -1.563704	 0.000236
H	 3.695516	 -0.028316	 0.880770

	symmetry c1
}
set optking {
	frozen_dihedral = ("
		12 13 15 16
	")
}

ee = optimize('scf')
oeprop('DIPOLE', 'QUADRUPOLE', 'MULLIKEN_CHARGES')
f=open( 'psi4out.xyz', 'w' )
f.write( "18  " )
f.write( str(ee) + "\n" )
f.write( MOL.save_string_xyz() )
f.close()
--------------------------------------------------------------------------

    Molecular point group: c1
  Charge       = 0
  Multiplicity = 1
  Basis Set: 6-31G*
  Basis Set:
  @DF-RHF Final Energy:  -457.35000356089063
    Total Energy =                       -457.3500035608904000
    Molecular point group: c1
  Basis Set: 6-31G*
  Basis Set:
  Basis Set: 6-31G*
  Basis Set:
  @DF-RHF Final Energy:  -457.35004606949786
    Total Energy =                       -457.3500460694972389
  Basis Set: 6-31G*
  Basis Set:
  Basis Set: 6-31G*
  Basis Set:
  @DF-RHF Final Energy:  -457.34984741957032
    Total Energy =                       -457.3498474195703238
  Basis Set: 6-31G*
  Basis Set:
  Basis Set: 6-31G*
  Basis Set:
  @DF-RHF Final Energy:  -457.35009377961859
    Total Energy =                       -457.3500937796186463
  Basis Set: 6-31G*
  Basis Set:
  Charge       = 0
  Multiplicity = 1
  Basis Set: 6-31G*
  Basis Set:

    Orbital Energies (a.u.)
    -----------------------

    Doubly Occupied:

       1A    -20.607440     2A    -20.544204     3A    -11.378238
       4A    -11.282667     5A    -11.245455     6A    -11.245176
       7A    -11.244014     8A    -11.241576     9A    -11.237358
      10A    -11.236592    11A     -1.472127    12A     -1.364035
      13A     -1.165151    14A     -1.048022    15A     -1.024689
      16A     -0.978528    17A     -0.860079    18A     -0.834190
      19A     -0.777505    20A     -0.739870    21A     -0.683457
      22A     -0.676928    23A     -0.671808    24A     -0.631086
      25A     -0.623829    26A     -0.597666    27A     -0.584627
      28A     -0.563119    29A     -0.527844    30A     -0.516511
      31A     -0.503542    32A     -0.498740    33A     -0.458537
      34A     -0.444244    35A     -0.344779    36A     -0.340865

  @DF-RHF Final Energy:  -457.35010224540207

   => Energetics <=

    Nuclear Repulsion Energy =            492.8822643820823828
    One-Electron Energy =               -1600.0757339952638176
    Two-Electron Energy =                 649.8433673677793649
    DFT Exchange-Correlation Energy =       0.0000000000000000
    Empirical Dispersion Energy =           0.0000000000000000
    PCM Polarization Energy =               0.0000000000000000
    EFP Energy =                            0.0000000000000000
    Total Energy =                       -457.3501022454020131
    Molecular point group: c1
  Basis Set: 6-31G*
  Basis Set:

  -Total Gradient:
     Atom            X                  Y                   Z
    ------   -----------------  -----------------  -----------------
       1        0.000000123351     0.000000114142     0.000000129941
       2        0.000001433704     0.000000392139    -0.000000470094
       3        0.000002681980    -0.000004622994    -0.000000663533
       4       -0.000000012698    -0.000004362626    -0.000002281466
       5       -0.000000399616    -0.000000183139     0.000001839098
       6       -0.000000304053    -0.000001553750     0.000003831362
       7       -0.000002838923     0.000001263600    -0.000001321030
       8       -0.000018628183    -0.000014405973    -0.000007855471
       9       -0.000001717297    -0.000002208209    -0.000004127230
      10        0.000004085719    -0.000005526879    -0.000009798857
      11       -0.000004624950     0.000006141041     0.000004827369
      12       -0.000005365184    -0.000392981463     0.001312692098
      13        0.000049403850     0.000344109908    -0.002017399039
      14        0.000049024081    -0.000075644824    -0.000047360115
      15       -0.000164513544     0.001454761362     0.001568537988
      16        0.000114784686    -0.001320802538    -0.000803704484
      17       -0.000005611667     0.000014835462    -0.000005557723
      18       -0.000017521261     0.000000674740     0.000008681183

  **** Optimization is complete! (in 5 steps) ****
    Final optimized geometry and variables:
    Molecular point group: c1

    Geometry (in Angstrom), charge = 0, multiplicity = 1:

    H           -4.029659058357    -0.467172036802     0.014092616761
    C           -2.965965877043    -0.308421865422     0.021956552559
    C           -2.452570255451     0.915263805844     0.424736169844
    C           -2.112943084648    -1.327733971139    -0.370714443148
    H           -3.115231949431     1.705071238101     0.728925120837
    C           -1.084786424897     1.118693532066     0.434369919708
    H           -2.512760223997    -2.275557112164    -0.682732696641
    C           -0.743351701198    -1.126394971756    -0.361611485492
    H           -0.670015318801     2.059123559736     0.742808851370
    C           -0.225566029206     0.098848027699     0.041588516817
    H           -0.079794897917    -1.912463585772    -0.664890575212
    C            1.239944435059     0.369377207624     0.070852918725
    O            1.964304247529    -0.665510707939    -0.328169109691
    O            1.717291315847     1.405374952196     0.413820441192
    C            3.373857778611    -0.523508698187    -0.308426851354
    H            3.702583699808     0.024826355251    -1.180704891021
    H            3.771701543435    -1.526216071929    -0.340743775733
    H            3.696966725258    -0.016306455482     0.586478767386

  Mulliken Charges: (a.u.)
   Center  Symbol    Alpha    Beta     Spin     Total
       1     H     0.39542  0.39542  0.00000  0.20917
       2     C     3.08999  3.08999  0.00000 -0.17999
       3     C     3.10710  3.10710  0.00000 -0.21420
       4     C     3.10715  3.10715  0.00000 -0.21430
       5     H     0.39540  0.39540  0.00000  0.20921
       6     C     3.08644  3.08644  0.00000 -0.17288
       7     H     0.39629  0.39629  0.00000  0.20741
       8     C     3.08711  3.08711  0.00000 -0.17422
       9     H     0.37596  0.37596  0.00000  0.24809
      10     C     3.07726  3.07726  0.00000 -0.15451
      11     H     0.38049  0.38049  0.00000  0.23902
      12     C     2.57959  2.57959  0.00000  0.84082
      13     O     4.31524  4.31524  0.00000 -0.63049
      14     O     4.29171  4.29171  0.00000 -0.58343
      15     C     3.09361  3.09361  0.00000 -0.18723
      16     H     0.41082  0.41082  0.00000  0.17835
      17     H     0.40868  0.40868  0.00000  0.18264
      18     H     0.40173  0.40173  0.00000  0.19654

   Total alpha = 36.00000, Total beta = 36.00000, Total charge =  0.00000
