  ==> Input File <==

--------------------------------------------------------------------------
set {
	reference rhf
	basis 6-31G*
}

set_num_threads( 4 )
memory 2 gb

molecule MOL {
0 1

H	 -1.198626	 0.364101	 1.009463
C	 -0.790252	 0.431209	 0.000000
N	 0.538815	 0.649616	 0.000000
O	 -1.479848	 0.317887	 -0.969961
C	 1.521968	 -0.411503	 0.000000
H	 0.852804	 1.592852	 0.000000
H	 2.150599	 -0.357004	 -0.881901
H	 0.999455	 -1.354525	 0.000000
H	 2.150599	 -0.357004	 0.881901

	symmetry c1
}
set optking {
	frozen_dihedral = ("
		1 2 3 6
	")
}

ee = optimize('scf')
oeprop('DIPOLE', 'QUADRUPOLE', 'MULLIKEN_CHARGES')
f=open( 'psi4out.xyz', 'w' )
f.write( "9  " )
f.write( str(ee) + "\n" )
f.write( MOL.save_string_xyz() )
f.close()
--------------------------------------------------------------------------

    Molecular point group: c1
  Charge       = 0
  Multiplicity = 1
  Basis Set: 6-31G*
  Basis Set:
  @DF-RHF Final Energy:  -207.91653815655027
    Total Energy =                       -207.9165381565503310
    Molecular point group: c1
  Basis Set: 6-31G*
  Basis Set:
  Basis Set: 6-31G*
  Basis Set:
  @DF-RHF Final Energy:  -207.92041837809450
    Total Energy =                       -207.9204183780944390
  Basis Set: 6-31G*
  Basis Set:
  Basis Set: 6-31G*
  Basis Set:
  @DF-RHF Final Energy:  -207.92094708143358
    Total Energy =                       -207.9209470814337237
  Basis Set: 6-31G*
  Basis Set:
  Basis Set: 6-31G*
  Basis Set:
  @DF-RHF Final Energy:  -207.92479891067813
    Total Energy =                       -207.9247989106781631
  Basis Set: 6-31G*
  Basis Set:
  @DF-RHF Final Energy:  -207.84687247188441
    Total Energy =                       -207.8468724718844669
  @DF-RHF Final Energy:  -207.92210801608468
    Total Energy =                       -207.9221080160847919
  @DF-RHF Final Energy:  -207.93566897970146
    Total Energy =                       -207.9356689797014610
  @DF-RHF Final Energy:  -207.93594891391831
    Total Energy =                       -207.9359489139183950
  @DF-RHF Final Energy:  -207.93654170273027
    Total Energy =                       -207.9365417027303238
  @DF-RHF Final Energy:  -207.93874831988907
    Total Energy =                       -207.9387483198890436
  @DF-RHF Final Energy:  -207.93906974521491
    Total Energy =                       -207.9390697452149084
  Basis Set: 6-31G*
  Basis Set:
  @DF-RHF Final Energy:  -207.93913496137438
    Total Energy =                       -207.9391349613743785
  Basis Set: 6-31G*
  Basis Set:
  Basis Set: 6-31G*
  Basis Set:
  @DF-RHF Final Energy:  -207.93913273218385
    Total Energy =                       -207.9391327321836798
  Basis Set: 6-31G*
  Basis Set:
  Basis Set: 6-31G*
  Basis Set:
  @DF-RHF Final Energy:  -207.93913966930398
    Total Energy =                       -207.9391396693039837
  Basis Set: 6-31G*
  Basis Set:
  Charge       = 0
  Multiplicity = 1
  Basis Set: 6-31G*
  Basis Set:

    Orbital Energies (a.u.)
    -----------------------

    Doubly Occupied:

       1A    -20.565020     2A    -15.575980     3A    -11.354166
       4A    -11.251907     5A     -1.418557     6A     -1.223237
       7A     -0.946687     8A     -0.811617     9A     -0.719974
      10A     -0.661220    11A     -0.643244    12A     -0.570499
      13A     -0.547887    14A     -0.527774    15A     -0.443218
      16A     -0.411367

  @DF-RHF Final Energy:  -207.93913971184446

   => Energetics <=

    Nuclear Repulsion Energy =            122.3926989648673640
    One-Electron Energy =                -525.3189685731451846
    Two-Electron Energy =                 194.9871298964333164
    DFT Exchange-Correlation Energy =       0.0000000000000000
    Empirical Dispersion Energy =           0.0000000000000000
    PCM Polarization Energy =               0.0000000000000000
    EFP Energy =                            0.0000000000000000
    Total Energy =                       -207.9391397118445184
    Molecular point group: c1
  Basis Set: 6-31G*
  Basis Set:

  -Total Gradient:
     Atom            X                  Y                   Z
    ------   -----------------  -----------------  -----------------
       1       -0.001047721387    -0.011904381726     0.004359789223
       2        0.002577420619     0.014399989222    -0.008304221053
       3       -0.006659955369     0.002142125989     0.015261433022
       4        0.000000100030     0.000007572699    -0.000013518283
       5       -0.000025270041    -0.000043808492     0.000105454910
       6        0.005147121487    -0.004611433653    -0.011385907175
       7        0.000006313935    -0.000004382248    -0.000010515975
       8       -0.000003656056     0.000017486967    -0.000016059814
       9        0.000005646782    -0.000003168758     0.000003545149

  **** Optimization is complete! (in 15 steps) ****
    Final optimized geometry and variables:
    Molecular point group: c1

    Geometry (in Angstrom), charge = 0, multiplicity = 1:

    H           -1.607479928683     0.661589144992     0.829208450507
    C           -0.827625012693     0.340767386578     0.139646986282
    N            0.466514671343     0.426747152116     0.687764282548
    O           -1.100559620431    -0.183358648978    -0.888675917747
    C            1.400124175336    -0.556457288482     0.129392455081
    H            0.850434114387     1.335207456086     0.492633094765
    H            1.545542609476    -0.456855560255    -0.940509907191
    H            1.028769152910    -1.551959747912     0.329953277133
    H            2.350846184489    -0.439138170285     0.633202414409

  Mulliken Charges: (a.u.)
   Center  Symbol    Alpha    Beta     Spin     Total
       1     H     0.41483  0.41483  0.00000  0.17034
       2     C     2.77746  2.77746  0.00000  0.44507
       3     N     3.86526  3.86526  0.00000 -0.73052
       4     O     4.23853  4.23853  0.00000 -0.47705
       5     C     3.15490  3.15490  0.00000 -0.30981
       6     H     0.31726  0.31726  0.00000  0.36548
       7     H     0.41200  0.41200  0.00000  0.17600
       8     H     0.40672  0.40672  0.00000  0.18655
       9     H     0.41303  0.41303  0.00000  0.17393

   Total alpha = 16.00000, Total beta = 16.00000, Total charge =  0.00000
