  ==> Input File <==

--------------------------------------------------------------------------
set {
	reference rhf
	basis 6-31G*
}

set_num_threads( 4 )
memory 2 gb

molecule MOL {
0 1

H	 -1.764462	 -0.373314	 -1.056230
O	 -1.422729	 -0.573567	 -0.196946
C	 -0.731407	 0.539437	 0.309156
C	 0.680193	 0.672443	 -0.251532
H	 -1.319765	 1.404033	 0.030086
H	 -0.700012	 0.506517	 1.397677
C	 1.599139	 -0.492137	 0.118598
H	 0.616402	 0.758534	 -1.332349
H	 1.107032	 1.602637	 0.117369
H	 1.239738	 -1.428634	 -0.297334
H	 2.601428	 -0.335055	 -0.265730
H	 1.674954	 -0.608418	 1.197020

	symmetry c1
}
set optking {
	frozen_dihedral = ("
		1 2 3 4
	")
}

ee = optimize('scf')
oeprop('DIPOLE', 'QUADRUPOLE', 'MULLIKEN_CHARGES')
f=open( 'psi4out.xyz', 'w' )
f.write( "12  " )
f.write( str(ee) + "\n" )
f.write( MOL.save_string_xyz() )
f.close()
--------------------------------------------------------------------------

    Molecular point group: c1
  Charge       = 0
  Multiplicity = 1
  Basis Set: 6-31G*
  Basis Set:
  @DF-RHF Final Energy:  -193.10823119150297
    Total Energy =                       -193.1082311915029948
    Molecular point group: c1
  Basis Set: 6-31G*
  Basis Set:
  Basis Set: 6-31G*
  Basis Set:
  @DF-RHF Final Energy:  -193.10972533494382
    Total Energy =                       -193.1097253349438176
  Basis Set: 6-31G*
  Basis Set:
  Basis Set: 6-31G*
  Basis Set:
  @DF-RHF Final Energy:  -193.11016038518443
    Total Energy =                       -193.1101603851844857
  Basis Set: 6-31G*
  Basis Set:
  Basis Set: 6-31G*
  Basis Set:
  @DF-RHF Final Energy:  -193.11016576230966
    Total Energy =                       -193.1101657623096628
  Basis Set: 6-31G*
  Basis Set:
  Basis Set: 6-31G*
  Basis Set:
  @DF-RHF Final Energy:  -193.11016849531609
    Total Energy =                       -193.1101684953162589
  Basis Set: 6-31G*
  Basis Set:
  Basis Set: 6-31G*
  Basis Set:
  @DF-RHF Final Energy:  -193.11016950062981
    Total Energy =                       -193.1101695006298655
  Basis Set: 6-31G*
  Basis Set:
  Charge       = 0
  Multiplicity = 1
  Basis Set: 6-31G*
  Basis Set:

    Orbital Energies (a.u.)
    -----------------------

    Doubly Occupied:

       1A    -20.553957     2A    -11.268425     3A    -11.217722
       4A    -11.205683     5A     -1.360442     6A     -1.047561
       7A     -0.919758     8A     -0.810884     9A     -0.686484
      10A     -0.637931    11A     -0.616755    12A     -0.565230
      13A     -0.525612    14A     -0.520631    15A     -0.482886
      16A     -0.467058    17A     -0.429372

  @DF-RHF Final Energy:  -193.11016951799405

   => Energetics <=

    Nuclear Repulsion Energy =            133.0505464702347354
    One-Electron Energy =                -525.6886482540523957
    Two-Electron Energy =                 199.5279322658236083
    DFT Exchange-Correlation Energy =       0.0000000000000000
    Empirical Dispersion Energy =           0.0000000000000000
    PCM Polarization Energy =               0.0000000000000000
    EFP Energy =                            0.0000000000000000
    Total Energy =                       -193.1101695179940521
    Molecular point group: c1
  Basis Set: 6-31G*
  Basis Set:

  -Total Gradient:
     Atom            X                  Y                   Z
    ------   -----------------  -----------------  -----------------
       1       -0.001195248813     0.000450143358     0.000527060348
       2        0.001576829623    -0.000755299743    -0.000369318577
       3       -0.000697248812     0.000751700610    -0.000829952689
       4        0.000313680461    -0.000457069385     0.000675726705
       5       -0.000000098747     0.000002482517     0.000005062416
       6       -0.000010451825     0.000003659293     0.000001805900
       7       -0.000000012646     0.000002763312    -0.000000439869
       8        0.000007126547     0.000001935359    -0.000005968310
       9        0.000004046500    -0.000003045509    -0.000002869445
      10       -0.000000445876     0.000002331082    -0.000000383028
      11        0.000003398315     0.000000903568     0.000000820410
      12       -0.000001574722    -0.000000504460    -0.000001543862

  **** Optimization is complete! (in 7 steps) ****
    Final optimized geometry and variables:
    Molecular point group: c1

    Geometry (in Angstrom), charge = 0, multiplicity = 1:

    H           -1.712461023971    -0.444864208159    -1.038334733857
    O           -1.384577943586    -0.610697938798    -0.165989635008
    C           -0.726969059180     0.535624432276     0.313605722527
    C            0.690715452330     0.671254666154    -0.230444309805
    H           -1.304149463443     1.429929942484     0.087755474156
    H           -0.699582954228     0.434761982174     1.392144267518
    C            1.588152811142    -0.508003872789     0.139326822646
    H            0.647163858016     0.774223331525    -1.313675142800
    H            1.117381610482     1.597461214217     0.149327440888
    H            1.174897109423    -1.438528992861    -0.230757245065
    H            2.582623224971    -0.387055203701    -0.278770617397
    H            1.690186407052    -0.595096187362     1.217557217176

  Mulliken Charges: (a.u.)
   Center  Symbol    Alpha    Beta     Spin     Total
       1     H     0.28220  0.28220  0.00000  0.43560
       2     O     4.36851  4.36851  0.00000 -0.73702
       3     C     2.99923  2.99923  0.00000  0.00154
       4     C     3.16201  3.16201  0.00000 -0.32403
       5     H     0.42856  0.42856  0.00000  0.14287
       6     H     0.41712  0.41712  0.00000  0.16576
       7     C     3.24046  3.24046  0.00000 -0.48092
       8     H     0.42670  0.42670  0.00000  0.14660
       9     H     0.42337  0.42337  0.00000  0.15325
      10     H     0.40892  0.40892  0.00000  0.18216
      11     H     0.42071  0.42071  0.00000  0.15858
      12     H     0.42220  0.42220  0.00000  0.15560

   Total alpha = 17.00000, Total beta = 17.00000, Total charge =  0.00000
