  ==> Input File <==

--------------------------------------------------------------------------
set {
	reference rhf
	basis 6-31G*
}

set_num_threads( 4 )
memory 2 gb

molecule MOL {
0 1

O	 3.225979	 0.970355	 -0.599647
C	 2.701189	 0.057885	 -0.047330
C	 1.245376	 -0.013843	 0.345420
O	 3.347903	 -1.046386	 0.304773
C	 0.483105	 -1.122576	 -0.376917
H	 1.212029	 -0.132855	 1.423341
H	 0.807184	 0.959667	 0.140572
C	 -1.017873	 -1.141681	 -0.068381
H	 0.922690	 -2.082964	 -0.124849
H	 0.624572	 -0.999966	 -1.445269
C	 -1.374826	 -1.492659	 1.378861
H	 -1.488058	 -1.867422	 -0.727890
H	 -1.452792	 -0.176434	 -0.323631
C	 -2.883200	 -1.606437	 1.608775
H	 -0.898353	 -2.434573	 1.646424
H	 -0.972003	 -0.743244	 2.056418
C	 -3.251887	 -1.951690	 3.052728
H	 -3.292373	 -2.364622	 0.943216
H	 -3.361527	 -0.668419	 1.331241
C	 -4.759807	 -2.067223	 3.273022
H	 -2.773912	 -2.888266	 3.332027
H	 -2.847475	 -1.192645	 3.719123
H	 -4.989286	 -2.312531	 4.305384
H	 -5.189351	 -2.843042	 2.645492
H	 -5.263445	 -1.134513	 3.034958
C	 4.728119	 -1.109107	 -0.004993
H	 4.882018	 -1.033965	 -1.071845
H	 5.068212	 -2.067527	 0.355250
H	 5.265056	 -0.311663	 0.488280

	symmetry c1
}
set optking {
	frozen_dihedral = ("
		6 3 2 1
	")
}

ee = optimize('scf')
oeprop('DIPOLE', 'QUADRUPOLE', 'MULLIKEN_CHARGES')
f=open( 'psi4out.xyz', 'w' )
f.write( "29  " )
f.write( str(ee) + "\n" )
f.write( MOL.save_string_xyz() )
f.close()
--------------------------------------------------------------------------

    Molecular point group: c1
  Charge       = 0
  Multiplicity = 1
  Basis Set: 6-31G*
  Basis Set:
  @DF-RHF Final Energy:  -501.04254628282968
    Total Energy =                       -501.0425462828300169
    Molecular point group: c1
  Basis Set: 6-31G*
  Basis Set:
  Basis Set: 6-31G*
  Basis Set:
  @DF-RHF Final Energy:  -501.04282976650620
    Total Energy =                       -501.0428297665062018
  Basis Set: 6-31G*
  Basis Set:
  Basis Set: 6-31G*
  Basis Set:
  @DF-RHF Final Energy:  -501.04219650355719
    Total Energy =                       -501.0421965035576477
  Basis Set: 6-31G*
  Basis Set:
  Basis Set: 6-31G*
  Basis Set:
  @DF-RHF Final Energy:  -501.04286155094917
    Total Energy =                       -501.0428615509489418
  Basis Set: 6-31G*
  Basis Set:
  Charge       = 0
  Multiplicity = 1
  Basis Set: 6-31G*
  Basis Set:

    Orbital Energies (a.u.)
    -----------------------

    Doubly Occupied:

       1A    -20.603746     2A    -20.543244     3A    -11.370474
       4A    -11.280540     5A    -11.233310     6A    -11.228247
       7A    -11.221350     8A    -11.218110     9A    -11.217060
      10A    -11.216046    11A    -11.209957    12A     -1.468278
      13A     -1.360860    14A     -1.101160    15A     -1.068878
      16A     -1.019754    17A     -0.974362    18A     -0.931304
      19A     -0.865015    20A     -0.800076    21A     -0.791473
      22A     -0.772809    23A     -0.696966    24A     -0.679316
      25A     -0.671999    26A     -0.652658    27A     -0.628807
      28A     -0.606967    29A     -0.590053    30A     -0.575600
      31A     -0.571812    32A     -0.550421    33A     -0.538143
      34A     -0.532655    35A     -0.518480    36A     -0.515932
      37A     -0.500769    38A     -0.480392    39A     -0.473062
      40A     -0.464585    41A     -0.461587    42A     -0.453799
      43A     -0.446988    44A     -0.426793

  @DF-RHF Final Energy:  -501.04286077035260

   => Energetics <=

    Nuclear Repulsion Energy =            613.0630369085828306
    One-Electron Energy =               -1897.1441246755350676
    Two-Electron Energy =                 783.0382269965987234
    DFT Exchange-Correlation Energy =       0.0000000000000000
    Empirical Dispersion Energy =           0.0000000000000000
    PCM Polarization Energy =               0.0000000000000000
    EFP Energy =                            0.0000000000000000
    Total Energy =                       -501.0428607703536272
    Molecular point group: c1
  Basis Set: 6-31G*
  Basis Set:

  -Total Gradient:
     Atom            X                  Y                   Z
    ------   -----------------  -----------------  -----------------
       1        0.000024145214     0.000080195755     0.000222864590
       2       -0.000039477184     0.000104643567    -0.000238404458
       3        0.000044911796    -0.000258177769     0.000059331707
       4        0.000020914328    -0.000112468798    -0.000001540482
       5        0.000002003370    -0.000044003093     0.000005027797
       6        0.000052532844     0.000297967967    -0.000057825352
       7        0.000013122939    -0.000018425722     0.000003685805
       8       -0.000011955104     0.000088413027     0.000029807921
       9       -0.000011331060     0.000027350512     0.000043270185
      10       -0.000030762414    -0.000077746391    -0.000017322477
      11       -0.000048667739    -0.000060083367    -0.000000523772
      12        0.000041598727     0.000024197554    -0.000042921745
      13        0.000011966867     0.000031127421     0.000039365553
      14        0.000002138252    -0.000024839479    -0.000000885465
      15        0.000009255033    -0.000040154470     0.000010739476
      16       -0.000062981755    -0.000025978250    -0.000016484351
      17        0.000004671577     0.000019162943     0.000008895947
      18        0.000005755226    -0.000013019256     0.000013918552
      19        0.000000527224    -0.000004218538    -0.000016716231
      20        0.000001646904     0.000015482173    -0.000004872993
      21       -0.000004737145    -0.000000727321    -0.000009546440
      22        0.000006149876    -0.000000842033     0.000009131802
      23        0.000004721664     0.000002276916    -0.000001008935
      24        0.000002341524    -0.000001134064    -0.000000341017
      25       -0.000004279454     0.000000372695    -0.000000062397
      26       -0.000067740839    -0.000026274959    -0.000077269857
      27        0.000028996905    -0.000001197345     0.000014325868
      28        0.000013249229     0.000002753689     0.000010853952
      29       -0.000008716815     0.000015346634     0.000014506819

  **** Optimization is complete! (in 5 steps) ****
    Final optimized geometry and variables:
    Molecular point group: c1

    Geometry (in Angstrom), charge = 0, multiplicity = 1:

    O            2.948330396733     1.950681388093    -1.365041488118
    C            2.440422044591     1.015785333757    -0.834206230586
    C            0.991343209608     0.934299712442    -0.423812668899
    O            3.104166312663    -0.093245529810    -0.530446808775
    C            0.236123654452    -0.190878183466    -1.147685731601
    H            0.961785919631     0.781653274244     0.649701083479
    H            0.545861292236     1.896683688668    -0.641341042924
    C           -1.268810471896    -0.205622378514    -0.858547933746
    H            0.671793264398    -1.147224920319    -0.877868670484
    H            0.381007878463    -0.073034143021    -2.218737771643
    C           -1.642188875117    -0.549683141604     0.585963769649
    H           -1.731016948928    -0.933731349264    -1.521213971008
    H           -1.696576529453     0.759456678994    -1.123773818459
    C           -3.153541002194    -0.658877272705     0.798236861042
    H           -1.170643331644    -1.491069303863     0.863782736664
    H           -1.245888280367     0.202612959120     1.263801241500
    C           -3.539964793656    -0.988210433761     2.241253283707
    H           -3.555877284309    -1.423498413865     0.135855473592
    H           -3.626768205886     0.276881558209     0.505089437642
    C           -5.050711567519    -1.096959831376     2.444860537863
    H           -3.068123304192    -1.923258526534     2.535711363858
    H           -3.141068517158    -0.223493045127     2.904394247703
    H           -5.292901858343    -1.330648905086     3.476980449660
    H           -5.475263286344    -1.878124421280     1.820563327681
    H           -5.548613067157    -0.165338168316     2.191139742363
    C            4.476702586225    -0.135303388795    -0.875577202282
    H            4.603839899194    -0.025268831364    -1.942876896460
    H            4.832714546236    -1.101662642042    -0.553944045373
    H            5.019121911649     0.650866433747    -0.370438516685

  Mulliken Charges: (a.u.)
   Center  Symbol    Alpha    Beta     Spin     Total
       1     O     4.28568  4.28568  0.00000 -0.57137
       2     C     2.61450  2.61450  0.00000  0.77099
       3     C     3.19882  3.19882  0.00000 -0.39764
       4     O     4.30258  4.30258  0.00000 -0.60516
       5     C     3.16481  3.16481  0.00000 -0.32963
       6     H     0.40244  0.40244  0.00000  0.19513
       7     H     0.39935  0.39935  0.00000  0.20129
       8     C     3.15504  3.15504  0.00000 -0.31008
       9     H     0.40848  0.40848  0.00000  0.18303
      10     H     0.41360  0.41360  0.00000  0.17280
      11     C     3.15520  3.15520  0.00000 -0.31040
      12     H     0.41842  0.41842  0.00000  0.16317
      13     H     0.42089  0.42089  0.00000  0.15821
      14     C     3.15062  3.15062  0.00000 -0.30124
      15     H     0.42234  0.42234  0.00000  0.15531
      16     H     0.42242  0.42242  0.00000  0.15516
      17     C     3.15159  3.15159  0.00000 -0.30317
      18     H     0.42347  0.42347  0.00000  0.15305
      19     H     0.42332  0.42332  0.00000  0.15336
      20     C     3.23944  3.23944  0.00000 -0.47887
      21     H     0.42286  0.42286  0.00000  0.15428
      22     H     0.42301  0.42301  0.00000  0.15399
      23     H     0.41901  0.41901  0.00000  0.16197
      24     H     0.42163  0.42163  0.00000  0.15673
      25     H     0.42152  0.42152  0.00000  0.15697
      26     C     3.09218  3.09218  0.00000 -0.18436
      27     H     0.40903  0.40903  0.00000  0.18195
      28     H     0.40895  0.40895  0.00000  0.18210
      29     H     0.40879  0.40879  0.00000  0.18243

   Total alpha = 44.00000, Total beta = 44.00000, Total charge = -0.00000
