                              Psi4 1.0.54 Driver

  ==> Input File <==

--------------------------------------------------------------------------
set {
	reference rhf
	basis cc-pvtz
}

set_num_threads( 4 )
memory 2 gb

molecule MOL {
0 1

H	 -3.436473	 1.252944	 -1.023892
O	 -3.458596	 0.315260	 -0.960865
C	 -3.176635	 -0.080824	 0.355601
C	 -1.763371	 0.265266	 0.799691
H	 -3.321825	 -1.153438	 0.379502
H	 -3.895468	 0.357385	 1.043382
C	 -0.673390	 -0.426948	 -0.013392
H	 -1.631049	 1.344913	 0.747560
H	 -1.664587	 -0.001624	 1.849167
C	 0.737842	 -0.043159	 0.423759
H	 -0.806103	 -0.190518	 -1.063345
H	 -0.797221	 -1.503753	 0.074146
C	 1.824000	 -0.743224	 -0.390623
H	 0.850588	 1.033777	 0.343840
H	 0.868587	 -0.286314	 1.476203
C	 2.065254	 -2.207048	 -0.017977
H	 2.756192	 -0.191408	 -0.293840
H	 1.553463	 -0.696236	 -1.441918
C	 2.640274	 -2.423515	 1.379749
H	 2.747570	 -2.637757	 -0.744413
H	 1.134066	 -2.759445	 -0.113715
H	 3.569771	 -1.877665	 1.506871
H	 2.849053	 -3.473409	 1.551143
H	 1.957019	 -2.097693	 2.154738

	symmetry c1
}
set optking {
	frozen_dihedral = ("
		17 13 10 7
	")
}

ee,wfn = optimize('scf', return_wfn=True)
oeprop( wfn, 'DIPOLE', 'QUADRUPOLE', 'MULLIKEN_CHARGES')
f=open( 'psi4out.xyz', 'w' )
f.write( "24  " )
f.write( str(ee) + "\n" )
f.write( MOL.save_string_xyz() )
f.close()
--------------------------------------------------------------------------

    Molecular point group: c1
  Charge       = 0
  Multiplicity = 1
  Basis Set: CC-PVTZ
  Basis Set:
  @DF-RHF Final Energy:  -349.37785986996931
    Total Energy =                       -349.3778598699689724
    Molecular point group: c1
  Basis Set: CC-PVTZ
  Basis Set:
  Basis Set: CC-PVTZ
  Basis Set:
  @DF-RHF Final Energy:  -349.37811630809750
    Total Energy =                       -349.3781163080977876
  Basis Set: CC-PVTZ
  Basis Set:
  Basis Set: CC-PVTZ
  Basis Set:
  @DF-RHF Final Energy:  -349.37821390093774
    Total Energy =                       -349.3782139009380217
  Basis Set: CC-PVTZ
  Basis Set:
  Basis Set: CC-PVTZ
  Basis Set:
  @DF-RHF Final Energy:  -349.37826792938603
    Total Energy =                       -349.3782679293859701
  Basis Set: CC-PVTZ
  Basis Set:
  Charge       = 0
  Multiplicity = 1
  Basis Set: CC-PVTZ
  Basis Set:

    Orbital Energies (a.u.)
    -----------------------

    Doubly Occupied:

       1A    -20.546382     2A    -11.265621     3A    -11.215247
       4A    -11.211548     5A    -11.210335     6A    -11.209624
       7A    -11.208736     8A    -11.205174     9A     -1.364225
      10A     -1.089433    11A     -1.047996    12A     -0.985999
      13A     -0.916486    14A     -0.853364    15A     -0.808813
      16A     -0.766530    17A     -0.682831    18A     -0.652979
      19A     -0.625037    20A     -0.617376    21A     -0.610079
      22A     -0.576843    23A     -0.558866    24A     -0.545144
      25A     -0.521676    26A     -0.509081    27A     -0.496212
      28A     -0.476954    29A     -0.468452    30A     -0.463046
      31A     -0.451761    32A     -0.445719    33A     -0.422555

  @DF-RHF Final Energy:  -349.37826840791655

   => Energetics <=

    Nuclear Repulsion Energy =            389.1560368943621029
    One-Electron Energy =               -1245.0083530207341482
    Two-Electron Energy =                 506.4740477184551537
    DFT Exchange-Correlation Energy =       0.0000000000000000
    Empirical Dispersion Energy =           0.0000000000000000
    PCM Polarization Energy =               0.0000000000000000
    EFP Energy =                            0.0000000000000000
    Total Energy =                       -349.3782684079168348
    Molecular point group: c1
  Basis Set: CC-PVTZ
  Basis Set:

  -Total Gradient:
     Atom            X                  Y                   Z
    ------   -----------------  -----------------  -----------------
       1       -0.000000351533    -0.000003321379     0.000000288183
       2        0.000012063223    -0.000008162512    -0.000009603318
       3       -0.000034774429     0.000042440205     0.000026266120
       4       -0.000008327719    -0.000041396940    -0.000017287886
       5        0.000009352537     0.000007634257    -0.000000383567
       6       -0.000018229474    -0.000005252288    -0.000001847701
       7        0.000023243391     0.001086968164    -0.000879305904
       8       -0.000005196417    -0.000010867530    -0.000002967331
       9        0.000001796874    -0.000000474081    -0.000007063827
      10       -0.000103123452    -0.001256561506     0.000910500632
      11        0.000012574283    -0.000000029594     0.000005545106
      12        0.000002682896     0.000018654331     0.000009165860
      13        0.000488776755    -0.000879037007     0.001475869182
      14       -0.000016221066     0.000000875520     0.000016321113
      15       -0.000014944187    -0.000016772817     0.000008350422
      16        0.000047156987     0.000002603654     0.000010266152
      17       -0.000394737858     0.001007755700    -0.001536225277
      18        0.000008046178    -0.000009158159    -0.000012597040
      19       -0.000010434448     0.000000525799     0.000024172806
      20       -0.000035902114     0.000018235284     0.000038195418
      21        0.000043077043     0.000044055694    -0.000007230408
      22       -0.000033892160    -0.000009295362     0.000000255219
      23       -0.000010817786     0.000020878642    -0.000004818513
      24        0.000038182474    -0.000010298075    -0.000045865446

  **** Optimization is complete! (in 5 steps) ****
    Final optimized geometry and variables:
    Molecular point group: c1

    Geometry (in Angstrom), charge = 0, multiplicity = 1:

    H           -3.095216255002     1.969495142260    -1.284787327814
    O           -3.149275770005     1.033860735031    -1.211624457431
    C           -2.909354129612     0.644992235872     0.115211576328
    C           -1.495746178779     0.951138431377     0.586834159544
    H           -3.089534139548    -0.422085199520     0.147611864732
    H           -3.628899152667     1.113912729902     0.781689588430
    C           -0.410289308729     0.218610478882    -0.196892281947
    H           -1.328729874378     2.025678689619     0.528702998884
    H           -1.427939593377     0.690963830516     1.640427506054
    C            1.001702717888     0.577764745828     0.263215403679
    H           -0.513551491184     0.448704838807    -1.251362540053
    H           -0.573718506735    -0.851205628422    -0.100960819265
    C            2.113917516074    -0.130565995016    -0.518126529627
    H            1.133847896666     1.650220909228     0.147640358980
    H            1.103073659455     0.380416446079     1.325979258459
    C            2.353540761908    -1.600573585850    -0.163583013025
    H            3.042327700842     0.419332597766    -0.390135369522
    H            1.880646278540    -0.064274509604    -1.577500234470
    C            2.936012250580    -1.829778302438     1.229036878678
    H            3.036780420657    -2.018332069916    -0.896520879054
    H            1.429579014411    -2.161166573491    -0.264925002855
    H            3.871033465318    -1.292983598868     1.352539816043
    H            3.136121053816    -2.882488771485     1.393350126117
    H            2.262532680310    -1.502227539131     2.011840871629

  Mulliken Charges: (a.u.)
   Center  Symbol    Alpha    Beta     Spin     Total
       1     H     0.39520  0.39520  0.00000  0.20960
       2     O     4.20361  4.20361  0.00000 -0.40722
       3     C     2.97689  2.97689  0.00000  0.04621
       4     C     3.10251  3.10251  0.00000 -0.20501
       5     H     0.45910  0.45910  0.00000  0.08180
       6     H     0.46030  0.46030  0.00000  0.07940
       7     C     3.08789  3.08789  0.00000 -0.17578
       8     H     0.45868  0.45868  0.00000  0.08264
       9     H     0.45295  0.45295  0.00000  0.09409
      10     C     3.10124  3.10124  0.00000 -0.20249
      11     H     0.44588  0.44588  0.00000  0.10825
      12     H     0.45447  0.45447  0.00000  0.09106
      13     C     3.10334  3.10334  0.00000 -0.20668
      14     H     0.44794  0.44794  0.00000  0.10413
      15     H     0.45323  0.45323  0.00000  0.09355
      16     C     3.09076  3.09076  0.00000 -0.18152
      17     H     0.44774  0.44774  0.00000  0.10453
      18     H     0.44961  0.44961  0.00000  0.10077
      19     C     3.15075  3.15075  0.00000 -0.30150
      20     H     0.44753  0.44753  0.00000  0.10495
      21     H     0.45331  0.45331  0.00000  0.09339
      22     H     0.45493  0.45493  0.00000  0.09014
      23     H     0.44709  0.44709  0.00000  0.10583
      24     H     0.45506  0.45506  0.00000  0.08989

   Total alpha = 33.00000, Total beta = 33.00000, Total charge =  0.00000

*** Psi4 exiting successfully. Buy a developer a beer!
