  ==> Input File <==

--------------------------------------------------------------------------
set {
	reference rhf
	basis cc-pvtz
}

set_num_threads( 4 )
memory 2 gb

molecule MOL {
0 1

O	 0.074770	 1.259872	 0.000487
C	 0.029490	 0.077183	 0.000078
C	 -1.232113	 -0.748027	 0.000015
O	 1.106773	 -0.690081	 -0.000204
C	 -2.501422	 0.088592	 -0.000052
H	 -1.188777	 -1.400384	 -0.865133
H	 -1.188857	 -1.400312	 0.865225
H	 -2.548170	 0.725504	 -0.873205
H	 -3.371613	 -0.556398	 -0.000040
H	 -2.548215	 0.725571	 0.873047
C	 0.950786	 -2.027480	 -0.429941
H	 0.250061	 -2.551889	 0.202686
H	 1.926903	 -2.479041	 -0.358433
H	 0.598138	 -2.061292	 -1.450108

	symmetry c1
}
set optking {
	frozen_dihedral = ("
		11 4 2 3
	")
}

ee = optimize('scf')
oeprop('DIPOLE', 'QUADRUPOLE', 'MULLIKEN_CHARGES')
f=open( 'psi4out.xyz', 'w' )
f.write( "14  " )
f.write( str(ee) + "\n" )
f.write( MOL.save_string_xyz() )
f.close()
--------------------------------------------------------------------------

    Molecular point group: c1
  Charge       = 0
  Multiplicity = 1
  Basis Set: CC-PVTZ
  Basis Set:
  @DF-RHF Final Energy:  -305.96313273029273
    Total Energy =                       -305.9631327302926138
    Molecular point group: c1
  Basis Set: CC-PVTZ
  Basis Set:
  Basis Set: CC-PVTZ
  Basis Set:
  @DF-RHF Final Energy:  -305.96279078671915
    Total Energy =                       -305.9627907867194381
  Basis Set: CC-PVTZ
  Basis Set:
  Basis Set: CC-PVTZ
  Basis Set:
  @DF-RHF Final Energy:  -305.97075948137348
    Total Energy =                       -305.9707594813736478
  Basis Set: CC-PVTZ
  Basis Set:
  Basis Set: CC-PVTZ
  Basis Set:
  @DF-RHF Final Energy:  -305.97197976152233
    Total Energy =                       -305.9719797615223911
  Basis Set: CC-PVTZ
  Basis Set:
  @DF-RHF Final Energy:  -305.97228088597194
    Total Energy =                       -305.9722808859718270
  Basis Set: CC-PVTZ
  Basis Set:
  @DF-RHF Final Energy:  -305.97288120384542
    Total Energy =                       -305.9728812038457022
  Basis Set: CC-PVTZ
  Basis Set:
  Basis Set: CC-PVTZ
  Basis Set:
  @DF-RHF Final Energy:  -305.97291855450976
    Total Energy =                       -305.9729185545101018
  Basis Set: CC-PVTZ
  Basis Set:
  Basis Set: CC-PVTZ
  Basis Set:
  @DF-RHF Final Energy:  -305.97292078251780
    Total Energy =                       -305.9729207825177468
  Basis Set: CC-PVTZ
  Basis Set:
  Charge       = 0
  Multiplicity = 1
  Basis Set: CC-PVTZ
  Basis Set:

    Orbital Energies (a.u.)
    -----------------------

    Doubly Occupied:

       1A    -20.594640     2A    -20.530081     3A    -11.366911
       4A    -11.293945     5A    -11.246806     6A    -11.218992
       7A     -1.466475     8A     -1.368831     9A     -1.064289
      10A     -0.987011    11A     -0.900351    12A     -0.769548
      13A     -0.707232    14A     -0.690270    15A     -0.675913
      16A     -0.626723    17A     -0.607281    18A     -0.559654
      19A     -0.554282    20A     -0.527181    21A     -0.511611
      22A     -0.504004    23A     -0.452944    24A     -0.436207

  @DF-RHF Final Energy:  -305.97292109157951

   => Energetics <=

    Nuclear Repulsion Energy =            248.0385625797804892
    One-Electron Energy =                -908.7006082656391754
    Two-Electron Energy =                 354.6891245942789510
    DFT Exchange-Correlation Energy =       0.0000000000000000
    Empirical Dispersion Energy =           0.0000000000000000
    PCM Polarization Energy =               0.0000000000000000
    EFP Energy =                            0.0000000000000000
    Total Energy =                       -305.9729210915796784
    Molecular point group: c1
  Basis Set: CC-PVTZ
  Basis Set:

  -Total Gradient:
     Atom            X                  Y                   Z
    ------   -----------------  -----------------  -----------------
       1       -0.000020923015     0.000009296741     0.000001427030
       2        0.000181191306     0.000224023575    -0.003048692300
       3        0.000000883988     0.000019801379     0.001424225082
       4       -0.000472506281    -0.000698949334     0.003178002213
       5        0.000001845637    -0.000003348385    -0.000003585011
       6       -0.000000105781     0.000007253230     0.000004856176
       7        0.000007325399    -0.000001325491    -0.000002447068
       8       -0.000000367678     0.000000866427    -0.000001713032
       9        0.000002373074     0.000000984966     0.000000214594
      10        0.000001934038     0.000000483793     0.000004224476
      11        0.000300140013     0.000466403075    -0.001566528974
      12       -0.000006649361     0.000011846784     0.000006680754
      13       -0.000002682856    -0.000005356290     0.000002289764
      14        0.000007541518    -0.000031980471     0.000001046296

  **** Optimization is complete! (in 9 steps) ****
    Final optimized geometry and variables:
    Molecular point group: c1

    Geometry (in Angstrom), charge = 0, multiplicity = 1:

    O            0.314867949926     1.552589310339     0.086076666513
    C            0.234978922748     0.377487986795     0.046311995944
    C           -1.083439072909    -0.366206745337     0.058015223521
    O            1.352901835199    -0.348113204079     0.051661586360
    C           -2.282824950624     0.566998935758     0.118170660149
    H           -1.139491457564    -0.998704174236    -0.821035586850
    H           -1.075352203257    -1.036801782354     0.911128170782
    H           -2.303111166651     1.227382608363    -0.737705348679
    H           -3.199779324354    -0.009681487710     0.130417888864
    H           -2.250799130474     1.182555220517     1.006217404280
    C            1.387054015925    -1.698058239591    -0.337052437930
    H            0.797050616431    -2.324937986412     0.318027836546
    H            2.419764015787    -1.999235774319    -0.270674887062
    H            1.051262601651    -1.823480944505    -1.358400004352

  Mulliken Charges: (a.u.)
   Center  Symbol    Alpha    Beta     Spin     Total
       1     O     4.17893  4.17893  0.00000 -0.35786
       2     C     2.80704  2.80704  0.00000  0.38591
       3     C     3.12192  3.12192  0.00000 -0.24385
       4     O     4.13017  4.13017  0.00000 -0.26035
       5     C     3.13916  3.13916  0.00000 -0.27832
       6     H     0.44296  0.44296  0.00000  0.11407
       7     H     0.43918  0.43918  0.00000  0.12163
       8     H     0.44606  0.44606  0.00000  0.10788
       9     H     0.45142  0.45142  0.00000  0.09715
      10     H     0.44479  0.44479  0.00000  0.11042
      11     C     3.04518  3.04518  0.00000 -0.09035
      12     H     0.46081  0.46081  0.00000  0.07839
      13     H     0.43348  0.43348  0.00000  0.13304
      14     H     0.45888  0.45888  0.00000  0.08224

   Total alpha = 24.00000, Total beta = 24.00000, Total charge =  0.00000
