  ==> Input File <==

--------------------------------------------------------------------------
set {
	reference rhf
	basis 6-31G*
}

set_num_threads( 4 )
memory 2 gb

molecule MOL {
0 1

H	 -3.042581	 -0.665861	 0.004336
O	 -2.245037	 -1.176175	 0.000806
C	 -1.162163	 -0.365336	 0.001020
C	 -1.255881	 0.999501	 0.205392
C	 0.074798	 -0.959114	 -0.218492
H	 -2.214230	 1.461517	 0.372963
C	 -0.098291	 1.764742	 0.188078
H	 0.110585	 -2.021677	 -0.375961
C	 1.228704	 -0.195331	 -0.234269
H	 -0.167758	 2.826728	 0.344284
C	 1.133453	 1.181233	 -0.029406
C	 2.576811	 -0.843107	 -0.448965
H	 2.021510	 1.788287	 -0.042420
H	 3.186525	 -0.260341	 -1.131185
H	 2.475486	 -1.841516	 -0.857344
H	 3.119857	 -0.921797	 0.488721

	symmetry c1
}
set optking {
	frozen_dihedral = ("
		5 3 2 1
	")
}

ee = optimize('scf')
oeprop('DIPOLE', 'QUADRUPOLE', 'MULLIKEN_CHARGES')
f=open( 'psi4out.xyz', 'w' )
f.write( "16  " )
f.write( str(ee) + "\n" )
f.write( MOL.save_string_xyz() )
f.close()
--------------------------------------------------------------------------

    Molecular point group: c1
  Charge       = 0
  Multiplicity = 1
  Basis Set: 6-31G*
  Basis Set:
  @DF-RHF Final Energy:  -344.59502316126867
    Total Energy =                       -344.5950231612685002
    Molecular point group: c1
  Basis Set: 6-31G*
  Basis Set:
  Basis Set: 6-31G*
  Basis Set:
  @DF-RHF Final Energy:  -344.59502619689533
    Total Energy =                       -344.5950261968953328
  Basis Set: 6-31G*
  Basis Set:
  Charge       = 0
  Multiplicity = 1
  Basis Set: 6-31G*
  Basis Set:

    Orbital Energies (a.u.)
    -----------------------

    Doubly Occupied:

       1A    -20.588678     2A    -11.295816     3A    -11.241525
       4A    -11.234811     5A    -11.222651     6A    -11.220067
       7A    -11.215992     8A    -11.215899     9A     -1.407183
      10A     -1.149338    11A     -1.042821    12A     -1.004660
      13A     -0.936072    14A     -0.823584    15A     -0.822719
      16A     -0.712973    17A     -0.680546    18A     -0.652750
      19A     -0.608076    20A     -0.589917    21A     -0.571135
      22A     -0.568777    23A     -0.565070    24A     -0.531322
      25A     -0.504330    26A     -0.481702    27A     -0.467217
      28A     -0.328855    29A     -0.305823

  @DF-RHF Final Energy:  -344.59502723010223

   => Energetics <=

    Nuclear Repulsion Energy =            345.5496948303390354
    One-Electron Energy =               -1152.3088223733391260
    Two-Electron Energy =                 462.1641003128974035
    DFT Exchange-Correlation Energy =       0.0000000000000000
    Empirical Dispersion Energy =           0.0000000000000000
    PCM Polarization Energy =               0.0000000000000000
    EFP Energy =                            0.0000000000000000
    Total Energy =                       -344.5950272301026871
    Molecular point group: c1
  Basis Set: 6-31G*
  Basis Set:

  -Total Gradient:
     Atom            X                  Y                   Z
    ------   -----------------  -----------------  -----------------
       1       -0.000010278480    -0.000002996269    -0.001059771796
       2       -0.000016544920     0.000077176078     0.000975128792
       3        0.000072556058    -0.000179676820     0.000878371513
       4       -0.000009671557    -0.000011830569    -0.000056977652
       5       -0.000035401432     0.000127794157    -0.000739883166
       6        0.000001182785    -0.000000697958     0.000012114746
       7        0.000026015785    -0.000007026618     0.000014804391
       8       -0.000004058259     0.000001537823    -0.000010108441
       9       -0.000024105877    -0.000015564870    -0.000066411268
      10       -0.000004941940     0.000002896279    -0.000003266127
      11       -0.000007054136     0.000018185988     0.000029817930
      12        0.000008931791    -0.000004397723     0.000025747358
      13       -0.000001533537    -0.000001658419    -0.000002886812
      14       -0.000004722683     0.000003623980     0.000002951468
      15       -0.000002461615    -0.000000543584    -0.000001497110
      16        0.000012088021    -0.000006821478     0.000001866176

  **** Optimization is complete! (in 3 steps) ****
    Final optimized geometry and variables:
    Molecular point group: c1

    Geometry (in Angstrom), charge = 0, multiplicity = 1:

    H           -3.039079280839    -0.670685055097     0.078934390596
    O           -2.241729617163    -1.181312453104     0.074235407301
    C           -1.158216285927    -0.370405532906     0.070907213679
    C           -1.252228754485     0.994477904082     0.274588735860
    C            0.078431499524    -0.963780665337    -0.150569373972
    H           -2.210319637224     1.455454750630     0.446292221551
    C           -0.094748176221     1.759894545109     0.256663667686
    H            0.113701528918    -2.025813087441    -0.311722448478
    C            1.232849141662    -0.200595536027    -0.162589804395
    H           -0.164325642864     2.821969927106     0.412318508251
    C            1.137270638086     1.175979623676     0.041812353147
    C            2.581056820734    -0.848250858295    -0.377015551121
    H            2.025400738922     1.782984599752     0.029727313299
    H            3.191150196742    -0.265450839738    -1.058924964126
    H            2.479834755980    -1.846685111814    -0.785564912094
    H            3.123737604963    -0.927157266202     0.560898443338

  Mulliken Charges: (a.u.)
   Center  Symbol    Alpha    Beta     Spin     Total
       1     H     0.27199  0.27199  0.00000  0.45602
       2     O     4.37914  4.37914  0.00000 -0.75828
       3     C     2.78997  2.78997  0.00000  0.42007
       4     C     3.14900  3.14900  0.00000 -0.29800
       5     C     3.14045  3.14045  0.00000 -0.28090
       6     H     0.40534  0.40534  0.00000  0.18933
       7     C     3.08718  3.08718  0.00000 -0.17436
       8     H     0.39436  0.39436  0.00000  0.21128
       9     C     2.96915  2.96915  0.00000  0.06170
      10     H     0.39892  0.39892  0.00000  0.20216
      11     C     3.12393  3.12393  0.00000 -0.24787
      12     C     3.25464  3.25464  0.00000 -0.50929
      13     H     0.40344  0.40344  0.00000  0.19311
      14     H     0.41196  0.41196  0.00000  0.17608
      15     H     0.41160  0.41160  0.00000  0.17680
      16     H     0.40893  0.40893  0.00000  0.18214

   Total alpha = 29.00000, Total beta = 29.00000, Total charge = -0.00000
