  ==> Input File <==

--------------------------------------------------------------------------
set {
	reference rhf
	basis 6-31G*
}

set_num_threads( 1 )
memory 2 gb

molecule MOL {
0 1

O	 3.225979	 0.970355	 -0.599647
C	 2.701189	 0.057885	 -0.047330
C	 1.245376	 -0.013843	 0.345420
O	 3.347903	 -1.046386	 0.304773
C	 0.455112	 1.231400	 -0.050772
H	 0.838542	 -0.913825	 -0.103701
H	 1.208210	 -0.175333	 1.419774
C	 -0.998893	 1.219485	 0.433193
H	 0.482531	 1.345121	 -1.130325
H	 0.957290	 2.103070	 0.354729
C	 -1.883438	 0.145884	 -0.207175
H	 -1.431207	 2.195402	 0.224832
H	 -1.019646	 1.105716	 1.516076
C	 -3.347647	 0.245583	 0.225435
H	 -1.822183	 0.231698	 -1.291012
H	 -1.510341	 -0.844814	 0.042401
C	 -4.335101	 -0.051295	 -0.904579
H	 -3.540021	 1.243116	 0.616783
H	 -3.527565	 -0.443758	 1.048926
C	 -5.795094	 0.054150	 -0.465258
H	 -4.156041	 0.636004	 -1.728715
H	 -4.147225	 -1.049657	 -1.294138
H	 -6.470300	 -0.161696	 -1.287520
H	 -6.024223	 1.052221	 -0.102560
H	 -6.015070	 -0.646021	 0.335770
C	 4.728119	 -1.109107	 -0.004993
H	 4.882018	 -1.033965	 -1.071845
H	 5.068212	 -2.067527	 0.355250
H	 5.265056	 -0.311663	 0.488280

	symmetry c1
}
set optking {
	frozen_dihedral = ("
		21 17 14 11,
		15 11 8 5,
		6 3 5 9,
		11 8 5 9,
		2 4 26 27,
		1 2 4 26,
		6 3 2 1
	")
}

ee = energy('scf')
oeprop('DIPOLE', 'QUADRUPOLE', 'MULLIKEN_CHARGES')
f=open( 'psi4out.xyz', 'w' )
f.write( "29  " )
f.write( str(ee) + "\n" )
f.write( MOL.save_string_xyz() )
f.close()
--------------------------------------------------------------------------

    Molecular point group: c1

    Geometry (in Angstrom), charge = 0, multiplicity = 1:

       Center              X                  Y                   Z               Mass
    ------------   -----------------  -----------------  -----------------  -----------------
           O          3.243318037098     0.828526733394    -0.508274710589    15.994914619560
           C          2.718528037098    -0.083943266606     0.044042289411    12.000000000000
           C          1.262715037098    -0.155671266606     0.436792289411    12.000000000000
           O          3.365242037098    -1.188214266606     0.396145289411    15.994914619560
           C          0.472451037098     1.089571733394     0.040600289411    12.000000000000
           H          0.855881037098    -1.055653266606    -0.012328710589     1.007825032070
           H          1.225549037098    -0.317161266606     1.511146289411     1.007825032070
           C         -0.981553962902     1.077656733394     0.524565289411    12.000000000000
           H          0.499870037098     1.203292733394    -1.038952710589     1.007825032070
           H          0.974629037098     1.961241733394     0.446101289411     1.007825032070
           C         -1.866098962902     0.004055733394    -0.115802710589    12.000000000000
           H         -1.413867962902     2.053573733394     0.316204289411     1.007825032070
           H         -1.002306962902     0.963887733394     1.607448289411     1.007825032070
           C         -3.330307962902     0.103754733394     0.316807289411    12.000000000000
           H         -1.804843962902     0.089869733394    -1.199639710589     1.007825032070
           H         -1.493001962902    -0.986642266606     0.133773289411     1.007825032070
           C         -4.317761962902    -0.193123266606    -0.813206710589    12.000000000000
           H         -3.522681962902     1.101287733394     0.708155289411     1.007825032070
           H         -3.510225962902    -0.585586266606     1.140298289411     1.007825032070
           C         -5.777754962902    -0.087678266606    -0.373885710589    12.000000000000
           H         -4.138701962902     0.494175733394    -1.637342710589     1.007825032070
           H         -4.129885962902    -1.191485266606    -1.202765710589     1.007825032070
           H         -6.452960962902    -0.303524266606    -1.196147710589     1.007825032070
           H         -6.006883962902     0.910392733394    -0.011187710589     1.007825032070
           H         -5.997730962902    -0.787849266606     0.427142289411     1.007825032070
           C          4.745458037098    -1.250935266606     0.086379289411    12.000000000000
           H          4.899357037098    -1.175793266606    -0.980472710589     1.007825032070
           H          5.085551037098    -2.209355266606     0.446622289411     1.007825032070
           H          5.282395037098    -0.453491266606     0.579652289411     1.007825032070

  Charge       = 0
  Multiplicity = 1
  Basis Set: 6-31G*
  Basis Set:

    Orbital Energies (a.u.)
    -----------------------

    Doubly Occupied:

       1A    -20.603301     2A    -20.545156     3A    -11.371918
       4A    -11.280615     5A    -11.234666     6A    -11.218813
       7A    -11.217837     8A    -11.215942     9A    -11.214815
      10A    -11.213235    11A    -11.208560    12A     -1.469008
      13A     -1.362454    14A     -1.098069    15A     -1.066604
      16A     -1.019163    17A     -0.977068    18A     -0.928396
      19A     -0.861411    20A     -0.800692    21A     -0.789827
      22A     -0.763832    23A     -0.700979    24A     -0.682248
      25A     -0.671879    26A     -0.647599    27A     -0.627422
      28A     -0.605660    29A     -0.597679    30A     -0.579992
      31A     -0.564786    32A     -0.552517    33A     -0.532033
      34A     -0.530228    35A     -0.518525    36A     -0.509628
      37A     -0.495760    38A     -0.476607    39A     -0.472162
      40A     -0.461590    41A     -0.455971    42A     -0.453998
      43A     -0.441157    44A     -0.435230

  @DF-RHF Final Energy:  -501.04009755518473

   => Energetics <=

    Nuclear Repulsion Energy =            610.1711982217489094
    One-Electron Energy =               -1891.4727442078178683
    Two-Electron Energy =                 780.2614484308840019
    DFT Exchange-Correlation Energy =       0.0000000000000000
    Empirical Dispersion Energy =           0.0000000000000000
    PCM Polarization Energy =               0.0000000000000000
    EFP Energy =                            0.0000000000000000
    Total Energy =                       -501.0400975551849569

  Mulliken Charges: (a.u.)
   Center  Symbol    Alpha    Beta     Spin     Total
       1     O     4.28596  4.28596  0.00000 -0.57193
       2     C     2.60486  2.60486  0.00000  0.79029
       3     C     3.20966  3.20966  0.00000 -0.41932
       4     O     4.30745  4.30745  0.00000 -0.61491
       5     C     3.15414  3.15414  0.00000 -0.30828
       6     H     0.39889  0.39889  0.00000  0.20222
       7     H     0.40127  0.40127  0.00000  0.19746
       8     C     3.15856  3.15856  0.00000 -0.31713
       9     H     0.41305  0.41305  0.00000  0.17390
      10     H     0.40888  0.40888  0.00000  0.18225
      11     C     3.15667  3.15667  0.00000 -0.31334
      12     H     0.41797  0.41797  0.00000  0.16405
      13     H     0.42348  0.42348  0.00000  0.15305
      14     C     3.15200  3.15200  0.00000 -0.30399
      15     H     0.42112  0.42112  0.00000  0.15777
      16     H     0.42160  0.42160  0.00000  0.15680
      17     C     3.15313  3.15313  0.00000 -0.30626
      18     H     0.42207  0.42207  0.00000  0.15586
      19     H     0.42218  0.42218  0.00000  0.15565
      20     C     3.23984  3.23984  0.00000 -0.47968
      21     H     0.42244  0.42244  0.00000  0.15512
      22     H     0.42289  0.42289  0.00000  0.15422
      23     H     0.41929  0.41929  0.00000  0.16142
      24     H     0.42156  0.42156  0.00000  0.15688
      25     H     0.42189  0.42189  0.00000  0.15622
      26     C     3.09239  3.09239  0.00000 -0.18478
      27     H     0.40909  0.40909  0.00000  0.18181
      28     H     0.40853  0.40853  0.00000  0.18293
      29     H     0.40914  0.40914  0.00000  0.18173

   Total alpha = 44.00000, Total beta = 44.00000, Total charge = -0.00000
