                              Psi4 1.0.54 Driver

  ==> Input File <==

--------------------------------------------------------------------------
set {
	reference rhf
	basis cc-pvtz
}

set_num_threads( 4 )
memory 2 gb

molecule MOL {
0 1

H	 -3.436473	 1.252944	 -1.023892
O	 -3.458596	 0.315260	 -0.960865
C	 -3.176635	 -0.080824	 0.355601
C	 -1.763371	 0.265266	 0.799691
H	 -3.321825	 -1.153438	 0.379502
H	 -3.895468	 0.357385	 1.043382
C	 -0.673390	 -0.426948	 -0.013392
H	 -1.631049	 1.344913	 0.747560
H	 -1.664587	 -0.001624	 1.849167
C	 0.737842	 -0.043159	 0.423759
H	 -0.806103	 -0.190518	 -1.063345
H	 -0.797221	 -1.503753	 0.074146
C	 1.032587	 1.444676	 0.243426
H	 0.873120	 -0.324592	 1.463656
H	 1.462231	 -0.621883	 -0.145622
C	 2.461474	 1.864796	 0.592179
H	 0.333466	 2.023684	 0.842449
H	 0.838040	 1.713645	 -0.791189
C	 2.824499	 1.728441	 2.068920
H	 2.596227	 2.900586	 0.295944
H	 3.161154	 1.286278	 -0.005472
H	 2.137538	 2.292200	 2.692087
H	 3.823510	 2.105762	 2.255591
H	 2.800050	 0.697042	 2.399409

	symmetry c1
}
set optking {
	frozen_dihedral = ("
		13 10 7 11
	")
}

ee,wfn = optimize('scf', return_wfn=True)
oeprop( wfn, 'DIPOLE', 'QUADRUPOLE', 'MULLIKEN_CHARGES')
f=open( 'psi4out.xyz', 'w' )
f.write( "24  " )
f.write( str(ee) + "\n" )
f.write( MOL.save_string_xyz() )
f.close()
--------------------------------------------------------------------------

    Molecular point group: c1
  Charge       = 0
  Multiplicity = 1
  Basis Set: CC-PVTZ
  Basis Set:
  @DF-RHF Final Energy:  -349.37762295636867
    Total Energy =                       -349.3776229563686115
    Molecular point group: c1
  Basis Set: CC-PVTZ
  Basis Set:
  Basis Set: CC-PVTZ
  Basis Set:
  @DF-RHF Final Energy:  -349.28337997436006
    Total Energy =                       -349.2833799743600594
  Basis Set: CC-PVTZ
  Basis Set:
  Basis Set: CC-PVTZ
  Basis Set:
  @DF-RHF Final Energy:  -349.36379158003990
    Total Energy =                       -349.3637915800394467
  Basis Set: CC-PVTZ
  Basis Set:
  Basis Set: CC-PVTZ
  Basis Set:
  @DF-RHF Final Energy:  -349.37821624654345
    Total Energy =                       -349.3782162465435590
  Basis Set: CC-PVTZ
  Basis Set:
  @DF-RHF Final Energy:  -349.37852320981818
    Total Energy =                       -349.3785232098185247
  Basis Set: CC-PVTZ
  Basis Set:
  @DF-RHF Final Energy:  -349.37855448331231
    Total Energy =                       -349.3785544833119729
  Basis Set: CC-PVTZ
  Basis Set:
  Basis Set: CC-PVTZ
  Basis Set:
  @DF-RHF Final Energy:  -349.37856280321847
    Total Energy =                       -349.3785628032183581
  Basis Set: CC-PVTZ
  Basis Set:
  Basis Set: CC-PVTZ
  Basis Set:
  @DF-RHF Final Energy:  -349.37857253040431
    Total Energy =                       -349.3785725304044263
  Basis Set: CC-PVTZ
  Basis Set:
  Charge       = 0
  Multiplicity = 1
  Basis Set: CC-PVTZ
  Basis Set:

    Orbital Energies (a.u.)
    -----------------------

    Doubly Occupied:

       1A    -20.546088     2A    -11.265348     3A    -11.214678
       4A    -11.213013     5A    -11.210959     6A    -11.210355
       7A    -11.209525     8A    -11.205996     9A     -1.363933
      10A     -1.090363    11A     -1.048420    12A     -0.985700
      13A     -0.917400    14A     -0.854361    15A     -0.808767
      16A     -0.768217    17A     -0.681035    18A     -0.649799
      19A     -0.630400    20A     -0.618498    21A     -0.600714
      22A     -0.578015    23A     -0.573899    24A     -0.534373
      25A     -0.525922    26A     -0.511599    27A     -0.493298
      28A     -0.483694    29A     -0.471226    30A     -0.458601
      31A     -0.451325    32A     -0.442854    33A     -0.424757

  @DF-RHF Final Energy:  -349.37857286798129

   => Energetics <=

    Nuclear Repulsion Energy =            389.6864641547172710
    One-Electron Energy =               -1246.0438105384246228
    Two-Electron Energy =                 506.9787735157259476
    DFT Exchange-Correlation Energy =       0.0000000000000000
    Empirical Dispersion Energy =           0.0000000000000000
    PCM Polarization Energy =               0.0000000000000000
    EFP Energy =                            0.0000000000000000
    Total Energy =                       -349.3785728679814611
    Molecular point group: c1
  Basis Set: CC-PVTZ
  Basis Set:

  -Total Gradient:
     Atom            X                  Y                   Z
    ------   -----------------  -----------------  -----------------
       1       -0.000004335815    -0.000012024104    -0.000003122722
       2       -0.000024319600     0.000030614659    -0.000007856781
       3        0.000030023500    -0.000038307343    -0.000009828594
       4        0.000016998650     0.000051043795    -0.000006744062
       5       -0.000002003174     0.000012871032    -0.000003608341
       6       -0.000001189127    -0.000005431291    -0.000002091537
       7       -0.000083806060     0.000877892983     0.000536042575
       8        0.000005292521     0.000004161428     0.000008913094
       9        0.000014409330    -0.000012800978    -0.000001385504
      10        0.000280867571    -0.000281033506    -0.000752685007
      11        0.000008816499    -0.000687214994    -0.000228654544
      12        0.000019074449    -0.000009621127     0.000000925488
      13       -0.000208380562     0.000112808032     0.000489234900
      14        0.000004534366    -0.000010395952    -0.000002646072
      15       -0.000008915720    -0.000005005244    -0.000000584057
      16       -0.000023445668    -0.000021720703    -0.000012145308
      17       -0.000018436596     0.000008840048    -0.000018791734
      18       -0.000013555973     0.000001782776     0.000010624261
      19        0.000029179255    -0.000011808271     0.000002179324
      20       -0.000031320023    -0.000032837067     0.000016527717
      21        0.000021843187    -0.000001181131     0.000009395080
      22       -0.000002713176     0.000003513363    -0.000005123825
      23       -0.000011014805    -0.000000800321    -0.000000232694
      24        0.000002396960     0.000026653915    -0.000018341657

  **** Optimization is complete! (in 9 steps) ****
    Final optimized geometry and variables:
    Molecular point group: c1

    Geometry (in Angstrom), charge = 0, multiplicity = 1:

    H           -2.679517274247     1.756753562607    -1.688605240483
    O           -2.975727859310     0.864933672850    -1.712750891336
    C           -2.970293281276     0.325471336646    -0.417295140716
    C           -1.577100424264     0.218487963887     0.185250580734
    H           -3.414978533564    -0.657685049793    -0.504809061024
    H           -3.609594471048     0.911783176793     0.238029848970
    C           -0.648399293964    -0.712470783639    -0.591311888381
    H           -1.149642070695     1.215657139768     0.250525336713
    H           -1.679249043157    -0.137185614666     1.208220826138
    C            0.731159495822    -0.916643324040     0.038127220249
    H           -0.535319258965    -0.347396633646    -1.606277885931
    H           -1.131282390746    -1.682567899636    -0.675718595892
    C            1.589992234936     0.346233977441     0.118040256507
    H            0.607141721927    -1.341817279962     1.029815186877
    H            1.263921859246    -1.661888727070    -0.546590116138
    C            3.037128632243     0.100837984998     0.550022314386
    H            1.138677302741     1.061134494735     0.799732122387
    H            1.599468208682     0.821637905361    -0.859617914228
    C            3.197017300478    -0.410155708775     1.979855658581
    H            3.587661632871     1.031294460498     0.450060959595
    H            3.502132954786    -0.601124551610    -0.137040966521
    H            2.733550511013     0.267701565621     2.689787512535
    H            4.245234277902    -0.495547329709     2.242644823677
    H            2.747708636984    -1.386677398355     2.113723891328

  Mulliken Charges: (a.u.)
   Center  Symbol    Alpha    Beta     Spin     Total
       1     H     0.39515  0.39515  0.00000  0.20971
       2     O     4.20387  4.20387  0.00000 -0.40775
       3     C     2.97676  2.97676  0.00000  0.04648
       4     C     3.10294  3.10294  0.00000 -0.20588
       5     H     0.45826  0.45826  0.00000  0.08348
       6     H     0.46058  0.46058  0.00000  0.07885
       7     C     3.09348  3.09348  0.00000 -0.18696
       8     H     0.45816  0.45816  0.00000  0.08367
       9     H     0.45319  0.45319  0.00000  0.09362
      10     C     3.10101  3.10101  0.00000 -0.20202
      11     H     0.44623  0.44623  0.00000  0.10754
      12     H     0.44985  0.44985  0.00000  0.10031
      13     C     3.09699  3.09699  0.00000 -0.19399
      14     H     0.45293  0.45293  0.00000  0.09413
      15     H     0.44791  0.44791  0.00000  0.10419
      16     C     3.08893  3.08893  0.00000 -0.17785
      17     H     0.45335  0.45335  0.00000  0.09330
      18     H     0.44940  0.44940  0.00000  0.10121
      19     C     3.15292  3.15292  0.00000 -0.30583
      20     H     0.44896  0.44896  0.00000  0.10207
      21     H     0.45423  0.45423  0.00000  0.09155
      22     H     0.45554  0.45554  0.00000  0.08893
      23     H     0.44628  0.44628  0.00000  0.10744
      24     H     0.45309  0.45309  0.00000  0.09382

   Total alpha = 33.00000, Total beta = 33.00000, Total charge = -0.00000

*** Psi4 exiting successfully. Buy a developer a beer!
