  ==> Input File <==

--------------------------------------------------------------------------
set {
	reference rhf
	basis 6-31G*
}

set_num_threads( 4 )
memory 2 gb

molecule MOL {
0 1

H	 -2.144168	 -1.488506	 -2.154695
N	 -1.240905	 -1.543992	 -1.725728
C	 -1.308554	 -1.147662	 -0.330217
H	 -0.635824	 -0.918718	 -2.221732
C	 0.071870	 -1.201413	 0.290004
H	 -1.715468	 -0.147144	 -0.177293
H	 -1.951799	 -1.845021	 0.197710
O	 0.874168	 -0.245412	 -0.342030
H	 0.013147	 -0.993716	 1.358204
H	 0.493846	 -2.195210	 0.157569
C	 2.202317	 -0.244239	 0.074611
H	 2.711377	 -1.041390	 -0.449894
H	 2.692099	 0.699270	 -0.159667
H	 2.283185	 -0.418429	 1.145558

	symmetry c1
}
set optking {
	frozen_dihedral = ("
		5 8 11 13
	")
}

ee = optimize('scf')
oeprop('DIPOLE', 'QUADRUPOLE', 'MULLIKEN_CHARGES')
f=open( 'psi4out.xyz', 'w' )
f.write( "14  " )
f.write( str(ee) + "\n" )
f.write( MOL.save_string_xyz() )
f.close()
--------------------------------------------------------------------------

    Molecular point group: c1
  Charge       = 0
  Multiplicity = 1
  Basis Set: 6-31G*
  Basis Set:
  @DF-RHF Final Energy:  -248.12322699650232
    Total Energy =                       -248.1232269965024670
    Molecular point group: c1
  Basis Set: 6-31G*
  Basis Set:
  Basis Set: 6-31G*
  Basis Set:
  @DF-RHF Final Energy:  -248.12409329286186
    Total Energy =                       -248.1240932928618577
  Basis Set: 6-31G*
  Basis Set:
  Basis Set: 6-31G*
  Basis Set:
  @DF-RHF Final Energy:  -248.12431993447973
    Total Energy =                       -248.1243199344795016
  Basis Set: 6-31G*
  Basis Set:
  Charge       = 0
  Multiplicity = 1
  Basis Set: 6-31G*
  Basis Set:

    Orbital Energies (a.u.)
    -----------------------

    Doubly Occupied:

       1A    -20.556497     2A    -15.528356     3A    -11.266066
       4A    -11.265712     5A    -11.240642     6A     -1.380262
       7A     -1.173464     8A     -0.998954     9A     -0.907254
      10A     -0.815107    11A     -0.683705    12A     -0.673399
      13A     -0.644475    14A     -0.609527    15A     -0.605351
      16A     -0.540545    17A     -0.531931    18A     -0.496020
      19A     -0.472482    20A     -0.416405    21A     -0.380015

  @DF-RHF Final Energy:  -248.12432064628382

   => Energetics <=

    Nuclear Repulsion Energy =            194.6202694093071841
    One-Electron Energy =                -723.1168442585626508
    Two-Electron Energy =                 280.3722542029715896
    DFT Exchange-Correlation Energy =       0.0000000000000000
    Empirical Dispersion Energy =           0.0000000000000000
    PCM Polarization Energy =               0.0000000000000000
    EFP Energy =                            0.0000000000000000
    Total Energy =                       -248.1243206462838771
    Molecular point group: c1
  Basis Set: 6-31G*
  Basis Set:

  -Total Gradient:
     Atom            X                  Y                   Z
    ------   -----------------  -----------------  -----------------
       1        0.000006897276     0.000004798111    -0.000023493249
       2       -0.000016206855    -0.000005476218    -0.000022459338
       3        0.000077192944     0.000023175479    -0.000035122446
       4       -0.000001488422     0.000014649655    -0.000018669797
       5       -0.000427964613     0.001398389554     0.001680982735
       6        0.000005968096     0.000001354232     0.000007212059
       7        0.000047166554     0.000001083016     0.000023150402
       8        0.000500482161    -0.001726305686    -0.001699621410
       9       -0.000007871385    -0.000021205595     0.000028456476
      10        0.000003718588     0.000033194691    -0.000037779155
      11        0.000668487090    -0.000643254149    -0.002150635535
      12       -0.000034286129    -0.000006052656    -0.000023842708
      13       -0.000783403370     0.000933018011     0.002261392529
      14       -0.000038691938    -0.000007368445     0.000010429436

  **** Optimization is complete! (in 4 steps) ****
    Final optimized geometry and variables:
    Molecular point group: c1

    Geometry (in Angstrom), charge = 0, multiplicity = 1:

    H           -2.281430978877    -0.603548438861    -1.735062001985
    N           -1.378119258208    -0.665043497209    -1.307084513939
    C           -1.442472054398    -0.275051814825     0.090470298473
    H           -0.770862327227    -0.039981168344    -1.800704863004
    C           -0.062575659700    -0.340306231210     0.710410088060
    H           -1.842636598573     0.727438662785     0.248298441552
    H           -2.089853055293    -0.970667537494     0.615567182250
    O            0.743590038060     0.615197653554     0.082020113650
    H           -0.118494853363    -0.135576989043     1.778951566541
    H            0.351292794898    -1.336971915756     0.573691236192
    C            2.075902650310     0.612013463118     0.490218769791
    H            2.638538221400    -0.182134798006     0.005648583750
    H            2.503815862533     1.571580123233     0.232205636058
    H            2.159317176858     0.486399531349     1.567879093456

  Mulliken Charges: (a.u.)
   Center  Symbol    Alpha    Beta     Spin     Total
       1     H     0.33285  0.33285  0.00000  0.33430
       2     N     3.92526  3.92526  0.00000 -0.85052
       3     C     3.06893  3.06893  0.00000 -0.13787
       4     H     0.32371  0.32371  0.00000  0.35258
       5     C     2.99020  2.99020  0.00000  0.01960
       6     H     0.42666  0.42666  0.00000  0.14669
       7     H     0.42053  0.42053  0.00000  0.15894
       8     O     4.31075  4.31075  0.00000 -0.62151
       9     H     0.43051  0.43051  0.00000  0.13899
      10     H     0.42283  0.42283  0.00000  0.15434
      11     C     3.07804  3.07804  0.00000 -0.15607
      12     H     0.42517  0.42517  0.00000  0.14965
      13     H     0.41372  0.41372  0.00000  0.17257
      14     H     0.43084  0.43084  0.00000  0.13832

   Total alpha = 21.00000, Total beta = 21.00000, Total charge = -0.00000
