                              Psi4 1.0.54 Driver

  ==> Input File <==

--------------------------------------------------------------------------
set {
	reference rhf
	basis cc-pvtz
}

set_num_threads( 4 )
memory 2 gb

molecule MOL {
0 1

H	 2.821346	 -2.832960	 -3.190691
C	 2.800785	 -1.750455	 -3.139429
C	 1.536427	 -1.255358	 -2.445454
H	 3.688284	 -1.427672	 -2.606164
H	 2.867477	 -1.369916	 -4.153599
C	 1.467661	 0.268019	 -2.364438
H	 1.490089	 -1.672929	 -1.446241
H	 0.664927	 -1.625146	 -2.980775
C	 0.209466	 0.792910	 -1.680098
H	 2.337271	 0.642534	 -1.838751
H	 1.504981	 0.678010	 -3.369574
C	 0.166485	 0.574257	 -0.177158
H	 0.128039	 1.866328	 -1.831455
H	 -0.683318	 0.364694	 -2.126288
C	 -1.180025	 0.697761	 0.509157
O	 1.149630	 0.335794	 0.447211
C	 -2.285431	 -0.137488	 -0.145671
H	 -1.447360	 1.745713	 0.496200
H	 -1.065514	 0.394096	 1.546399
C	 -3.646545	 0.082747	 0.508954
H	 -2.348635	 0.118247	 -1.199806
H	 -2.034895	 -1.192387	 -0.096473
C	 -4.757412	 -0.737227	 -0.138149
H	 -3.900211	 1.137405	 0.459735
H	 -3.580878	 -0.166775	 1.564416
H	 -4.867876	 -0.486707	 -1.187777
H	 -4.549650	 -1.800049	 -0.072540
H	 -5.709585	 -0.556397	 0.346597

	symmetry c1
}
set optking {
	frozen_dihedral = ("
		16 12 15 17
	")
}

ee,wfn = optimize('scf', return_wfn=True)
oeprop( wfn, 'DIPOLE', 'QUADRUPOLE', 'MULLIKEN_CHARGES')
f=open( 'psi4out.xyz', 'w' )
f.write( "28  " )
f.write( str(ee) + "\n" )
f.write( MOL.save_string_xyz() )
f.close()
--------------------------------------------------------------------------

    Molecular point group: c1
  Charge       = 0
  Multiplicity = 1
  Basis Set: CC-PVTZ
  Basis Set:
  @DF-RHF Final Energy:  -426.31669154135454
    Total Energy =                       -426.3166915413551123
    Molecular point group: c1
  Basis Set: CC-PVTZ
  Basis Set:
  Basis Set: CC-PVTZ
  Basis Set:
  @DF-RHF Final Energy:  -426.31687239178689
    Total Energy =                       -426.3168723917865464
  Basis Set: CC-PVTZ
  Basis Set:
  Basis Set: CC-PVTZ
  Basis Set:
  @DF-RHF Final Energy:  -426.31827623085439
    Total Energy =                       -426.3182762308545080
  Basis Set: CC-PVTZ
  Basis Set:
  Basis Set: CC-PVTZ
  Basis Set:
  @DF-RHF Final Energy:  -426.31812346263484
    Total Energy =                       -426.3181234626349578
  Basis Set: CC-PVTZ
  Basis Set:
  @DF-RHF Final Energy:  -426.31889359739660
    Total Energy =                       -426.3188935973969365
  @DF-RHF Final Energy:  -426.31903327138104
    Total Energy =                       -426.3190332713812722
  Basis Set: CC-PVTZ
  Basis Set:
  @DF-RHF Final Energy:  -426.31911975816490
    Total Energy =                       -426.3191197581649021
  Basis Set: CC-PVTZ
  Basis Set:
  Basis Set: CC-PVTZ
  Basis Set:
  @DF-RHF Final Energy:  -426.31914575985775
    Total Energy =                       -426.3191457598579746
  Basis Set: CC-PVTZ
  Basis Set:
  Basis Set: CC-PVTZ
  Basis Set:
  @DF-RHF Final Energy:  -426.31915303871040
    Total Energy =                       -426.3191530387108514
  Basis Set: CC-PVTZ
  Basis Set:
  Charge       = 0
  Multiplicity = 1
  Basis Set: CC-PVTZ
  Basis Set:

    Orbital Energies (a.u.)
    -----------------------

    Doubly Occupied:

       1A    -20.536852     2A    -11.317148     3A    -11.229394
       4A    -11.228590     5A    -11.227321     6A    -11.223874
       7A    -11.214444     8A    -11.214255     9A    -11.208442
      10A    -11.202601    11A     -1.396965    12A     -1.096344
      13A     -1.077961    14A     -1.023525    15A     -0.991210
      16A     -0.908330    17A     -0.873902    18A     -0.809596
      19A     -0.799932    20A     -0.724078    21A     -0.671441
      22A     -0.654491    23A     -0.630311    24A     -0.621392
      25A     -0.609329    26A     -0.589314    27A     -0.578504
      28A     -0.572032    29A     -0.547771    30A     -0.526903
      31A     -0.523991    32A     -0.508441    33A     -0.501241
      34A     -0.485736    35A     -0.477841    36A     -0.476215
      37A     -0.471013    38A     -0.465315    39A     -0.457493
      40A     -0.394439

  @DF-RHF Final Energy:  -426.31915341613478

   => Energetics <=

    Nuclear Repulsion Energy =            533.2798287341662444
    One-Electron Energy =               -1635.0620093226511926
    Two-Electron Energy =                 675.4630271723497117
    DFT Exchange-Correlation Energy =       0.0000000000000000
    Empirical Dispersion Energy =           0.0000000000000000
    PCM Polarization Energy =               0.0000000000000000
    EFP Energy =                            0.0000000000000000
    Total Energy =                       -426.3191534161353502
    Molecular point group: c1
  Basis Set: CC-PVTZ
  Basis Set:

  -Total Gradient:
     Atom            X                  Y                   Z
    ------   -----------------  -----------------  -----------------
       1       -0.000011083380     0.000008057112     0.000004605954
       2       -0.000006819076     0.000018423762    -0.000015787377
       3       -0.000011294643    -0.000006902636     0.000051569473
       4       -0.000013841773    -0.000001339420    -0.000001916306
       5        0.000006771169    -0.000004888067     0.000004926254
       6       -0.000029515012     0.000000522999    -0.000015837803
       7       -0.000004322007     0.000016392093    -0.000014719251
       8        0.000015465314     0.000010692212    -0.000001682222
       9        0.000031147198    -0.000074887352     0.000038849693
      10       -0.000022515918    -0.000014040925    -0.000001474548
      11        0.000020202271    -0.000001075301     0.000000193075
      12       -0.000181405723    -0.000614246542    -0.000219392894
      13        0.000008192787    -0.000024543581    -0.000005216579
      14        0.000056423917     0.000018971706    -0.000018828663
      15        0.000142724536    -0.000330137177     0.000433064511
      16        0.000103227930     0.000609360612     0.000010369279
      17       -0.000128315736     0.000428000807    -0.000333415504
      18        0.000002421892    -0.000070269058    -0.000017342157
      19       -0.000026635423    -0.000006706347    -0.000004695862
      20        0.000049100577    -0.000014385916     0.000039721770
      21       -0.000021672234    -0.000041620573     0.000154633963
      22       -0.000013109889     0.000158242817     0.000021670778
      23       -0.000045057269    -0.000033361277    -0.000041013542
      24        0.000030296196    -0.000137567872    -0.000032945340
      25       -0.000008788301     0.000053606296    -0.000107677417
      26        0.000023050436    -0.000051523795     0.000121653948
      27       -0.000020788876     0.000133099672     0.000013314208
      28        0.000056141044    -0.000027874250    -0.000062627440

  **** Optimization is complete! (in 10 steps) ****
    Final optimized geometry and variables:
    Molecular point group: c1

    Geometry (in Angstrom), charge = 0, multiplicity = 1:

    H            3.884372953875    -2.300251100545    -2.464756012894
    C            3.669805518548    -1.245127111851    -2.340049301553
    C            2.302974971746    -1.033355265866    -1.698152728894
    H            4.456748236464    -0.818128573729    -1.727916412341
    H            3.722250608660    -0.779017494640    -3.318836337825
    C            1.959666737687     0.444410018609    -1.522368536719
    H            2.277438874636    -1.526656171991    -0.734626713754
    H            1.540836830148    -1.504920799809    -2.314356810683
    C            0.597106107277     0.693850414136    -0.882635755971
    H            2.726220735798     0.925619050122    -0.926720702090
    H            1.969832427551     0.925402289560    -2.496312270123
    C            0.536187379326     0.449379356012     0.614152244136
    H            0.285351727610     1.723799645875    -1.040624546765
    H           -0.163561132799     0.085898767817    -1.361990774583
    C           -0.774771661641     0.738854816767     1.324469297724
    O            1.487813203802     0.093916311718     1.231617868403
    C           -2.015107936809     0.067175267061     0.730550608654
    H           -0.913248618137     1.817831484935     1.315760529752
    H           -0.639686768445     0.440513043490     2.355216210643
    C           -3.259098998225     0.290320763836     1.586292173899
    H           -2.203230901579     0.442760536306    -0.269394161290
    H           -1.836747410658    -1.000388182585     0.632506698090
    C           -4.505908681014    -0.369459187885     1.007592809280
    H           -3.432041810371     1.357378813719     1.694408398943
    H           -3.078817243532    -0.092155258433     2.586227417412
    H           -4.733241684154     0.019082788118     0.020687293240
    H           -4.374783008089    -1.442340052396     0.917636188575
    H           -5.369356028949    -0.194178916619     1.638256890980

  Mulliken Charges: (a.u.)
   Center  Symbol    Alpha    Beta     Spin     Total
       1     H     0.44877  0.44877  0.00000  0.10246
       2     C     3.15188  3.15188  0.00000 -0.30376
       3     C     3.08400  3.08400  0.00000 -0.16801
       4     H     0.45212  0.45212  0.00000  0.09576
       5     H     0.45744  0.45744  0.00000  0.08511
       6     C     3.08540  3.08540  0.00000 -0.17081
       7     H     0.44343  0.44343  0.00000  0.11314
       8     H     0.45937  0.45937  0.00000  0.08126
       9     C     3.13087  3.13087  0.00000 -0.26174
      10     H     0.44675  0.44675  0.00000  0.10650
      11     H     0.44810  0.44810  0.00000  0.10380
      12     C     2.87007  2.87007  0.00000  0.25987
      13     H     0.43504  0.43504  0.00000  0.12991
      14     H     0.44075  0.44075  0.00000  0.11850
      15     C     3.08818  3.08818  0.00000 -0.17637
      16     O     4.17704  4.17704  0.00000 -0.35409
      17     C     3.10281  3.10281  0.00000 -0.20563
      18     H     0.44853  0.44853  0.00000  0.10293
      19     H     0.43732  0.43732  0.00000  0.12535
      20     C     3.08717  3.08717  0.00000 -0.17434
      21     H     0.45027  0.45027  0.00000  0.09946
      22     H     0.44678  0.44678  0.00000  0.10643
      23     C     3.14925  3.14925  0.00000 -0.29849
      24     H     0.45340  0.45340  0.00000  0.09320
      25     H     0.44972  0.44972  0.00000  0.10057
      26     H     0.45518  0.45518  0.00000  0.08965
      27     H     0.45369  0.45369  0.00000  0.09262
      28     H     0.44664  0.44664  0.00000  0.10672

   Total alpha = 40.00000, Total beta = 40.00000, Total charge = -0.00000

*** Psi4 exiting successfully. Buy a developer a beer!
