                              Psi4 1.0.54 Driver

  ==> Input File <==

--------------------------------------------------------------------------
set {
	reference rhf
	basis cc-pvtz
}

set_num_threads( 4 )
memory 2 gb

molecule MOL {
0 1

H	 2.828711	 -0.346904	 0.001083
C	 1.876752	 0.015931	 -0.363450
C	 0.776285	 -0.474665	 0.563092
H	 1.728113	 -0.357244	 -1.367440
H	 1.906171	 1.096574	 -0.386153
N	 -0.540022	 0.017605	 0.071630
H	 0.707111	 -1.548969	 0.573035
H	 0.886169	 -0.084184	 1.560432
O	 -0.791834	 -0.158161	 -1.072875
O	 -1.234655	 0.577216	 0.851834

	symmetry c1
}
set optking {
	frozen_dihedral = ("
		9 6 3 2
	")
}

ee,wfn = optimize('scf', return_wfn=True)
oeprop( wfn, 'DIPOLE', 'QUADRUPOLE', 'MULLIKEN_CHARGES')
f=open( 'psi4out.xyz', 'w' )
f.write( "10  " )
f.write( str(ee) + "\n" )
f.write( MOL.save_string_xyz() )
f.close()
--------------------------------------------------------------------------

    Molecular point group: c1
  Charge       = 0
  Multiplicity = 1
  Basis Set: CC-PVTZ
  Basis Set:
  @DF-RHF Final Energy:  -282.81266482606145
    Total Energy =                       -282.8126648260614502
    Molecular point group: c1
  Basis Set: CC-PVTZ
  Basis Set:
  Basis Set: CC-PVTZ
  Basis Set:
  @DF-RHF Final Energy:  -282.80819612228930
    Total Energy =                       -282.8081961222894734
  Basis Set: CC-PVTZ
  Basis Set:
  Basis Set: CC-PVTZ
  Basis Set:
  @DF-RHF Final Energy:  -282.81226911489784
    Total Energy =                       -282.8122691148978447
  Basis Set: CC-PVTZ
  Basis Set:
  Basis Set: CC-PVTZ
  Basis Set:
  @DF-RHF Final Energy:  -282.81309704031338
    Total Energy =                       -282.8130970403133801
  Basis Set: CC-PVTZ
  Basis Set:
  Basis Set: CC-PVTZ
  Basis Set:
  @DF-RHF Final Energy:  -282.81301456361268
    Total Energy =                       -282.8130145636126258
  Basis Set: CC-PVTZ
  Basis Set:
  Basis Set: CC-PVTZ
  Basis Set:
  @DF-RHF Final Energy:  -282.81313206258744
    Total Energy =                       -282.8131320625874991
  Basis Set: CC-PVTZ
  Basis Set:
  Charge       = 0
  Multiplicity = 1
  Basis Set: CC-PVTZ
  Basis Set:

    Orbital Energies (a.u.)
    -----------------------

    Doubly Occupied:

       1A    -20.593691     2A    -20.590841     3A    -15.839003
       4A    -11.302442     5A    -11.247125     6A     -1.638248
       7A     -1.422535     8A     -1.125043     9A     -0.966965
      10A     -0.837624    11A     -0.764693    12A     -0.743935
      13A     -0.731261    14A     -0.652134    15A     -0.591330
      16A     -0.563075    17A     -0.542248    18A     -0.489621
      19A     -0.479422    20A     -0.455804

  @DF-RHF Final Energy:  -282.81313233843809

   => Energetics <=

    Nuclear Repulsion Energy =            186.6175917244170250
    One-Electron Energy =                -755.7073680310750206
    Two-Electron Energy =                 286.2766439682199007
    DFT Exchange-Correlation Energy =       0.0000000000000000
    Empirical Dispersion Energy =           0.0000000000000000
    PCM Polarization Energy =               0.0000000000000000
    EFP Energy =                            0.0000000000000000
    Total Energy =                       -282.8131323384380948
    Molecular point group: c1
  Basis Set: CC-PVTZ
  Basis Set:

  -Total Gradient:
     Atom            X                  Y                   Z
    ------   -----------------  -----------------  -----------------
       1        0.000000365534    -0.000000370707    -0.000000700324
       2        0.000003544846    -0.000163175869    -0.000153468107
       3        0.000040953386     0.000317292891     0.000171801205
       4        0.000007400885     0.000002160947    -0.000007504978
       5       -0.000005073154    -0.000009759893     0.000003913116
       6       -0.000176294187    -0.000417795368    -0.000082469016
       7       -0.000004721247     0.000010836745    -0.000012784677
       8       -0.000032106133     0.000007555160     0.000004123256
       9        0.000156778484     0.000245013834     0.000019389134
      10        0.000009151583     0.000008242261     0.000057700388

  **** Optimization is complete! (in 7 steps) ****
    Final optimized geometry and variables:
    Molecular point group: c1

    Geometry (in Angstrom), charge = 0, multiplicity = 1:

    H            2.855179066503    -0.271214097843     0.016069886086
    C            1.904528935390     0.071430953172    -0.372175601045
    C            0.801633381967    -0.437979246911     0.534443224075
    H            1.783656747622    -0.299447926257    -1.378110408082
    H            1.918022351599     1.153497390178    -0.396336311952
    N           -0.542978031078     0.010219359629     0.067915095774
    H            0.749567415318    -1.517121611445     0.528770333913
    H            0.890159459520    -0.083632679841     1.546033370153
    O           -0.808452882269    -0.166680544592    -1.073548484511
    O           -1.262912337585     0.496870569032     0.872413649748

  Mulliken Charges: (a.u.)
   Center  Symbol    Alpha    Beta     Spin     Total
       1     H     0.44891  0.44891  0.00000  0.10218
       2     C     3.14123  3.14123  0.00000 -0.28246
       3     C     3.03918  3.03918  0.00000 -0.07837
       4     H     0.43637  0.43637  0.00000  0.12726
       5     H     0.44528  0.44528  0.00000  0.10944
       6     N     3.27793  3.27793  0.00000  0.44415
       7     H     0.43748  0.43748  0.00000  0.12505
       8     H     0.43166  0.43166  0.00000  0.13668
       9     O     4.17344  4.17344  0.00000 -0.34688
      10     O     4.16853  4.16853  0.00000 -0.33706

   Total alpha = 20.00000, Total beta = 20.00000, Total charge = -0.00000

*** Psi4 exiting successfully. Buy a developer a beer!
