  ==> Input File <==

--------------------------------------------------------------------------
set {
	reference rhf
	basis 6-31G*
}

set_num_threads( 4 )
memory 2 gb

molecule MOL {
0 1

H	 2.591676	 2.013956	 0.335017
O	 3.341076	 1.666752	 -0.126416
C	 3.569581	 0.339145	 0.272707
C	 4.082375	 0.221459	 1.703763
H	 2.614918	 -0.163283	 0.184059
H	 4.258187	 -0.152012	 -0.413855
C	 5.454900	 0.860936	 1.927618
H	 3.354299	 0.677512	 2.369561
H	 4.129466	 -0.835363	 1.961206
C	 5.965669	 0.678743	 3.359658
H	 5.397328	 1.920625	 1.695004
H	 6.174472	 0.426079	 1.233747
C	 7.374531	 1.226510	 3.615390
H	 5.266888	 1.146076	 4.051144
H	 5.961036	 -0.383189	 3.596259
C	 7.502235	 2.748986	 3.514222
H	 7.685531	 0.917997	 4.611340
H	 8.073036	 0.759097	 2.922964
C	 8.898904	 3.255674	 3.880308
H	 6.768617	 3.215176	 4.170410
H	 7.262314	 3.078544	 2.506188
C	 9.030921	 4.774531	 3.773960
H	 9.141075	 2.942826	 4.893702
H	 9.634278	 2.783550	 3.232073
H	 8.330233	 5.276233	 4.435440
H	 10.030666	 5.102562	 4.041430
H	 8.830803	 5.116003	 2.762172

	symmetry c1
}
set optking {
	frozen_dihedral = ("
		4 3 2 1
	")
}

ee = optimize('scf')
oeprop('DIPOLE', 'QUADRUPOLE', 'MULLIKEN_CHARGES')
f=open( 'psi4out.xyz', 'w' )
f.write( "27  " )
f.write( str(ee) + "\n" )
f.write( MOL.save_string_xyz() )
f.close()
--------------------------------------------------------------------------

    Molecular point group: c1
  Charge       = 0
  Multiplicity = 1
  Basis Set: 6-31G*
  Basis Set:
  @DF-RHF Final Energy:  -388.28030185450274
    Total Energy =                       -388.2803018545025679
    Molecular point group: c1
  Basis Set: 6-31G*
  Basis Set:
  Basis Set: 6-31G*
  Basis Set:
  @DF-RHF Final Energy:  -388.28182450177002
    Total Energy =                       -388.2818245017701884
  Basis Set: 6-31G*
  Basis Set:
  Basis Set: 6-31G*
  Basis Set:
  @DF-RHF Final Energy:  -388.28228096559320
    Total Energy =                       -388.2822809655935998
  Basis Set: 6-31G*
  Basis Set:
  Charge       = 0
  Multiplicity = 1
  Basis Set: 6-31G*
  Basis Set:

    Orbital Energies (a.u.)
    -----------------------

    Doubly Occupied:

       1A    -20.553761     2A    -11.267770     3A    -11.216534
       4A    -11.212364     5A    -11.212238     6A    -11.211140
       7A    -11.209777     8A    -11.209488     9A    -11.205965
      10A     -1.360289    11A     -1.090460    12A     -1.058042
      13A     -1.008935    14A     -0.944274    15A     -0.882900
      16A     -0.819679    17A     -0.800196    18A     -0.774321
      19A     -0.682207    20A     -0.650049    21A     -0.639956
      22A     -0.609661    23A     -0.603938    24A     -0.584380
      25A     -0.569353    26A     -0.556205    27A     -0.535601
      28A     -0.518942    29A     -0.511668    30A     -0.488796
      31A     -0.477210    32A     -0.470538    33A     -0.465234
      34A     -0.456834    35A     -0.452267    36A     -0.439545
      37A     -0.419722

  @DF-RHF Final Energy:  -388.28228111955093

   => Energetics <=

    Nuclear Repulsion Energy =            459.7860408350646821
    One-Electron Energy =               -1437.7961617515534272
    Two-Electron Energy =                 589.7278397969380421
    DFT Exchange-Correlation Energy =       0.0000000000000000
    Empirical Dispersion Energy =           0.0000000000000000
    PCM Polarization Energy =               0.0000000000000000
    EFP Energy =                            0.0000000000000000
    Total Energy =                       -388.2822811195507029
    Molecular point group: c1
  Basis Set: 6-31G*
  Basis Set:

  -Total Gradient:
     Atom            X                  Y                   Z
    ------   -----------------  -----------------  -----------------
       1       -0.000388985166    -0.000135068182    -0.000350227172
       2        0.000818818407    -0.000025782156     0.000420139025
       3       -0.000613051101    -0.000146979362     0.000216932798
       4        0.000523940516    -0.000066413481    -0.000240600483
       5       -0.000098102944    -0.000007691656    -0.000030309150
       6       -0.000029115774     0.000160002610    -0.000001451798
       7       -0.000105095232     0.000200390715     0.000101127627
       8       -0.000014080867     0.000013520392    -0.000053251194
       9       -0.000083621140    -0.000032741783     0.000004832951
      10        0.000019537964    -0.000008826894    -0.000069016289
      11       -0.000126677671    -0.000025086576     0.000014401266
      12        0.000013251955     0.000037642406     0.000037745193
      13        0.000056963317    -0.000060674815    -0.000069849858
      14        0.000012510042     0.000079291288    -0.000048402234
      15       -0.000091103210    -0.000011391853     0.000005623160
      16        0.000003885934     0.000014972167    -0.000013642991
      17        0.000019362946    -0.000017898568    -0.000005468300
      18        0.000029590698     0.000016366412    -0.000010965516
      19        0.000002331445    -0.000012717666     0.000014631819
      20       -0.000004941715     0.000013160241     0.000001068919
      21        0.000055498322     0.000017699681     0.000075085650
      22       -0.000005404575    -0.000002040381    -0.000002843879
      23        0.000005063894    -0.000000584669     0.000000560575
      24       -0.000000328074     0.000000798041    -0.000001381694
      25       -0.000000129579     0.000002420111     0.000000840002
      26        0.000001614378    -0.000000977184     0.000001725542
      27       -0.000001732770    -0.000001388837     0.000002696033

  **** Optimization is complete! (in 4 steps) ****
    Final optimized geometry and variables:
    Molecular point group: c1

    Geometry (in Angstrom), charge = 0, multiplicity = 1:

    H           -3.440252099948     0.288644826491    -1.994043527408
    O           -2.706109071664    -0.064633231232    -2.477148053507
    C           -2.520083785464    -1.411161858382    -2.121075441822
    C           -1.998161815467    -1.584251179867    -0.699287586924
    H           -3.445380399803    -1.969905419914    -2.250363021814
    H           -1.803724593697    -1.805748422240    -2.831080674393
    C           -0.642569339820    -0.916602040790    -0.463327288419
    H           -2.731790397281    -1.181131159883    -0.000729108549
    H           -1.930149892906    -2.649908464673    -0.486707517300
    C           -0.143050045819    -1.084485991665     0.974075602542
    H           -0.721938995689     0.133867444970    -0.718363610695
    H            0.087447138963    -1.345445486573    -1.148583369113
    C            1.268134788342    -0.542130695141     1.229382766011
    H           -0.841021842599    -0.602473444888     1.657233841193
    H           -0.155512955245    -2.142912196202     1.227536073659
    C            1.402938912865     0.978487492206     1.112302266707
    H            1.575931218651    -0.842155458570     2.229123089141
    H            1.965416804867    -1.019530400576     0.542687313557
    C            2.803183297349     1.481992255318     1.468964137788
    H            0.674013348139     1.454584177907     1.766990587914
    H            1.160593314724     1.298319576255     0.102169260988
    C            2.940926166156     2.999471087586     1.350604742903
    H            3.048964618380     1.175655780040     2.483623077546
    H            3.533653681718     1.002360530559     0.820734062112
    H            2.245890635102     3.508950534476     2.012246101685
    H            3.943475372301     3.325534043983     1.610224902188
    H            2.736367258985     3.333910184600     0.337460342837

  Mulliken Charges: (a.u.)
   Center  Symbol    Alpha    Beta     Spin     Total
       1     H     0.28308  0.28308  0.00000  0.43384
       2     O     4.36828  4.36828  0.00000 -0.73655
       3     C     2.99768  2.99768  0.00000  0.00463
       4     C     3.16681  3.16681  0.00000 -0.33362
       5     H     0.42817  0.42817  0.00000  0.14365
       6     H     0.41641  0.41641  0.00000  0.16718
       7     C     3.15463  3.15463  0.00000 -0.30925
       8     H     0.42806  0.42806  0.00000  0.14388
       9     H     0.42302  0.42302  0.00000  0.15397
      10     C     3.15295  3.15295  0.00000 -0.30590
      11     H     0.40887  0.40887  0.00000  0.18225
      12     H     0.42450  0.42450  0.00000  0.15100
      13     C     3.15287  3.15287  0.00000 -0.30573
      14     H     0.42514  0.42514  0.00000  0.14972
      15     H     0.42360  0.42360  0.00000  0.15281
      16     C     3.15299  3.15299  0.00000 -0.30599
      17     H     0.42275  0.42275  0.00000  0.15449
      18     H     0.42394  0.42394  0.00000  0.15212
      19     C     3.15108  3.15108  0.00000 -0.30216
      20     H     0.42550  0.42550  0.00000  0.14901
      21     H     0.41996  0.41996  0.00000  0.16008
      22     C     3.23913  3.23913  0.00000 -0.47826
      23     H     0.42383  0.42383  0.00000  0.15233
      24     H     0.42316  0.42316  0.00000  0.15368
      25     H     0.42233  0.42233  0.00000  0.15534
      26     H     0.41992  0.41992  0.00000  0.16015
      27     H     0.42133  0.42133  0.00000  0.15734

   Total alpha = 37.00000, Total beta = 37.00000, Total charge =  0.00000
