  ==> Input File <==

--------------------------------------------------------------------------
set {
	reference rhf
	basis 6-31G*
}

set_num_threads( 4 )
memory 2 gb

molecule MOL {
0 1

H	 -1.662949	 -1.805871	 -0.270003
C	 -1.351675	 -1.209425	 -1.122365
O	 -0.774054	 0.001095	 -0.743181
H	 -2.230816	 -0.962546	 -1.702445
H	 -0.691494	 -1.807851	 -1.743042
C	 0.406953	 0.000033	 0.038965
C	 1.527284	 -0.003667	 -0.998752
C	 0.498933	 1.262172	 0.902524
C	 0.494271	 -1.259566	 0.906664
H	 1.452513	 0.873252	 -1.631882
H	 1.448863	 -0.881882	 -1.629595
H	 2.502020	 -0.005104	 -0.521731
H	 0.364280	 2.147110	 0.289513
H	 1.472180	 1.321775	 1.378800
H	 -0.247853	 1.275162	 1.689097
H	 0.356778	 -2.146106	 0.296587
H	 1.467182	 -1.320941	 1.383330
H	 -0.252763	 -1.267328	 1.693119

	symmetry c1
}
set optking {
	frozen_dihedral = ("
		2 3 6 7
	")
}

ee = optimize('scf')
oeprop('DIPOLE', 'QUADRUPOLE', 'MULLIKEN_CHARGES')
f=open( 'psi4out.xyz', 'w' )
f.write( "18  " )
f.write( str(ee) + "\n" )
f.write( MOL.save_string_xyz() )
f.close()
--------------------------------------------------------------------------

    Molecular point group: c1
  Charge       = 0
  Multiplicity = 1
  Basis Set: 6-31G*
  Basis Set:
  @DF-RHF Final Energy:  -271.16819530551936
    Total Energy =                       -271.1681953055192480
    Molecular point group: c1
  Basis Set: 6-31G*
  Basis Set:
  Basis Set: 6-31G*
  Basis Set:
  @DF-RHF Final Energy:  -271.17167978510247
    Total Energy =                       -271.1716797851024694
  Basis Set: 6-31G*
  Basis Set:
  Basis Set: 6-31G*
  Basis Set:
  @DF-RHF Final Energy:  -271.17379711542458
    Total Energy =                       -271.1737971154246907
  Basis Set: 6-31G*
  Basis Set:
  Basis Set: 6-31G*
  Basis Set:
  @DF-RHF Final Energy:  -271.17403776728986
    Total Energy =                       -271.1740377672902014
  Basis Set: 6-31G*
  Basis Set:
  @DF-RHF Final Energy:  -271.17389999972937
    Total Energy =                       -271.1738999997292012
  @DF-RHF Final Energy:  -271.17408128747689
    Total Energy =                       -271.1740812874770086
  Basis Set: 6-31G*
  Basis Set:
  @DF-RHF Final Energy:  -271.17407979736379
    Total Energy =                       -271.1740797973638450
  Basis Set: 6-31G*
  Basis Set:
  Basis Set: 6-31G*
  Basis Set:
  @DF-RHF Final Energy:  -271.17408246671357
    Total Energy =                       -271.1740824667136280
  Basis Set: 6-31G*
  Basis Set:
  Basis Set: 6-31G*
  Basis Set:
  @DF-RHF Final Energy:  -271.17408412390233
    Total Energy =                       -271.1740841239026167
  Basis Set: 6-31G*
  Basis Set:
  Charge       = 0
  Multiplicity = 1
  Basis Set: 6-31G*
  Basis Set:

    Orbital Energies (a.u.)
    -----------------------

    Doubly Occupied:

       1A    -20.545744     2A    -11.281344     3A    -11.261570
       4A    -11.212603     5A    -11.205356     6A    -11.202985
       7A     -1.368900     8A     -1.073349     9A     -0.949492
      10A     -0.936189    11A     -0.911904    12A     -0.751938
      13A     -0.655961    14A     -0.645545    15A     -0.637571
      16A     -0.587971    17A     -0.574155    18A     -0.551553
      19A     -0.536721    20A     -0.525196    21A     -0.514831
      22A     -0.490062    23A     -0.484599    24A     -0.441062
      25A     -0.400187

  @DF-RHF Final Energy:  -271.17408412741457

   => Energetics <=

    Nuclear Repulsion Energy =            272.1820399631536134
    One-Electron Energy =                -907.2186706037477961
    Two-Electron Energy =                 363.8625465131797228
    DFT Exchange-Correlation Energy =       0.0000000000000000
    Empirical Dispersion Energy =           0.0000000000000000
    PCM Polarization Energy =               0.0000000000000000
    EFP Energy =                            0.0000000000000000
    Total Energy =                       -271.1740841274145168
    Molecular point group: c1
  Basis Set: 6-31G*
  Basis Set:

  -Total Gradient:
     Atom            X                  Y                   Z
    ------   -----------------  -----------------  -----------------
       1       -0.000001052002    -0.000004136657    -0.000006272003
       2       -0.001531787705    -0.000128891754     0.002738558732
       3        0.002330964502     0.001093130563    -0.004002235484
       4        0.000002260829     0.000000627965     0.000000798367
       5        0.000007759812    -0.000001272940     0.000001041292
       6       -0.000864441933    -0.003550150667     0.001123453954
       7        0.000046640477     0.002599470412     0.000160622193
       8        0.000010619395     0.000005841425    -0.000007117934
       9        0.000003255099    -0.000004793489     0.000001369389
      10        0.000002885175    -0.000003017956    -0.000011002697
      11       -0.000005953312    -0.000000843722     0.000009950080
      12       -0.000000734094     0.000006704413     0.000001845748
      13        0.000000101964     0.000001848369     0.000000981337
      14        0.000001871862     0.000000699272     0.000000496667
      15        0.000000088359    -0.000004372574    -0.000003628245
      16       -0.000001570607    -0.000010101965    -0.000007776366
      17       -0.000003590246    -0.000000653003     0.000002876641
      18        0.000002682424    -0.000000087696    -0.000003961669

  **** Optimization is complete! (in 10 steps) ****
    Final optimized geometry and variables:
    Molecular point group: c1

    Geometry (in Angstrom), charge = 0, multiplicity = 1:

    H           -1.912875835518    -1.519134928467    -0.084183901254
    C           -1.548245862129    -0.929318128696    -0.919178658528
    O           -0.915479629576     0.240740847564    -0.505221856838
    H           -2.396055968317    -0.625542001924    -1.518783231700
    H           -0.905849312106    -1.556920737527    -1.532521478503
    C            0.320728966835     0.171616857004     0.188837587303
    C            1.455521162193     0.209563324528    -0.838060894718
    C            0.348003562540     1.440889880537     1.039420640023
    C            0.436398396401    -1.058014934078     1.093111400010
    H            1.362583986424     1.093757177839    -1.458134344739
    H            1.426784866355    -0.660744393222    -1.486910907085
    H            2.425653370871     0.228783725251    -0.350964948193
    H            0.213404478331     2.312636586652     0.409324897384
    H            1.291307019325     1.538810119334     1.567618228011
    H           -0.456383763402     1.424520973595     1.766626596029
    H            0.467566732234    -1.983829422760     0.529136010068
    H            1.352671574931    -0.997362967438     1.670456811412
    H           -0.394028569945    -1.107947846354     1.789573619554

  Mulliken Charges: (a.u.)
   Center  Symbol    Alpha    Beta     Spin     Total
       1     H     0.42797  0.42797  0.00000  0.14406
       2     C     3.07774  3.07774  0.00000 -0.15549
       3     O     4.32122  4.32122  0.00000 -0.64245
       4     H     0.41256  0.41256  0.00000  0.17487
       5     H     0.43205  0.43205  0.00000  0.13590
       6     C     2.84192  2.84192  0.00000  0.31616
       7     C     3.23634  3.23634  0.00000 -0.47267
       8     C     3.23227  3.23227  0.00000 -0.46454
       9     C     3.25558  3.25558  0.00000 -0.51116
      10     H     0.41342  0.41342  0.00000  0.17316
      11     H     0.42168  0.42168  0.00000  0.15664
      12     H     0.42417  0.42417  0.00000  0.15166
      13     H     0.41304  0.41304  0.00000  0.17391
      14     H     0.42564  0.42564  0.00000  0.14871
      15     H     0.41700  0.41700  0.00000  0.16600
      16     H     0.41774  0.41774  0.00000  0.16452
      17     H     0.41563  0.41563  0.00000  0.16874
      18     H     0.41402  0.41402  0.00000  0.17195

   Total alpha = 25.00000, Total beta = 25.00000, Total charge =  0.00000
