  ==> Input File <==

--------------------------------------------------------------------------
set {
	reference rhf
	basis cc-pvtz
}

set_num_threads( 4 )
memory 2 gb

molecule MOL {
0 1

H	 -2.698799	 -0.000846	 0.036018
C	 -1.694291	 -0.000483	 0.434279
O	 -0.828718	 -0.000608	 -0.655022
H	 -1.576855	 0.881100	 1.056504
H	 -1.576401	 -0.881658	 1.057001
C	 0.543190	 0.213682	 -0.431806
C	 0.835781	 1.601465	 0.127410
C	 1.180759	 -0.892442	 0.401407
H	 0.966725	 0.162918	 -1.427125
H	 0.337795	 2.359243	 -0.464908
H	 1.902258	 1.792423	 0.097282
H	 0.514902	 1.704373	 1.157472
H	 0.922087	 -1.864171	 -0.000931
H	 2.259787	 -0.792096	 0.381345
H	 0.868948	 -0.855767	 1.438697

	symmetry c1
}
set optking {
	frozen_dihedral = ("
		6 3 2 1
	")
}

ee = optimize('scf')
oeprop('DIPOLE', 'QUADRUPOLE', 'MULLIKEN_CHARGES')
f=open( 'psi4out.xyz', 'w' )
f.write( "15  " )
f.write( str(ee) + "\n" )
f.write( MOL.save_string_xyz() )
f.close()
--------------------------------------------------------------------------

    Molecular point group: c1
  Charge       = 0
  Multiplicity = 1
  Basis Set: CC-PVTZ
  Basis Set:
  @DF-RHF Final Energy:  -232.22599318031456
    Total Energy =                       -232.2259931803146742
    Molecular point group: c1
  Basis Set: CC-PVTZ
  Basis Set:
  Basis Set: CC-PVTZ
  Basis Set:
  @DF-RHF Final Energy:  -232.22597330656669
    Total Energy =                       -232.2259733065666865
  Basis Set: CC-PVTZ
  Basis Set:
  Basis Set: CC-PVTZ
  Basis Set:
  @DF-RHF Final Energy:  -232.22608227930567
    Total Energy =                       -232.2260822793058423
  Basis Set: CC-PVTZ
  Basis Set:
  Basis Set: CC-PVTZ
  Basis Set:
  @DF-RHF Final Energy:  -232.22608396545792
    Total Energy =                       -232.2260839654579172
  Basis Set: CC-PVTZ
  Basis Set:
  Basis Set: CC-PVTZ
  Basis Set:
  @DF-RHF Final Energy:  -232.22608523572870
    Total Energy =                       -232.2260852357286467
  Basis Set: CC-PVTZ
  Basis Set:
  Charge       = 0
  Multiplicity = 1
  Basis Set: CC-PVTZ
  Basis Set:

    Orbital Energies (a.u.)
    -----------------------

    Doubly Occupied:

       1A    -20.541740     2A    -11.272665     3A    -11.258623
       4A    -11.209297     5A    -11.208088     6A     -1.373479
       7A     -1.051549     8A     -0.940480     9A     -0.931397
      10A     -0.781513    11A     -0.675829    12A     -0.642452
      13A     -0.634979    14A     -0.573637    15A     -0.565250
      16A     -0.552871    17A     -0.534148    18A     -0.498580
      19A     -0.497438    20A     -0.444815    21A     -0.409265

  @DF-RHF Final Energy:  -232.22608530831391

   => Energetics <=

    Nuclear Repulsion Energy =            199.0460584718819916
    One-Electron Energy =                -709.3481031396643175
    Two-Electron Energy =                 278.0759593594684702
    DFT Exchange-Correlation Energy =       0.0000000000000000
    Empirical Dispersion Energy =           0.0000000000000000
    PCM Polarization Energy =               0.0000000000000000
    EFP Energy =                            0.0000000000000000
    Total Energy =                       -232.2260853083138272
    Molecular point group: c1
  Basis Set: CC-PVTZ
  Basis Set:

  -Total Gradient:
     Atom            X                  Y                   Z
    ------   -----------------  -----------------  -----------------
       1        0.000001627427     0.000594429958     0.000052949508
       2       -0.000052614455    -0.000493936795    -0.000068565119
       3        0.000093764729    -0.000598216090     0.000034655125
       4        0.000001155692     0.000002037054     0.000006042339
       5       -0.000004247437     0.000009041190    -0.000006878777
       6       -0.000074571991     0.000480615122    -0.000016245198
       7        0.000003345682    -0.000001787030    -0.000002896363
       8        0.000018437428     0.000002268513     0.000000828551
       9        0.000014242811     0.000004766091     0.000002717702
      10       -0.000002774981     0.000000334848     0.000001010048
      11        0.000000520302     0.000001543100     0.000000214985
      12        0.000000257340    -0.000000944733    -0.000003798244
      13        0.000001264284     0.000001999215    -0.000001330212
      14       -0.000003988630    -0.000001953749     0.000001064595
      15        0.000003581797    -0.000000196692     0.000000231061

  **** Optimization is complete! (in 6 steps) ****
    Final optimized geometry and variables:
    Molecular point group: c1

    Geometry (in Angstrom), charge = 0, multiplicity = 1:

    H           -2.684439645935    -0.188708993161     0.067058029892
    C           -1.674572857001    -0.227282148264     0.449977011285
    O           -0.821269220432    -0.150325396783    -0.646553490942
    H           -1.545497843764     0.602129756470     1.137971822816
    H           -1.551431674710    -1.154621743534     1.000757760053
    C            0.554804754752     0.034734180592    -0.422849856541
    C            0.871638037027     1.424181139368     0.119504485318
    C            1.168615723578    -1.072810630708     0.425654333935
    H            0.980175631499    -0.035193302804    -1.416254134586
    H            0.393240690353     2.181822013912    -0.488646130905
    H            1.942091835467     1.593676596077     0.095858642341
    H            0.544572301736     1.549948744463     1.144957662713
    H            0.901979908238    -2.045226888335     0.029764688428
    H            2.248947981000    -0.987081719295     0.416882891950
    H            0.844434284905    -1.022044115042     1.458810810384

  Mulliken Charges: (a.u.)
   Center  Symbol    Alpha    Beta     Spin     Total
       1     H     0.44146  0.44146  0.00000  0.11708
       2     C     3.03938  3.03938  0.00000 -0.07876
       3     O     4.18334  4.18334  0.00000 -0.36668
       4     H     0.47116  0.47116  0.00000  0.05768
       5     H     0.46822  0.46822  0.00000  0.06356
       6     C     2.93420  2.93420  0.00000  0.13160
       7     C     3.15525  3.15525  0.00000 -0.31049
       8     C     3.16080  3.16080  0.00000 -0.32160
       9     H     0.44700  0.44700  0.00000  0.10599
      10     H     0.44433  0.44433  0.00000  0.11134
      11     H     0.45085  0.45085  0.00000  0.09830
      12     H     0.45626  0.45626  0.00000  0.08747
      13     H     0.44381  0.44381  0.00000  0.11237
      14     H     0.44859  0.44859  0.00000  0.10282
      15     H     0.45533  0.45533  0.00000  0.08934

   Total alpha = 21.00000, Total beta = 21.00000, Total charge = -0.00000
