  ==> Input File <==

--------------------------------------------------------------------------
set {
	reference rhf
	basis 6-31G*
}

set_num_threads( 4 )
memory 2 gb

molecule MOL {
0 1

H	 -3.161837	 0.500524	 -0.000234
C	 -2.367097	 -0.232926	 -0.000000
O	 -1.158440	 0.455814	 -0.000122
H	 -2.468853	 -0.861886	 -0.882833
H	 -2.468942	 -0.861421	 0.883154
C	 -0.029776	 -0.365156	 0.000148
C	 0.234979	 -0.834986	 -1.419650
H	 -0.187744	 -1.220286	 0.658706
H	 0.832088	 0.181697	 0.384920
C	 1.459060	 -1.744551	 -1.515552
H	 -0.647359	 -1.354557	 -1.780464
H	 0.365402	 0.037569	 -2.052372
H	 1.338442	 -2.636965	 -0.907711
H	 1.624670	 -2.064260	 -2.538882
H	 2.358435	 -1.235141	 -1.180842

	symmetry c1
}
set optking {
	frozen_dihedral = ("
		8 6 3 2
	")
}

ee = optimize('scf')
oeprop('DIPOLE', 'QUADRUPOLE', 'MULLIKEN_CHARGES')
f=open( 'psi4out.xyz', 'w' )
f.write( "15  " )
f.write( str(ee) + "\n" )
f.write( MOL.save_string_xyz() )
f.close()
--------------------------------------------------------------------------

    Molecular point group: c1
  Charge       = 0
  Multiplicity = 1
  Basis Set: 6-31G*
  Basis Set:
  @DF-RHF Final Energy:  -232.13459111612457
    Total Energy =                       -232.1345911161248523
    Molecular point group: c1
  Basis Set: 6-31G*
  Basis Set:
  Basis Set: 6-31G*
  Basis Set:
  @DF-RHF Final Energy:  -232.13580371683798
    Total Energy =                       -232.1358037168378132
  Basis Set: 6-31G*
  Basis Set:
  Basis Set: 6-31G*
  Basis Set:
  @DF-RHF Final Energy:  -232.13671951737334
    Total Energy =                       -232.1367195173734785
  Basis Set: 6-31G*
  Basis Set:
  Basis Set: 6-31G*
  Basis Set:
  @DF-RHF Final Energy:  -232.13675164639960
    Total Energy =                       -232.1367516463996026
  Basis Set: 6-31G*
  Basis Set:
  Basis Set: 6-31G*
  Basis Set:
  @DF-RHF Final Energy:  -232.13675332263915
    Total Energy =                       -232.1367533226392084
  Basis Set: 6-31G*
  Basis Set:
  Charge       = 0
  Multiplicity = 1
  Basis Set: 6-31G*
  Basis Set:

    Orbital Energies (a.u.)
    -----------------------

    Doubly Occupied:

       1A    -20.551988     2A    -11.266226     3A    -11.263749
       4A    -11.216077     5A    -11.214691     6A     -1.374808
       7A     -1.056288     8A     -0.958661     9A     -0.882244
      10A     -0.806118    11A     -0.669396    12A     -0.656190
      13A     -0.635525    14A     -0.600269    15A     -0.566979
      16A     -0.533289    17A     -0.517865    18A     -0.497552
      19A     -0.483546    20A     -0.457702    21A     -0.405615

  @DF-RHF Final Energy:  -232.13675346642319

   => Energetics <=

    Nuclear Repulsion Energy =            191.2342362382159138
    One-Electron Energy =                -693.5124203692961373
    Two-Electron Energy =                 270.1414306646570367
    DFT Exchange-Correlation Energy =       0.0000000000000000
    Empirical Dispersion Energy =           0.0000000000000000
    PCM Polarization Energy =               0.0000000000000000
    EFP Energy =                            0.0000000000000000
    Total Energy =                       -232.1367534664232153
    Molecular point group: c1
  Basis Set: 6-31G*
  Basis Set:

  -Total Gradient:
     Atom            X                  Y                   Z
    ------   -----------------  -----------------  -----------------
       1        0.000001824862     0.000002597539    -0.000003134848
       2        0.000005157103    -0.000006629985     0.000251907760
       3       -0.000054600024    -0.000038552341    -0.000434978382
       4        0.000005874290     0.000004219056     0.000000945938
       5       -0.000000528976    -0.000001583264     0.000003148858
       6        0.000177316267     0.000182981411     0.000408673714
       7        0.000000146255     0.000000727282    -0.000016511776
       8       -0.000118219370    -0.000156736949    -0.000230783894
       9        0.000000331358    -0.000000642401     0.000000664060
      10       -0.000011641982    -0.000000908893     0.000017541565
      11       -0.000002722757    -0.000001327920    -0.000010329309
      12        0.000001131081     0.000006331150     0.000007377859
      13        0.000002000524    -0.000000713003     0.000006164059
      14       -0.000015235919     0.000006403671     0.000004704591
      15        0.000009167292     0.000003834647    -0.000005390198

  **** Optimization is complete! (in 6 steps) ****
    Final optimized geometry and variables:
    Molecular point group: c1

    Geometry (in Angstrom), charge = 0, multiplicity = 1:

    H           -2.767132788244     1.140508720716     0.718710766531
    C           -2.016838309319     0.366280130013     0.633054399536
    O           -0.775272630346     0.995816052973     0.584905421134
    H           -2.221375317107    -0.214739450283    -0.262544387282
    H           -2.093353525933    -0.292107159229     1.496470855542
    C            0.335263320479     0.145929530123     0.530653459794
    C            0.658283658553    -0.325068150196    -0.883884467252
    H            0.186852953805    -0.710573115506     1.188262981135
    H            1.170258938905     0.714987236733     0.922966799000
    C            1.921117227762    -1.185255556644    -0.928348748254
    H           -0.178509529927    -0.888618480770    -1.287093700221
    H            0.778752508421     0.550100457582    -1.515421531491
    H            1.813463645651    -2.078619549174    -0.319229312309
    H            2.140481183867    -1.503415091563    -1.942020996565
    H            2.784442026622    -0.637474014207    -0.561094650122

  Mulliken Charges: (a.u.)
   Center  Symbol    Alpha    Beta     Spin     Total
       1     H     0.41215  0.41215  0.00000  0.17570
       2     C     3.08073  3.08073  0.00000 -0.16147
       3     O     4.30698  4.30698  0.00000 -0.61397
       4     H     0.43002  0.43002  0.00000  0.13996
       5     H     0.43016  0.43016  0.00000  0.13968
       6     C     2.98670  2.98670  0.00000  0.02660
       7     C     3.16427  3.16427  0.00000 -0.32853
       8     H     0.43312  0.43312  0.00000  0.13376
       9     H     0.41662  0.41662  0.00000  0.16677
      10     C     3.24773  3.24773  0.00000 -0.49546
      11     H     0.42128  0.42128  0.00000  0.15745
      12     H     0.41395  0.41395  0.00000  0.17210
      13     H     0.42105  0.42105  0.00000  0.15791
      14     H     0.41556  0.41556  0.00000  0.16889
      15     H     0.41969  0.41969  0.00000  0.16061

   Total alpha = 21.00000, Total beta = 21.00000, Total charge =  0.00000
