  ==> Input File <==

--------------------------------------------------------------------------
set {
	reference rhf
	basis 6-31G*
}

set_num_threads( 4 )
memory 2 gb

molecule MOL {
0 1

O	 -2.042549	 -1.228399	 -0.269030
C	 -1.653912	 -0.146171	 0.050137
C	 -0.332303	 0.024011	 0.778412
C	 -2.438579	 1.106236	 -0.272369
C	 0.845713	 -0.001731	 -0.208243
H	 -0.323783	 0.953829	 1.340327
H	 -0.235459	 -0.796807	 1.480410
C	 1.928909	 -1.003708	 0.193948
H	 1.285658	 0.991286	 -0.282064
H	 0.465327	 -0.247652	 -1.195142
C	 3.097413	 -1.037856	 -0.790247
H	 2.298895	 -0.757174	 1.186801
H	 1.489021	 -1.995458	 0.268106
H	 3.580049	 -0.067217	 -0.860780
H	 2.762771	 -1.313669	 -1.785930
H	 3.848007	 -1.758558	 -0.481666
H	 -3.277823	 0.863061	 -0.908988
H	 -1.806773	 1.843019	 -0.759671
H	 -2.802853	 1.554979	 0.648059

	symmetry c1
}
set optking {
	frozen_dihedral = ("
		9 5 3 2
	")
}

ee = optimize('scf')
oeprop('DIPOLE', 'QUADRUPOLE', 'MULLIKEN_CHARGES')
f=open( 'psi4out.xyz', 'w' )
f.write( "19  " )
f.write( str(ee) + "\n" )
f.write( MOL.save_string_xyz() )
f.close()
--------------------------------------------------------------------------

    Molecular point group: c1
  Charge       = 0
  Multiplicity = 1
  Basis Set: 6-31G*
  Basis Set:
  @DF-RHF Final Energy:  -309.05966368596739
    Total Energy =                       -309.0596636859676209
    Molecular point group: c1
  Basis Set: 6-31G*
  Basis Set:
  Basis Set: 6-31G*
  Basis Set:
  @DF-RHF Final Energy:  -309.05982056757921
    Total Energy =                       -309.0598205675790382
  Basis Set: 6-31G*
  Basis Set:
  Basis Set: 6-31G*
  Basis Set:
  @DF-RHF Final Energy:  -309.06009713307361
    Total Energy =                       -309.0600971330737821
  Basis Set: 6-31G*
  Basis Set:
  Basis Set: 6-31G*
  Basis Set:
  @DF-RHF Final Energy:  -309.06018871541056
    Total Energy =                       -309.0601887154105611
  Basis Set: 6-31G*
  Basis Set:
  @DF-RHF Final Energy:  -309.06029609254415
    Total Energy =                       -309.0602960925443199
  @DF-RHF Final Energy:  -309.06031393786236
    Total Energy =                       -309.0603139378622473
  @DF-RHF Final Energy:  -309.06036893906804
    Total Energy =                       -309.0603689390680984
  Basis Set: 6-31G*
  Basis Set:
  @DF-RHF Final Energy:  -309.06037895459650
    Total Energy =                       -309.0603789545967857
  Basis Set: 6-31G*
  Basis Set:
  Basis Set: 6-31G*
  Basis Set:
  @DF-RHF Final Energy:  -309.06038013560322
    Total Energy =                       -309.0603801356032818
  Basis Set: 6-31G*
  Basis Set:
  Basis Set: 6-31G*
  Basis Set:
  @DF-RHF Final Energy:  -309.06038138237602
    Total Energy =                       -309.0603813823755104
  Basis Set: 6-31G*
  Basis Set:
  Charge       = 0
  Multiplicity = 1
  Basis Set: 6-31G*
  Basis Set:

    Orbital Energies (a.u.)
    -----------------------

    Doubly Occupied:

       1A    -20.547522     2A    -11.324249     3A    -11.233310
       4A    -11.229045     5A    -11.227621     6A    -11.224095
       7A    -11.214555     8A     -1.393045     9A     -1.090513
      10A     -1.028935    11A     -0.981002    12A     -0.892164
      13A     -0.808284    14A     -0.734226    15A     -0.662384
      16A     -0.637799    17A     -0.627053    18A     -0.611771
      19A     -0.582058    20A     -0.575186    21A     -0.553774
      22A     -0.529335    23A     -0.520408    24A     -0.500847
      25A     -0.479595    26A     -0.474200    27A     -0.466413
      28A     -0.396995

  @DF-RHF Final Energy:  -309.06038163749656

   => Energetics <=

    Nuclear Repulsion Energy =            302.2283881237070773
    One-Electron Energy =               -1017.4847762304256094
    Two-Electron Energy =                 406.1960064692220271
    DFT Exchange-Correlation Energy =       0.0000000000000000
    Empirical Dispersion Energy =           0.0000000000000000
    PCM Polarization Energy =               0.0000000000000000
    EFP Energy =                            0.0000000000000000
    Total Energy =                       -309.0603816374965049
    Molecular point group: c1
  Basis Set: 6-31G*
  Basis Set:

  -Total Gradient:
     Atom            X                  Y                   Z
    ------   -----------------  -----------------  -----------------
       1        0.000006281255    -0.000003351848     0.000003361890
       2        0.000090894276    -0.001466885075     0.000045913258
       3        0.000196868593     0.001875625920     0.000238164793
       4       -0.000007222789    -0.000000205034    -0.000008671641
       5       -0.001588060628     0.000177550565    -0.001776399397
       6        0.000003386795     0.000000477128     0.000004766663
       7        0.000001059975    -0.000005600720     0.000004639753
       8        0.000009277277    -0.000031625592     0.000010671165
       9        0.001302368493    -0.000553385041     0.001462806836
      10        0.000000024904    -0.000004783642     0.000002091227
      11       -0.000009607760     0.000013502362     0.000004186561
      12        0.000003760969    -0.000003116594    -0.000001339511
      13       -0.000005559282    -0.000000869440     0.000004326488
      14       -0.000000449962     0.000003021248    -0.000004455599
      15        0.000002406431    -0.000006208640    -0.000004256662
      16       -0.000006284830     0.000004110566     0.000005485184
      17        0.000000782799     0.000001600412     0.000002468116
      18        0.000001716985    -0.000003197761     0.000004915899
      19       -0.000001643494     0.000003341190     0.000001324975

  **** Optimization is complete! (in 11 steps) ****
    Final optimized geometry and variables:
    Molecular point group: c1

    Geometry (in Angstrom), charge = 0, multiplicity = 1:

    O           -2.158124153709    -0.889999765071     0.137706913759
    C           -1.591659152879     0.157502924237     0.211734695142
    C           -0.241975550707     0.279815605441     0.893084517174
    C           -2.180930256671     1.419533581560    -0.382180769134
    C            0.921037105161     0.336373329103    -0.132883628440
    H           -0.227377482526     1.162278470352     1.525573697522
    H           -0.134987168466    -0.587853085457     1.532037595411
    C            2.026555425792    -0.676285194100     0.177396641166
    H            1.354481600498     1.332160700513    -0.142988860567
    H            0.550424451300     0.148417188657    -1.137480296170
    C            3.186143021902    -0.608932642791    -0.814643464624
    H            2.399136650566    -0.501945249213     1.184382078521
    H            1.601597889783    -1.676640411114     0.175368564048
    H            3.650870422918     0.373101935313    -0.811111842921
    H            2.848511124277    -0.811443144320    -1.827087125261
    H            3.952231086530    -1.337810175270    -0.570192265579
    H           -3.046186216371     1.175662236745    -0.982846064500
    H           -1.449830419691     1.948457199372    -0.985668516441
    H           -2.480476704941     2.089065485233     0.419983594762

  Mulliken Charges: (a.u.)
   Center  Symbol    Alpha    Beta     Spin     Total
       1     O     4.26059  4.26059  0.00000 -0.52118
       2     C     2.74015  2.74015  0.00000  0.51969
       3     C     3.20418  3.20418  0.00000 -0.40836
       4     C     3.28954  3.28954  0.00000 -0.57907
       5     C     3.16126  3.16126  0.00000 -0.32253
       6     H     0.41279  0.41279  0.00000  0.17441
       7     H     0.39806  0.39806  0.00000  0.20389
       8     C     3.15397  3.15397  0.00000 -0.30794
       9     H     0.41739  0.41739  0.00000  0.16521
      10     H     0.41441  0.41441  0.00000  0.17118
      11     C     3.24147  3.24147  0.00000 -0.48293
      12     H     0.42071  0.42071  0.00000  0.15858
      13     H     0.41448  0.41448  0.00000  0.17104
      14     H     0.42165  0.42165  0.00000  0.15669
      15     H     0.41977  0.41977  0.00000  0.16046
      16     H     0.41661  0.41661  0.00000  0.16677
      17     H     0.39701  0.39701  0.00000  0.20599
      18     H     0.40907  0.40907  0.00000  0.18187
      19     H     0.40688  0.40688  0.00000  0.18623

   Total alpha = 28.00000, Total beta = 28.00000, Total charge = -0.00000
