  ==> Input File <==

--------------------------------------------------------------------------
set {
	reference rhf
	basis 6-31G*
}

set_num_threads( 1 )
memory 2 gb

molecule MOL {
0 1

O	 -2.042549	 -1.228399	 -0.269030
C	 -1.653912	 -0.146171	 0.050137
C	 -0.332303	 0.024011	 0.778412
C	 -2.438579	 1.106236	 -0.272369
C	 -0.348909	 -0.714329	 2.126170
H	 0.489106	 -0.339915	 0.167489
H	 -0.184252	 1.084820	 0.947790
C	 0.954631	 -0.543103	 2.907513
H	 -0.531998	 -1.774886	 1.962523
H	 -1.182092	 -0.341931	 2.714614
C	 0.937542	 -1.268896	 4.252184
H	 1.785833	 -0.909436	 2.308907
H	 1.137504	 0.516426	 3.070373
H	 0.790183	 -2.337029	 4.120162
H	 0.136101	 -0.900545	 4.885786
H	 1.872494	 -1.127602	 4.785032
H	 -3.277823	 0.863061	 -0.908988
H	 -1.806773	 1.843019	 -0.759671
H	 -2.802853	 1.554979	 0.648059

	symmetry c1
}
set optking {
	frozen_dihedral = ("
		11 8 5 9,
		9 5 3 2
	")
}

ee = energy('scf')
oeprop('DIPOLE', 'QUADRUPOLE', 'MULLIKEN_CHARGES')
f=open( 'psi4out.xyz', 'w' )
f.write( "19  " )
f.write( str(ee) + "\n" )
f.write( MOL.save_string_xyz() )
f.close()
--------------------------------------------------------------------------

    Molecular point group: c1

    Geometry (in Angstrom), charge = 0, multiplicity = 1:

       Center              X                  Y                   Z               Mass
    ------------   -----------------  -----------------  -----------------  -----------------
           O         -1.334664727586    -0.828366035157    -1.647114810239    15.994914619560
           C         -0.946027727586     0.253861964843    -1.327947810239    12.000000000000
           C          0.375581272414     0.424043964843    -0.599672810239    12.000000000000
           C         -1.730694727586     1.506268964843    -1.650453810239    12.000000000000
           C          0.358975272414    -0.314296035157     0.748085189761    12.000000000000
           H          1.196990272414     0.060117964843    -1.210595810239     1.007825032070
           H          0.523632272414     1.484852964843    -0.430294810239     1.007825032070
           C          1.662515272414    -0.143070035157     1.529428189761    12.000000000000
           H          0.175886272414    -1.374853035157     0.584438189761     1.007825032070
           H         -0.474207727586     0.058101964843     1.336529189761     1.007825032070
           C          1.645426272414    -0.868863035157     2.874099189761    12.000000000000
           H          2.493717272414    -0.509403035157     0.930822189761     1.007825032070
           H          1.845388272414     0.916458964843     1.692288189761     1.007825032070
           H          1.498067272414    -1.936996035157     2.742077189761     1.007825032070
           H          0.843985272414    -0.500512035157     3.507701189761     1.007825032070
           H          2.580378272414    -0.727569035157     3.406947189761     1.007825032070
           H         -2.569938727586     1.263093964843    -2.287072810239     1.007825032070
           H         -1.098888727586     2.243051964843    -2.137755810239     1.007825032070
           H         -2.094968727586     1.955011964843    -0.730025810239     1.007825032070

  Charge       = 0
  Multiplicity = 1
  Basis Set: 6-31G*
  Basis Set:

    Orbital Energies (a.u.)
    -----------------------

    Doubly Occupied:

       1A    -20.547490     2A    -11.324894     3A    -11.230015
       4A    -11.229008     5A    -11.225978     6A    -11.222400
       7A    -11.212992     8A     -1.393448     9A     -1.088717
      10A     -1.029513    11A     -0.984027    12A     -0.887993
      13A     -0.804027    14A     -0.732718    15A     -0.661090
      16A     -0.646954    17A     -0.622932    18A     -0.611540
      19A     -0.581988    20A     -0.572794    21A     -0.553406
      22A     -0.535485    23A     -0.514331    24A     -0.495021
      25A     -0.479328    26A     -0.474028    27A     -0.465341
      28A     -0.397252

  @DF-RHF Final Energy:  -309.06421407511021

   => Energetics <=

    Nuclear Repulsion Energy =            301.0944721148063650
    One-Electron Energy =               -1015.2681014113937863
    Two-Electron Energy =                 405.1094152214773203
    DFT Exchange-Correlation Energy =       0.0000000000000000
    Empirical Dispersion Energy =           0.0000000000000000
    PCM Polarization Energy =               0.0000000000000000
    EFP Energy =                            0.0000000000000000
    Total Energy =                       -309.0642140751101579

  Mulliken Charges: (a.u.)
   Center  Symbol    Alpha    Beta     Spin     Total
       1     O     4.26278  4.26278  0.00000 -0.52556
       2     C     2.73594  2.73594  0.00000  0.52812
       3     C     3.20195  3.20195  0.00000 -0.40389
       4     C     3.29031  3.29031  0.00000 -0.58062
       5     C     3.15707  3.15707  0.00000 -0.31414
       6     H     0.40068  0.40068  0.00000  0.19864
       7     H     0.41784  0.41784  0.00000  0.16431
       8     C     3.15224  3.15224  0.00000 -0.30449
       9     H     0.40475  0.40475  0.00000  0.19049
      10     H     0.42116  0.42116  0.00000  0.15767
      11     C     3.24000  3.24000  0.00000 -0.47999
      12     H     0.42082  0.42082  0.00000  0.15836
      13     H     0.42335  0.42335  0.00000  0.15329
      14     H     0.41899  0.41899  0.00000  0.16201
      15     H     0.42102  0.42102  0.00000  0.15797
      16     H     0.41815  0.41815  0.00000  0.16370
      17     H     0.39677  0.39677  0.00000  0.20646
      18     H     0.40892  0.40892  0.00000  0.18216
      19     H     0.40725  0.40725  0.00000  0.18549

   Total alpha = 28.00000, Total beta = 28.00000, Total charge = -0.00000
