                              Psi4 1.0.54 Driver

  ==> Input File <==

--------------------------------------------------------------------------
set {
	reference rhf
	basis cc-pvtz
}

set_num_threads( 4 )
memory 2 gb

molecule MOL {
0 1

H	 2.327762	 0.716994	 1.178397
O	 1.467968	 0.327742	 1.232929
C	 1.050374	 0.054877	 0.000135
C	 -0.318151	 -0.570512	 0.000144
O	 1.707574	 0.291615	 -0.953810
C	 -1.454884	 0.441630	 -0.000560
H	 -0.371613	 -1.223646	 -0.864985
H	 -0.371920	 -1.222758	 0.865929
C	 -2.822577	 -0.232186	 0.000063
H	 -1.359760	 1.084704	 -0.867077
H	 -1.359641	 1.085996	 0.864983
H	 -2.954352	 -0.858985	 -0.875745
H	 -3.615886	 0.505352	 0.000019
H	 -2.953878	 -0.858359	 0.876394

	symmetry c1
}
set optking {
	frozen_dihedral = ("
		2 3 4 7
	")
}

ee,wfn = optimize('scf', return_wfn=True)
oeprop( wfn, 'DIPOLE', 'QUADRUPOLE', 'MULLIKEN_CHARGES')
f=open( 'psi4out.xyz', 'w' )
f.write( "14  " )
f.write( str(ee) + "\n" )
f.write( MOL.save_string_xyz() )
f.close()
--------------------------------------------------------------------------

    Molecular point group: c1
  Charge       = 0
  Multiplicity = 1
  Basis Set: CC-PVTZ
  Basis Set:
  @DF-RHF Final Energy:  -305.99896362369418
    Total Energy =                       -305.9989636236942374
    Molecular point group: c1
  Basis Set: CC-PVTZ
  Basis Set:
  Basis Set: CC-PVTZ
  Basis Set:
  @DF-RHF Final Energy:  -305.99953002935183
    Total Energy =                       -305.9995300293517175
  Basis Set: CC-PVTZ
  Basis Set:
  Basis Set: CC-PVTZ
  Basis Set:
  @DF-RHF Final Energy:  -305.99901636109831
    Total Energy =                       -305.9990163610983132
  Basis Set: CC-PVTZ
  Basis Set:
  Basis Set: CC-PVTZ
  Basis Set:
  @DF-RHF Final Energy:  -305.99961675402653
    Total Energy =                       -305.9996167540265333
  Basis Set: CC-PVTZ
  Basis Set:
  Basis Set: CC-PVTZ
  Basis Set:
  @DF-RHF Final Energy:  -305.99963682337471
    Total Energy =                       -305.9996368233746011
  Basis Set: CC-PVTZ
  Basis Set:
  Charge       = 0
  Multiplicity = 1
  Basis Set: CC-PVTZ
  Basis Set:

    Orbital Energies (a.u.)
    -----------------------

    Doubly Occupied:

       1A    -20.605539     2A    -20.538621     3A    -11.372706
       4A    -11.237944     5A    -11.234253     6A    -11.219383
       7A     -1.477552     8A     -1.368132     9A     -1.087696
      10A     -0.980920    11A     -0.853793    12A     -0.810208
      13A     -0.706288    14A     -0.688871    15A     -0.643143
      16A     -0.639822    17A     -0.596699    18A     -0.569449
      19A     -0.553976    20A     -0.518731    21A     -0.500554
      22A     -0.489776    23A     -0.475392    24A     -0.441757

  @DF-RHF Final Energy:  -305.99963748744966

   => Energetics <=

    Nuclear Repulsion Energy =            240.8509074330468707
    One-Electron Energy =                -894.4786769762134782
    Two-Electron Energy =                 347.6281320557168897
    DFT Exchange-Correlation Energy =       0.0000000000000000
    Empirical Dispersion Energy =           0.0000000000000000
    PCM Polarization Energy =               0.0000000000000000
    EFP Energy =                            0.0000000000000000
    Total Energy =                       -305.9996374874496610
    Molecular point group: c1
  Basis Set: CC-PVTZ
  Basis Set:

  -Total Gradient:
     Atom            X                  Y                   Z
    ------   -----------------  -----------------  -----------------
       1        0.000038238467     0.000018510168    -0.000025079864
       2        0.000031700583    -0.000376351322    -0.000023500890
       3       -0.000125329973     0.000354718926     0.000218866792
       4       -0.000152804058     0.000414983909    -0.000296551856
       5        0.000006479685    -0.000000950085    -0.000121246922
       6        0.000004526207    -0.000055897364    -0.000005965585
       7        0.000173863285    -0.000329255468     0.000216443747
       8        0.000000146003    -0.000041001127     0.000031854853
       9        0.000014540080     0.000003963284     0.000011180560
      10       -0.000003806694    -0.000000050540    -0.000014088303
      11       -0.000009475112    -0.000003419456     0.000006035297
      12        0.000012308998     0.000009820867     0.000000476565
      13        0.000001870539     0.000006364602     0.000002273971
      14        0.000007741990    -0.000001436394    -0.000000698364

  **** Optimization is complete! (in 6 steps) ****
    Final optimized geometry and variables:
    Molecular point group: c1

    Geometry (in Angstrom), charge = 0, multiplicity = 1:

    H            2.362471212576     0.700682622715     1.069053405988
    O            1.535084928644     0.250584809785     1.153374753355
    C            1.070243498710    -0.005271661603    -0.065538431186
    C           -0.275325946968    -0.676801003334    -0.044939666680
    O            1.663746981636     0.298931711630    -1.042715967374
    C           -1.407335719286     0.357756712034    -0.048910615513
    H           -0.338100889094    -1.301978235351    -0.924818174935
    H           -0.348303125699    -1.303131844946     0.834647370935
    C           -2.782916325525    -0.298219726410    -0.049229233956
    H           -1.302180916768     0.990863343691    -0.922647471405
    H           -1.309044475617     0.999175169412     0.820229276446
    H           -2.916317000959    -0.925978502300    -0.923378811586
    H           -3.566637048646     0.449635175252    -0.055151976978
    H           -2.922005374245    -0.918068014573     0.829809304165

  Mulliken Charges: (a.u.)
   Center  Symbol    Alpha    Beta     Spin     Total
       1     H     0.38017  0.38017  0.00000  0.23965
       2     O     4.16333  4.16333  0.00000 -0.32667
       3     C     2.80437  2.80437  0.00000  0.39126
       4     C     3.08716  3.08716  0.00000 -0.17432
       5     O     4.19820  4.19820  0.00000 -0.39639
       6     C     3.09394  3.09394  0.00000 -0.18787
       7     H     0.43841  0.43841  0.00000  0.12318
       8     H     0.44274  0.44274  0.00000  0.11453
       9     C     3.14987  3.14987  0.00000 -0.29974
      10     H     0.44306  0.44306  0.00000  0.11388
      11     H     0.44663  0.44663  0.00000  0.10675
      12     H     0.45268  0.45268  0.00000  0.09465
      13     H     0.44566  0.44566  0.00000  0.10867
      14     H     0.45378  0.45378  0.00000  0.09244

   Total alpha = 24.00000, Total beta = 24.00000, Total charge = -0.00000

*** Psi4 exiting successfully. Buy a developer a beer!
