                              Psi4 1.0.54 Driver

  ==> Input File <==

--------------------------------------------------------------------------
set {
	reference rhf
	basis cc-pvtz
}

set_num_threads( 4 )
memory 2 gb

molecule MOL {
0 1

O	 1.236807	 1.270197	 0.276362
C	 1.121787	 0.124983	 0.000110
C	 -0.170912	 -0.649867	 -0.000147
O	 2.141194	 -0.640776	 -0.353162
C	 -1.413045	 0.229353	 0.001137
H	 -0.152877	 -1.303435	 -0.866175
H	 -0.152278	 -1.305116	 0.864586
C	 -2.702562	 -0.586401	 0.000228
H	 -1.390744	 0.882001	 -0.864365
H	 -1.390549	 0.879837	 0.868264
C	 -3.953810	 0.284959	 -0.000782
H	 -2.717793	 -1.238567	 -0.869075
H	 -2.719108	 -1.238472	 0.869576
H	 -3.983727	 0.924403	 -0.876454
H	 -4.852989	 -0.320147	 -0.001515
H	 -3.985140	 0.924399	 0.874841
C	 3.419809	 -0.040219	 -0.395516
H	 3.436451	 0.771534	 -1.107561
H	 4.103183	 -0.816252	 -0.699887
H	 3.695515	 0.338801	 0.577394

	symmetry c1
}
set optking {
	frozen_dihedral = ("
		1 2 3 6
	")
}

ee,wfn = optimize('scf', return_wfn=True)
oeprop( wfn, 'DIPOLE', 'QUADRUPOLE', 'MULLIKEN_CHARGES')
f=open( 'psi4out.xyz', 'w' )
f.write( "20  " )
f.write( str(ee) + "\n" )
f.write( MOL.save_string_xyz() )
f.close()
--------------------------------------------------------------------------

    Molecular point group: c1
  Charge       = 0
  Multiplicity = 1
  Basis Set: CC-PVTZ
  Basis Set:
  @DF-RHF Final Energy:  -384.08297636531688
    Total Energy =                       -384.0829763653168811
    Molecular point group: c1
  Basis Set: CC-PVTZ
  Basis Set:
  Basis Set: CC-PVTZ
  Basis Set:
  @DF-RHF Final Energy:  -384.08224584226815
    Total Energy =                       -384.0822458422684349
  Basis Set: CC-PVTZ
  Basis Set:
  Basis Set: CC-PVTZ
  Basis Set:
  @DF-RHF Final Energy:  -384.08304959720112
    Total Energy =                       -384.0830495972013523
  Basis Set: CC-PVTZ
  Basis Set:
  Basis Set: CC-PVTZ
  Basis Set:
  @DF-RHF Final Energy:  -384.08309484184952
    Total Energy =                       -384.0830948418492881
  Basis Set: CC-PVTZ
  Basis Set:
  Charge       = 0
  Multiplicity = 1
  Basis Set: CC-PVTZ
  Basis Set:

    Orbital Energies (a.u.)
    -----------------------

    Doubly Occupied:

       1A    -20.596778     2A    -20.533840     3A    -11.364733
       4A    -11.278539     5A    -11.233863     6A    -11.218660
       7A    -11.217791     8A    -11.208917     9A     -1.472390
      10A     -1.365789    11A     -1.090119    12A     -1.025508
      13A     -0.970052    14A     -0.886682    15A     -0.804747
      16A     -0.769996    17A     -0.698971    18A     -0.686569
      19A     -0.675868    20A     -0.647229    21A     -0.599061
      22A     -0.592733    23A     -0.579729    24A     -0.542909
      25A     -0.537092    26A     -0.524373    27A     -0.501122
      28A     -0.478986    29A     -0.475616    30A     -0.471241
      31A     -0.459826    32A     -0.439605

  @DF-RHF Final Energy:  -384.08309563422944

   => Energetics <=

    Nuclear Repulsion Energy =            381.7039536594054994
    One-Electron Energy =               -1279.6754374966785690
    Two-Electron Energy =                 513.8883882030430641
    DFT Exchange-Correlation Energy =       0.0000000000000000
    Empirical Dispersion Energy =           0.0000000000000000
    PCM Polarization Energy =               0.0000000000000000
    EFP Energy =                            0.0000000000000000
    Total Energy =                       -384.0830956342300624
    Molecular point group: c1
  Basis Set: CC-PVTZ
  Basis Set:

  -Total Gradient:
     Atom            X                  Y                   Z
    ------   -----------------  -----------------  -----------------
       1        0.000118190291    -0.000342508463     0.000602411542
       2       -0.000226066180     0.000374840200    -0.000825465619
       3       -0.000269258134     0.000487558370    -0.000069610532
       4        0.000101112425     0.000019927619    -0.000041244451
       5       -0.000012834278    -0.000021345853    -0.000022378729
       6        0.000286218977    -0.000429185289     0.000352333306
       7       -0.000015686425    -0.000009944788    -0.000011666849
       8       -0.000009007839     0.000012723792     0.000000635773
       9        0.000000253629    -0.000011310577     0.000015331808
      10        0.000001541907    -0.000004187086    -0.000001022777
      11       -0.000009612674    -0.000001720034    -0.000006761835
      12        0.000001615338     0.000000445436     0.000004797622
      13        0.000003722334     0.000006481465    -0.000005661177
      14       -0.000000355716    -0.000002734695     0.000006697775
      15       -0.000004056688     0.000003736532    -0.000001437974
      16        0.000000985991    -0.000003438083    -0.000004878472
      17        0.000063488817    -0.000093125303     0.000029324675
      18       -0.000043018780    -0.000040054887     0.000037903622
      19        0.000028955134     0.000060614144     0.000004868278
      20       -0.000016188116    -0.000006772499    -0.000064175988

  **** Optimization is complete! (in 5 steps) ****
    Final optimized geometry and variables:
    Molecular point group: c1

    Geometry (in Angstrom), charge = 0, multiplicity = 1:

    O            1.239937502377     1.260642641351     0.301640519939
    C            1.124759192910     0.114562754728     0.028943390980
    C           -0.171138550056    -0.655204176618     0.024903275215
    O            2.149089806502    -0.660810938104    -0.286973004403
    C           -1.409636535668     0.229606218629     0.048409476613
    H           -0.166509829566    -1.317124868402    -0.832718673357
    H           -0.144620011236    -1.301994890916     0.897722648084
    C           -2.702645622017    -0.580048451911     0.076335502195
    H           -1.403506973189     0.877610436867    -0.822031367945
    H           -1.364807734660     0.883601468506     0.910907555553
    C           -3.949715788312     0.297116397754     0.095312025179
    H           -2.738163107952    -1.237229427625    -0.788508587826
    H           -2.704454078704    -1.226786183577     0.949798735429
    H           -3.994771075021     0.931279418865    -0.783585104503
    H           -4.851431216945    -0.303808688459     0.116527581750
    H           -3.960241686582     0.942037375895     0.967345987367
    C            3.434652797398    -0.073800898597    -0.275510109051
    H            3.488094354769     0.739632368893    -0.983589066186
    H            4.121974156654    -0.855842216408    -0.554390228631
    H            3.674522774986     0.299861822797     0.708863997144

  Mulliken Charges: (a.u.)
   Center  Symbol    Alpha    Beta     Spin     Total
       1     O     4.19753  4.19753  0.00000 -0.39505
       2     C     2.80887  2.80887  0.00000  0.38226
       3     C     3.09734  3.09734  0.00000 -0.19467
       4     O     4.14607  4.14607  0.00000 -0.29214
       5     C     3.08254  3.08254  0.00000 -0.16508
       6     H     0.43866  0.43866  0.00000  0.12268
       7     H     0.44255  0.44255  0.00000  0.11491
       8     C     3.08698  3.08698  0.00000 -0.17395
       9     H     0.44969  0.44969  0.00000  0.10062
      10     H     0.44335  0.44335  0.00000  0.11330
      11     C     3.14918  3.14918  0.00000 -0.29836
      12     H     0.45528  0.45528  0.00000  0.08943
      13     H     0.45490  0.45490  0.00000  0.09020
      14     H     0.45414  0.45414  0.00000  0.09172
      15     H     0.44835  0.44835  0.00000  0.10329
      16     H     0.45358  0.45358  0.00000  0.09283
      17     C     3.03706  3.03706  0.00000 -0.07412
      18     H     0.45429  0.45429  0.00000  0.09141
      19     H     0.44524  0.44524  0.00000  0.10952
      20     H     0.45441  0.45441  0.00000  0.09118

   Total alpha = 32.00000, Total beta = 32.00000, Total charge = -0.00000

*** Psi4 exiting successfully. Buy a developer a beer!
