  ==> Input File <==

--------------------------------------------------------------------------
set {
	reference rhf
	basis cc-pvtz
}

set_num_threads( 4 )
memory 2 gb

molecule MOL {
0 1

H	 -3.941973	 0.934228	 -0.390224
C	 -3.240162	 0.342701	 0.161016
C	 -2.105997	 -0.000418	 -0.398703
H	 -3.485368	 0.047206	 1.162193
O	 -1.189946	 -0.765863	 0.237511
H	 -1.846458	 0.297311	 -1.398265
C	 0.026572	 -0.995256	 -0.379403
C	 1.057223	 0.049888	 -0.004615
H	 -0.054361	 -1.010670	 -1.459674
H	 0.397526	 -1.952058	 -0.044198
F	 1.180299	 0.094344	 1.306856
F	 2.241445	 -0.225715	 -0.507775
F	 0.718149	 1.246867	 -0.417806

	symmetry c1
}
set optking {
	frozen_dihedral = ("
		11 8 7 9
	")
}

ee = optimize('scf')
oeprop('DIPOLE', 'QUADRUPOLE', 'MULLIKEN_CHARGES')
f=open( 'psi4out.xyz', 'w' )
f.write( "13  " )
f.write( str(ee) + "\n" )
f.write( MOL.save_string_xyz() )
f.close()
--------------------------------------------------------------------------

    Molecular point group: c1
  Charge       = 0
  Multiplicity = 1
  Basis Set: CC-PVTZ
  Basis Set:
  @DF-RHF Final Energy:  -527.74148191407903
    Total Energy =                       -527.7414819140792588
    Molecular point group: c1
  Basis Set: CC-PVTZ
  Basis Set:
  Basis Set: CC-PVTZ
  Basis Set:
  @DF-RHF Final Energy:  -527.74194565605148
    Total Energy =                       -527.7419456560511435
  Basis Set: CC-PVTZ
  Basis Set:
  Basis Set: CC-PVTZ
  Basis Set:
  @DF-RHF Final Energy:  -527.74203502131240
    Total Energy =                       -527.7420350213126312
  Basis Set: CC-PVTZ
  Basis Set:
  Basis Set: CC-PVTZ
  Basis Set:
  @DF-RHF Final Energy:  -527.74204474987039
    Total Energy =                       -527.7420447498705016
  Basis Set: CC-PVTZ
  Basis Set:
  Charge       = 0
  Multiplicity = 1
  Basis Set: CC-PVTZ
  Basis Set:

    Orbital Energies (a.u.)
    -----------------------

    Doubly Occupied:

       1A    -26.342070     2A    -26.340327     3A    -26.338056
       4A    -20.604012     5A    -11.497854     6A    -11.320218
       7A    -11.298635     8A    -11.213836     9A     -1.750512
      10A     -1.647101    11A     -1.645277    12A     -1.444616
      13A     -1.088168    14A     -1.020630    15A     -0.932284
      16A     -0.843913    17A     -0.839636    18A     -0.827122
      19A     -0.798478    20A     -0.728660    21A     -0.719142
      22A     -0.704005    23A     -0.681777    24A     -0.668270
      25A     -0.661563    26A     -0.650928    27A     -0.640735
      28A     -0.588079    29A     -0.566399    30A     -0.528943
      31A     -0.518525    32A     -0.356618

  @DF-RHF Final Energy:  -527.74204539930668

   => Energetics <=

    Nuclear Repulsion Energy =            413.6064701346978154
    One-Electron Energy =               -1551.0842554075593398
    Two-Electron Energy =                 609.7357398735551897
    DFT Exchange-Correlation Energy =       0.0000000000000000
    Empirical Dispersion Energy =           0.0000000000000000
    PCM Polarization Energy =               0.0000000000000000
    EFP Energy =                            0.0000000000000000
    Total Energy =                       -527.7420453993064484
    Molecular point group: c1
  Basis Set: CC-PVTZ
  Basis Set:

  -Total Gradient:
     Atom            X                  Y                   Z
    ------   -----------------  -----------------  -----------------
       1        0.000009735895     0.000015855153     0.000007601792
       2       -0.000012750701     0.000004240789    -0.000003178630
       3       -0.000005446517    -0.000090877139    -0.000027169875
       4        0.000001110379     0.000000328626     0.000001973160
       5        0.000008069127     0.000016377011     0.000014431301
       6        0.000001445223     0.000024760785     0.000009490795
       7        0.000530030634    -0.000488642465    -0.000016989516
       8        0.000427669701    -0.000450294479    -0.000119933989
       9       -0.000522039237     0.000523791051     0.000039102192
      10       -0.000044494427    -0.000007713825     0.000004967931
      11       -0.000391926845     0.000409954147     0.000026341024
      12       -0.000040532222     0.000034143181     0.000073555665
      13        0.000039128996     0.000008077159    -0.000010191849

  **** Optimization is complete! (in 5 steps) ****
    Final optimized geometry and variables:
    Molecular point group: c1

    Geometry (in Angstrom), charge = 0, multiplicity = 1:

    H           -3.934707863727     0.938379690653    -0.402974889792
    C           -3.237292352510     0.339996978407     0.146457482054
    C           -2.100703440847    -0.000130177400    -0.410329455474
    H           -3.488589117564     0.035524897192     1.143437015107
    O           -1.189447972193    -0.772980573777     0.223492766424
    H           -1.835242395048     0.307287330531    -1.405421324690
    C            0.031794536838    -0.995371065143    -0.387204633255
    C            1.056674205484     0.050553567986     0.001798261112
    H           -0.045302822865    -0.998497683978    -1.467879736733
    H            0.401678496974    -1.954420869312    -0.057811398301
    F            1.217087678123     0.125337121633     1.300375711589
    F            2.221021555170    -0.252608696049    -0.535168458903
    F            0.719675284669     1.248838178312    -0.427053324827

  Mulliken Charges: (a.u.)
   Center  Symbol    Alpha    Beta     Spin     Total
       1     H     0.42515  0.42515  0.00000  0.14969
       2     C     3.19745  3.19745  0.00000 -0.39490
       3     C     2.95903  2.95903  0.00000  0.08194
       4     H     0.42473  0.42473  0.00000  0.15054
       5     O     4.14438  4.14438  0.00000 -0.28875
       6     H     0.43444  0.43444  0.00000  0.13112
       7     C     3.01890  3.01890  0.00000 -0.03780
       8     C     2.67578  2.67578  0.00000  0.64843
       9     H     0.45529  0.45529  0.00000  0.08941
      10     H     0.43504  0.43504  0.00000  0.12992
      11     F     4.60649  4.60649  0.00000 -0.21298
      12     F     4.61230  4.61230  0.00000 -0.22461
      13     F     4.61101  4.61101  0.00000 -0.22203

   Total alpha = 32.00000, Total beta = 32.00000, Total charge = -0.00000
