  ==> Input File <==

--------------------------------------------------------------------------
set {
	reference rhf
	basis 6-31G*
}

set_num_threads( 4 )
memory 2 gb

molecule MOL {
0 1

O	 1.633274	 3.283468	 1.786934
C	 0.948141	 3.134990	 2.751976
C	 -0.327857	 2.312944	 2.720257
C	 1.311544	 3.763130	 4.081839
C	 -0.643232	 1.706786	 1.355946
H	 -0.241347	 1.534154	 3.476822
H	 -1.144038	 2.951406	 3.055843
C	 -1.934231	 0.886402	 1.363157
H	 0.188471	 1.083674	 1.042686
H	 -0.715477	 2.502482	 0.621237
C	 -2.259874	 0.272531	 0.000494
H	 -1.856267	 0.092453	 2.104516
H	 -2.763878	 1.516895	 1.679750
C	 -3.549786	 -0.549746	 -0.000374
H	 -1.431492	 -0.358513	 -0.316659
H	 -2.338905	 1.065366	 -0.741236
C	 -4.809590	 0.315458	 -0.000369
H	 -3.560515	 -1.202009	 -0.871156
H	 -3.561123	 -1.202955	 0.869711
H	 -4.844746	 0.956611	 -0.876632
H	 -5.706986	 -0.295590	 -0.001609
H	 -4.845960	 0.954827	 0.877144
H	 1.429292	 2.997450	 4.843079
H	 2.233713	 4.318713	 3.983019
H	 0.520914	 4.429326	 4.414589

	symmetry c1
}
set optking {
	frozen_dihedral = ("
		15 11 14 18
	")
}

ee = optimize('scf')
oeprop('DIPOLE', 'QUADRUPOLE', 'MULLIKEN_CHARGES')
f=open( 'psi4out.xyz', 'w' )
f.write( "25  " )
f.write( str(ee) + "\n" )
f.write( MOL.save_string_xyz() )
f.close()
--------------------------------------------------------------------------

    Molecular point group: c1
  Charge       = 0
  Multiplicity = 1
  Basis Set: 6-31G*
  Basis Set:
  @DF-RHF Final Energy:  -387.13438066748239
    Total Energy =                       -387.1343806674824464
    Molecular point group: c1
  Basis Set: 6-31G*
  Basis Set:
  Basis Set: 6-31G*
  Basis Set:
  @DF-RHF Final Energy:  -387.13457336265083
    Total Energy =                       -387.1345733626502579
  Basis Set: 6-31G*
  Basis Set:
  Basis Set: 6-31G*
  Basis Set:
  @DF-RHF Final Energy:  -387.13460148817558
    Total Energy =                       -387.1346014881756901
  Basis Set: 6-31G*
  Basis Set:
  Basis Set: 6-31G*
  Basis Set:
  @DF-RHF Final Energy:  -387.13446848428771
    Total Energy =                       -387.1344684842874813
  Basis Set: 6-31G*
  Basis Set:
  Basis Set: 6-31G*
  Basis Set:
  @DF-RHF Final Energy:  -387.13460655981982
    Total Energy =                       -387.1346065598197583
  Basis Set: 6-31G*
  Basis Set:
  Charge       = 0
  Multiplicity = 1
  Basis Set: 6-31G*
  Basis Set:

    Orbital Energies (a.u.)
    -----------------------

    Doubly Occupied:

       1A    -20.550490     2A    -11.326334     3A    -11.231936
       4A    -11.228371     5A    -11.217044     6A    -11.216440
       7A    -11.215606     8A    -11.213675     9A    -11.208993
      10A     -1.395796    11A     -1.093496    12A     -1.055638
      13A     -1.013729    14A     -0.967596    15A     -0.894783
      16A     -0.821969    17A     -0.781769    18A     -0.729654
      19A     -0.658012    20A     -0.653043    21A     -0.625021
      22A     -0.619056    23A     -0.610399    24A     -0.589460
      25A     -0.567765    26A     -0.556734    27A     -0.540183
      28A     -0.521680    29A     -0.515277    30A     -0.492804
      31A     -0.487630    32A     -0.477069    33A     -0.462177
      34A     -0.455820    35A     -0.450998    36A     -0.399518

  @DF-RHF Final Energy:  -387.13460654695388

   => Energetics <=

    Nuclear Repulsion Energy =            441.9953861928875654
    One-Electron Energy =               -1400.5680561628901160
    Two-Electron Energy =                 571.4380634230483338
    DFT Exchange-Correlation Energy =       0.0000000000000000
    Empirical Dispersion Energy =           0.0000000000000000
    PCM Polarization Energy =               0.0000000000000000
    EFP Energy =                            0.0000000000000000
    Total Energy =                       -387.1346065469542737
    Molecular point group: c1
  Basis Set: 6-31G*
  Basis Set:

  -Total Gradient:
     Atom            X                  Y                   Z
    ------   -----------------  -----------------  -----------------
       1       -0.000023251618     0.000035364305    -0.000012159367
       2        0.000064007620    -0.000102312486     0.000042361740
       3       -0.000021441726     0.000060401298    -0.000009852523
       4       -0.000017390189     0.000035289175    -0.000010075153
       5       -0.000004098729    -0.000005880315     0.000005784033
       6        0.000009677889     0.000005953336    -0.000008079349
       7       -0.000009149942    -0.000002169896     0.000007104836
       8        0.000033812486    -0.000037697776    -0.000007900712
       9       -0.000005367477    -0.000000993498     0.000012287172
      10        0.000000648146    -0.000011275262    -0.000010115700
      11        0.000455824224    -0.000806492042     0.002165391982
      12        0.000001785960    -0.000008449242    -0.000003504297
      13        0.000015452127    -0.000009961481    -0.000003282800
      14       -0.000993014861     0.001620941477    -0.001425547139
      15       -0.000250565565     0.000467728182    -0.001599923005
      16        0.000011085414     0.000015453374    -0.000009453343
      17       -0.000007323006    -0.000021656477    -0.000038301789
      18        0.000733662989    -0.001222592485     0.000897747141
      19       -0.000006463830    -0.000002801448     0.000011200750
      20        0.000008491921     0.000007308300     0.000010897609
      21       -0.000014404339     0.000001419486    -0.000009956361
      22        0.000018539760    -0.000020000629    -0.000004813779
      23       -0.000001652404    -0.000002310066    -0.000006892276
      24        0.000000293498     0.000001599629     0.000000991044
      25        0.000000841649     0.000003134539     0.000006091286

  **** Optimization is complete! (in 6 steps) ****
    Final optimized geometry and variables:
    Molecular point group: c1

    Geometry (in Angstrom), charge = 0, multiplicity = 1:

    O            2.723184207383     1.583080079245     0.222837737852
    C            2.037640823928     1.445660318681     1.189211486111
    C            0.754332154353     0.634836373904     1.162808415519
    C            2.407198382781     2.078332392245     2.515225608104
    C            0.433020508024     0.023529988552    -0.197845507630
    H            0.834301015011    -0.140269590218     1.923861243082
    H           -0.055891442789     1.282581473625     1.495049527376
    C           -0.865750765561    -0.784850214881    -0.185800659172
    H            1.258854720520    -0.609037524829    -0.507663050932
    H            0.367945971024     0.815537596343    -0.937176821486
    C           -1.189613479256    -1.403731331249    -1.547588957487
    H           -0.793248888203    -1.578089591079     0.556988450392
    H           -1.684480302063    -0.143370056890     0.132950490239
    C           -2.481278019720    -2.231372996890    -1.577567929945
    H           -0.358770371330    -2.032828997401    -1.858931808448
    H           -1.255566435455    -0.613794761429    -2.294297218565
    C           -3.763061227190    -1.397439783197    -1.580994845270
    H           -2.469126862300    -2.870367977285    -2.456801981653
    H           -2.492858335498    -2.906915283343    -0.724105238825
    H           -3.793339796915    -0.734147050857    -2.440941617632
    H           -4.640760392154    -2.035042739439    -1.624935035495
    H           -3.849783120343    -0.785440903222    -0.688795558049
    H            2.519143920991     1.316032764099     3.280720450229
    H            3.333889377321     2.625634516385     2.412636742197
    H            1.622385307465     2.752973102328     2.844737996636

  Mulliken Charges: (a.u.)
   Center  Symbol    Alpha    Beta     Spin     Total
       1     O     4.26113  4.26113  0.00000 -0.52226
       2     C     2.73573  2.73573  0.00000  0.52855
       3     C     3.21079  3.21079  0.00000 -0.42158
       4     C     3.28665  3.28665  0.00000 -0.57330
       5     C     3.14791  3.14791  0.00000 -0.29583
       6     H     0.40999  0.40999  0.00000  0.18003
       7     H     0.41010  0.41010  0.00000  0.17981
       8     C     3.15489  3.15489  0.00000 -0.30978
       9     H     0.41219  0.41219  0.00000  0.17563
      10     H     0.41206  0.41206  0.00000  0.17588
      11     C     3.15340  3.15340  0.00000 -0.30680
      12     H     0.42494  0.42494  0.00000  0.15012
      13     H     0.42346  0.42346  0.00000  0.15308
      14     C     3.15356  3.15356  0.00000 -0.30711
      15     H     0.42034  0.42034  0.00000  0.15932
      16     H     0.42267  0.42267  0.00000  0.15466
      17     C     3.24028  3.24028  0.00000 -0.48057
      18     H     0.42004  0.42004  0.00000  0.15991
      19     H     0.42389  0.42389  0.00000  0.15223
      20     H     0.42136  0.42136  0.00000  0.15727
      21     H     0.41926  0.41926  0.00000  0.16148
      22     H     0.42148  0.42148  0.00000  0.15704
      23     H     0.40874  0.40874  0.00000  0.18252
      24     H     0.39645  0.39645  0.00000  0.20711
      25     H     0.40869  0.40869  0.00000  0.18261

   Total alpha = 36.00000, Total beta = 36.00000, Total charge =  0.00000
