  ==> Input File <==

--------------------------------------------------------------------------
set {
	reference rhf
	basis cc-pvtz
}

set_num_threads( 4 )
memory 2 gb

molecule MOL {
0 1

O	 1.847685	 1.294399	 -0.000190
C	 1.704209	 0.119472	 -0.000093
C	 0.380337	 -0.600947	 -0.000234
O	 2.715427	 -0.733672	 0.000025
C	 -0.824290	 0.329213	 -0.000115
H	 0.371455	 -1.255476	 -0.865660
H	 0.371410	 -1.255787	 0.864952
C	 -2.146151	 -0.432825	 -0.000068
H	 -0.773936	 0.979158	 -0.866319
H	 -0.773838	 0.979034	 0.866186
C	 -3.366283	 0.483552	 0.000557
H	 -2.189286	 -1.084450	 -0.869996
H	 -2.188867	 -1.085083	 0.869399
C	 -4.433365	 0.060971	 -1.003522
H	 -3.050349	 1.500264	 -0.215404
H	 -3.797376	 0.504802	 0.997486
H	 -4.041886	 0.063181	 -2.015437
H	 -5.284302	 0.731759	 -0.977369
H	 -4.795110	 -0.939999	 -0.792727
C	 4.020999	 -0.192556	 0.000019
H	 4.182809	 0.412891	 -0.879449
H	 4.692590	 -1.035653	 0.000152
H	 4.182726	 0.413087	 0.879368

	symmetry c1
}
set optking {
	frozen_dihedral = ("
		15 11 8 12
	")
}

ee = optimize('scf')
oeprop('DIPOLE', 'QUADRUPOLE', 'MULLIKEN_CHARGES')
f=open( 'psi4out.xyz', 'w' )
f.write( "23  " )
f.write( str(ee) + "\n" )
f.write( MOL.save_string_xyz() )
f.close()
--------------------------------------------------------------------------

    Molecular point group: c1
  Charge       = 0
  Multiplicity = 1
  Basis Set: CC-PVTZ
  Basis Set:
  @DF-RHF Final Energy:  -423.12605831474360
    Total Energy =                       -423.1260583147437728
    Molecular point group: c1
  Basis Set: CC-PVTZ
  Basis Set:
  Basis Set: CC-PVTZ
  Basis Set:
  @DF-RHF Final Energy:  -423.12632691487340
    Total Energy =                       -423.1263269148729478
  Basis Set: CC-PVTZ
  Basis Set:
  Basis Set: CC-PVTZ
  Basis Set:
  @DF-RHF Final Energy:  -423.12638566538010
    Total Energy =                       -423.1263856653802122
  Basis Set: CC-PVTZ
  Basis Set:
  Basis Set: CC-PVTZ
  Basis Set:
  @DF-RHF Final Energy:  -423.12629991475183
    Total Energy =                       -423.1262999147522805
  Basis Set: CC-PVTZ
  Basis Set:
  Basis Set: CC-PVTZ
  Basis Set:
  @DF-RHF Final Energy:  -423.12638807715211
    Total Energy =                       -423.1263880771521144
  Basis Set: CC-PVTZ
  Basis Set:
  Charge       = 0
  Multiplicity = 1
  Basis Set: CC-PVTZ
  Basis Set:

    Orbital Energies (a.u.)
    -----------------------

    Doubly Occupied:

       1A    -20.596335     2A    -20.534146     3A    -11.364628
       4A    -11.278497     5A    -11.233673     6A    -11.217783
       7A    -11.215530     8A    -11.214202     9A    -11.208190
      10A     -1.472235    11A     -1.365812    12A     -1.093253
      13A     -1.043494    14A     -0.988115    15A     -0.932568
      16A     -0.845471    17A     -0.795752    18A     -0.769570
      19A     -0.699159    20A     -0.686644    21A     -0.675715
      22A     -0.646701    23A     -0.611519    24A     -0.600606
      25A     -0.576765    26A     -0.566650    27A     -0.548208
      28A     -0.526421    29A     -0.523194    30A     -0.505524
      31A     -0.491678    32A     -0.470485    33A     -0.462740
      34A     -0.461493    35A     -0.455964    36A     -0.438282

  @DF-RHF Final Energy:  -423.12638822003777

   => Energetics <=

    Nuclear Repulsion Energy =            453.2188207400527631
    One-Electron Energy =               -1474.4564144634475724
    Two-Electron Energy =                 598.1112055033569277
    DFT Exchange-Correlation Energy =       0.0000000000000000
    Empirical Dispersion Energy =           0.0000000000000000
    PCM Polarization Energy =               0.0000000000000000
    EFP Energy =                            0.0000000000000000
    Total Energy =                       -423.1263882200379385
    Molecular point group: c1
  Basis Set: CC-PVTZ
  Basis Set:

  -Total Gradient:
     Atom            X                  Y                   Z
    ------   -----------------  -----------------  -----------------
       1       -0.000001113952    -0.000000917422    -0.000007168679
       2        0.000003899939    -0.000003665389     0.000016683322
       3       -0.000004652231    -0.000002937750    -0.000006732822
       4        0.000006991289    -0.000000277936    -0.000004043126
       5        0.000009157360     0.000009194381     0.000002870442
       6        0.000001475923    -0.000000209309    -0.000000201974
       7        0.000001046344     0.000003174416    -0.000002788373
       8        0.002129804344     0.002907200494    -0.001428728104
       9       -0.000009860835    -0.000003484811     0.000003748912
      10       -0.000007766614    -0.000005535837    -0.000001079420
      11       -0.000964946686    -0.001202735571    -0.003577278764
      12       -0.001632407175    -0.002248306579     0.001778364605
      13        0.000004712856     0.000007509644     0.000001875624
      14       -0.000016186722    -0.000003277363    -0.000008505419
      15        0.000467204492     0.000539495488     0.003221445601
      16       -0.000004032172    -0.000006701471    -0.000005613678
      17        0.000006494786     0.000003126161     0.000009936500
      18       -0.000000719234     0.000004074403     0.000004985081
      19        0.000009430562     0.000004941802     0.000002773165
      20        0.000001240727    -0.000000574708    -0.000000383112
      21        0.000000220003    -0.000000010645    -0.000000007295
      22        0.000000184056     0.000000040691    -0.000000079106
      23       -0.000000177058    -0.000000122686    -0.000000073383

  **** Optimization is complete! (in 6 steps) ****
    Final optimized geometry and variables:
    Molecular point group: c1

    Geometry (in Angstrom), charge = 0, multiplicity = 1:

    O            1.828002397104     1.253707225462     0.113318932096
    C            1.683168845919     0.078939405172     0.118613442063
    C            0.358480531716    -0.639835958729     0.108920305912
    O            2.693373041399    -0.775289136852     0.134085756978
    C           -0.844440322342     0.291797336518     0.090656651149
    H            0.357435143286    -1.299454636046    -0.752743591445
    H            0.339542789741    -1.289497324050     0.977807546020
    C           -2.167678584000    -0.466560575381     0.074694287857
    H           -0.783263800255     0.940079103953    -0.776096210676
    H           -0.805936027601     0.943893651868     0.956172927686
    C           -3.403952396203     0.451044728266     0.100397725768
    H           -2.213011156464    -1.117923798360    -0.794128162457
    H           -2.202894767081    -1.137262472666     0.929184751252
    C           -4.509451717599     0.019131573448    -0.856030955996
    H           -3.105416245292     1.472102402176    -0.115005647867
    H           -3.803169508458     0.482499681632     1.109385341973
    H           -4.163925965955     0.035226964396    -1.884363635584
    H           -5.370092530638     0.674279932639    -0.784293020554
    H           -4.842629823021    -0.990087833190    -0.636763063650
    C            3.999434956541    -0.235634619206     0.144583412137
    H            4.171140766774     0.364662744054    -0.736553084487
    H            4.670067060771    -1.079430736644     0.156430002094
    H            4.152819423673     0.374797559582     1.022128735831

  Mulliken Charges: (a.u.)
   Center  Symbol    Alpha    Beta     Spin     Total
       1     O     4.19697  4.19697  0.00000 -0.39393
       2     C     2.80631  2.80631  0.00000  0.38739
       3     C     3.10255  3.10255  0.00000 -0.20510
       4     O     4.14649  4.14649  0.00000 -0.29298
       5     C     3.08388  3.08388  0.00000 -0.16776
       6     H     0.43977  0.43977  0.00000  0.12046
       7     H     0.44009  0.44009  0.00000  0.11981
       8     C     3.09445  3.09445  0.00000 -0.18889
       9     H     0.44610  0.44610  0.00000  0.10779
      10     H     0.44513  0.44513  0.00000  0.10973
      11     C     3.08755  3.08755  0.00000 -0.17510
      12     H     0.45508  0.45508  0.00000  0.08984
      13     H     0.45337  0.45337  0.00000  0.09326
      14     C     3.14771  3.14771  0.00000 -0.29543
      15     H     0.45182  0.45182  0.00000  0.09636
      16     H     0.45200  0.45200  0.00000  0.09599
      17     H     0.45532  0.45532  0.00000  0.08935
      18     H     0.44891  0.44891  0.00000  0.10218
      19     H     0.45476  0.45476  0.00000  0.09048
      20     C     3.03769  3.03769  0.00000 -0.07538
      21     H     0.45435  0.45435  0.00000  0.09131
      22     H     0.44534  0.44534  0.00000  0.10933
      23     H     0.45436  0.45436  0.00000  0.09128

   Total alpha = 36.00000, Total beta = 36.00000, Total charge = -0.00000
