  ==> Input File <==

--------------------------------------------------------------------------
set {
	reference rhf
	basis 6-31G*
}

set_num_threads( 4 )
memory 2 gb

molecule MOL {
0 1

H	 -1.836216	 1.387520	 -0.000064
C	 -1.301823	 0.443321	 -0.000031
O	 -0.003969	 0.658512	 0.000451
O	 -1.829879	 -0.616434	 -0.000857
C	 0.850537	 -0.484732	 0.000380
C	 0.566290	 -1.263889	 -1.265494
H	 0.648981	 -1.070615	 0.886627
H	 1.878481	 -0.152181	 0.045484
H	 -0.469525	 -1.581869	 -1.297272
H	 1.197719	 -2.145362	 -1.304687
H	 0.765879	 -0.659116	 -2.142593

	symmetry c1
}
set optking {
	frozen_dihedral = ("
		7 5 3 2
	")
}

ee = optimize('scf')
oeprop('DIPOLE', 'QUADRUPOLE', 'MULLIKEN_CHARGES')
f=open( 'psi4out.xyz', 'w' )
f.write( "11  " )
f.write( str(ee) + "\n" )
f.write( MOL.save_string_xyz() )
f.close()
--------------------------------------------------------------------------

    Molecular point group: c1
  Charge       = 0
  Multiplicity = 1
  Basis Set: 6-31G*
  Basis Set:
  @DF-RHF Final Energy:  -266.82052706593561
    Total Energy =                       -266.8205270659356074
    Molecular point group: c1
  Basis Set: 6-31G*
  Basis Set:
  Basis Set: 6-31G*
  Basis Set:
  @DF-RHF Final Energy:  -266.82611910242679
    Total Energy =                       -266.8261191024267305
  Basis Set: 6-31G*
  Basis Set:
  Basis Set: 6-31G*
  Basis Set:
  @DF-RHF Final Energy:  -266.82686813730584
    Total Energy =                       -266.8268681373057234
  Basis Set: 6-31G*
  Basis Set:
  Basis Set: 6-31G*
  Basis Set:
  @DF-RHF Final Energy:  -266.82683655976155
    Total Energy =                       -266.8268365597613752
  Basis Set: 6-31G*
  Basis Set:
  Basis Set: 6-31G*
  Basis Set:
  @DF-RHF Final Energy:  -266.82670106736407
    Total Energy =                       -266.8267010673640129
  Basis Set: 6-31G*
  Basis Set:
  Basis Set: 6-31G*
  Basis Set:
  @DF-RHF Final Energy:  -266.82691027015801
    Total Energy =                       -266.8269102701581232
  Basis Set: 6-31G*
  Basis Set:
  Charge       = 0
  Multiplicity = 1
  Basis Set: 6-31G*
  Basis Set:

    Orbital Energies (a.u.)
    -----------------------

    Doubly Occupied:

       1A    -20.612568     2A    -20.556895     3A    -11.379109
       4A    -11.293397     5A    -11.221738     6A     -1.474916
       7A     -1.374151     8A     -1.047956     9A     -0.914389
      10A     -0.796062    11A     -0.740006    12A     -0.683567
      13A     -0.654896    14A     -0.624301    15A     -0.575825
      16A     -0.543029    17A     -0.532485    18A     -0.501551
      19A     -0.458927    20A     -0.451109

  @DF-RHF Final Energy:  -266.82691105127265

   => Energetics <=

    Nuclear Repulsion Energy =            182.7352615710340444
    One-Electron Energy =                -726.2505908443754379
    Two-Electron Energy =                 276.6884182220688331
    DFT Exchange-Correlation Energy =       0.0000000000000000
    Empirical Dispersion Energy =           0.0000000000000000
    PCM Polarization Energy =               0.0000000000000000
    EFP Energy =                            0.0000000000000000
    Total Energy =                       -266.8269110512725888
    Molecular point group: c1
  Basis Set: 6-31G*
  Basis Set:

  -Total Gradient:
     Atom            X                  Y                   Z
    ------   -----------------  -----------------  -----------------
       1        0.000001128117    -0.000006958240    -0.000000799134
       2       -0.000111446872     0.000045282563    -0.003421192392
       3        0.000865815734     0.000436002683     0.005422011728
       4       -0.000016183577    -0.000016905213    -0.000012951871
       5       -0.003512178818    -0.002393055671    -0.003828595379
       6       -0.000029219407     0.000000055818     0.000004667925
       7        0.002802352569     0.001915409122     0.001850533771
       8       -0.000011696917     0.000001244356    -0.000001384603
       9        0.000016851802     0.000004005264     0.000003085614
      10       -0.000008762928     0.000014600081     0.000003195793
      11        0.000003340297     0.000000319236    -0.000018571454

  **** Optimization is complete! (in 7 steps) ****
    Final optimized geometry and variables:
    Molecular point group: c1

    Geometry (in Angstrom), charge = 0, multiplicity = 1:

    H           -1.425897068869     1.737070571765     0.260805807182
    C           -0.956102519560     0.759485784137     0.290780674512
    O            0.351667364596     0.891467130860     0.240049754785
    O           -1.557411914860    -0.257467089028     0.374277120223
    C            1.167374901269    -0.281537298677     0.194075643203
    C            1.004054206009    -1.081774987574    -1.085122879057
    H            0.982016273121    -0.870411336145     1.082042729404
    H            2.171829957256     0.109909250030     0.263994922727
    H            0.023688442901    -1.530009196710    -1.155666240163
    H            1.747341050913    -1.872776725733    -1.104429588219
    H            1.166376869932    -0.446164594234    -1.949289832889

  Mulliken Charges: (a.u.)
   Center  Symbol    Alpha    Beta     Spin     Total
       1     H     0.41104  0.41104  0.00000  0.17791
       2     C     2.72637  2.72637  0.00000  0.54726
       3     O     4.29329  4.29329  0.00000 -0.58658
       4     O     4.26427  4.26427  0.00000 -0.52855
       5     C     3.00477  3.00477  0.00000 -0.00954
       6     C     3.26189  3.26189  0.00000 -0.52379
       7     H     0.40700  0.40700  0.00000  0.18600
       8     H     0.40762  0.40762  0.00000  0.18476
       9     H     0.39418  0.39418  0.00000  0.21165
      10     H     0.41600  0.41600  0.00000  0.16801
      11     H     0.41356  0.41356  0.00000  0.17287

   Total alpha = 20.00000, Total beta = 20.00000, Total charge =  0.00000
