                              Psi4 1.0.54 Driver

  ==> Input File <==

--------------------------------------------------------------------------
set {
	reference rhf
	basis cc-pvtz
}

set_num_threads( 4 )
memory 2 gb

molecule MOL {
0 1

O	 2.868453	 1.353349	 -0.000734
C	 2.841259	 0.166180	 -0.000295
C	 1.542794	 -0.614730	 -0.000853
C	 4.113372	 -0.651103	 0.000743
C	 0.288398	 0.247429	 0.000314
H	 1.557171	 -1.273139	 -0.866508
H	 1.557484	 -1.274998	 0.863344
C	 -0.993089	 -0.581367	 -0.000217
H	 0.305153	 0.900562	 -0.864701
H	 0.305567	 0.898805	 0.866656
C	 -2.258482	 0.271340	 0.000669
H	 -1.002280	 -1.233920	 -0.870484
H	 -1.002061	 -1.235367	 0.868958
C	 -3.475117	 -0.447995	 0.576077
H	 -2.477525	 0.588571	 -1.015942
H	 -2.077692	 1.180323	 0.569168
C	 -4.735651	 0.410396	 0.573523
H	 -3.657296	 -1.356116	 0.007687
H	 -3.257529	 -0.764332	 1.592691
H	 -4.999784	 0.714547	 -0.433833
H	 -5.579616	 -0.129229	 0.987708
H	 -4.597158	 1.310555	 1.163081
H	 4.145311	 -1.294584	 -0.871587
H	 4.970080	 0.004978	 -0.000091
H	 4.145223	 -1.291980	 0.874988

	symmetry c1
}
set optking {
	frozen_dihedral = ("
		15 11 8 12
	")
}

ee,wfn = optimize('scf', return_wfn=True)
oeprop( wfn, 'DIPOLE', 'QUADRUPOLE', 'MULLIKEN_CHARGES')
f=open( 'psi4out.xyz', 'w' )
f.write( "25  " )
f.write( str(ee) + "\n" )
f.write( MOL.save_string_xyz() )
f.close()
--------------------------------------------------------------------------

    Molecular point group: c1
  Charge       = 0
  Multiplicity = 1
  Basis Set: CC-PVTZ
  Basis Set:
  @DF-RHF Final Energy:  -387.27273373621546
    Total Energy =                       -387.2727337362155140
    Molecular point group: c1
  Basis Set: CC-PVTZ
  Basis Set:
  Basis Set: CC-PVTZ
  Basis Set:
  @DF-RHF Final Energy:  -387.27286701400880
    Total Energy =                       -387.2728670140088525
  Basis Set: CC-PVTZ
  Basis Set:
  Basis Set: CC-PVTZ
  Basis Set:
  @DF-RHF Final Energy:  -387.27297007211121
    Total Energy =                       -387.2729700721109793
  Basis Set: CC-PVTZ
  Basis Set:
  Basis Set: CC-PVTZ
  Basis Set:
  @DF-RHF Final Energy:  -387.27234531468855
    Total Energy =                       -387.2723453146891188
  Basis Set: CC-PVTZ
  Basis Set:
  Basis Set: CC-PVTZ
  Basis Set:
  @DF-RHF Final Energy:  -387.27298420931385
    Total Energy =                       -387.2729842093139041
  Basis Set: CC-PVTZ
  Basis Set:
  Basis Set: CC-PVTZ
  Basis Set:
  @DF-RHF Final Energy:  -387.27298739248795
    Total Energy =                       -387.2729873924882895
  Basis Set: CC-PVTZ
  Basis Set:
  Charge       = 0
  Multiplicity = 1
  Basis Set: CC-PVTZ
  Basis Set:

    Orbital Energies (a.u.)
    -----------------------

    Doubly Occupied:

       1A    -20.538824     2A    -11.320459     3A    -11.230016
       4A    -11.226532     5A    -11.215223     6A    -11.214580
       7A    -11.213428     8A    -11.211542     9A    -11.206282
      10A     -1.398891    11A     -1.094698    12A     -1.057456
      13A     -1.015441    14A     -0.969706    15A     -0.891568
      16A     -0.814800    17A     -0.790930    18A     -0.731075
      19A     -0.661847    20A     -0.654203    21A     -0.634245
      22A     -0.625939    23A     -0.598348    24A     -0.584390
      25A     -0.567203    26A     -0.561150    27A     -0.540422
      28A     -0.528388    29A     -0.513100    30A     -0.492479
      31A     -0.488347    32A     -0.475382    33A     -0.463831
      34A     -0.461685    35A     -0.451363    36A     -0.401246

  @DF-RHF Final Energy:  -387.27298759852641

   => Energetics <=

    Nuclear Repulsion Energy =            439.2296652352972046
    One-Electron Energy =               -1395.3152723724699626
    Two-Electron Energy =                 568.8126195386466861
    DFT Exchange-Correlation Energy =       0.0000000000000000
    Empirical Dispersion Energy =           0.0000000000000000
    PCM Polarization Energy =               0.0000000000000000
    EFP Energy =                            0.0000000000000000
    Total Energy =                       -387.2729875985260151
    Molecular point group: c1
  Basis Set: CC-PVTZ
  Basis Set:

  -Total Gradient:
     Atom            X                  Y                   Z
    ------   -----------------  -----------------  -----------------
       1       -0.000003615090    -0.000055430445    -0.000000736793
       2        0.000023464301     0.000015290810     0.000003815563
       3        0.000026874020     0.000020273579     0.000005726789
       4       -0.000008144505    -0.000001982879    -0.000003912461
       5       -0.000011541654    -0.000004200879    -0.000025919384
       6       -0.000000216493     0.000004331603     0.000004229689
       7        0.000001232441    -0.000005253954     0.000000836580
       8       -0.002691160279    -0.003911823129     0.002318393768
       9        0.000004612244     0.000003656595    -0.000000709683
      10       -0.000009372676    -0.000007474605    -0.000008636776
      11        0.002970580129     0.004369958166     0.000225488431
      12        0.001811893600     0.002599688158    -0.001957203916
      13        0.000004642075    -0.000004871968    -0.000009378094
      14        0.000002332207    -0.000007907942    -0.000038738482
      15       -0.002080214882    -0.003051944741    -0.000517499014
      16       -0.000002116336     0.000008107214    -0.000006200246
      17       -0.000012372987     0.000011530830     0.000015290581
      18       -0.000000373354    -0.000013547274    -0.000004969024
      19        0.000007678769     0.000003741672    -0.000005241338
      20       -0.000000057634    -0.000004946618    -0.000003604730
      21        0.000000743791     0.000002662639     0.000004404939
      22       -0.000003238064     0.000008507298     0.000000978636
      23       -0.000002297367     0.000011633170     0.000026472782
      24       -0.000027717873    -0.000005617881     0.000001668361
      25       -0.000001614378     0.000015620589    -0.000024556178

  **** Optimization is complete! (in 7 steps) ****
    Final optimized geometry and variables:
    Molecular point group: c1

    Geometry (in Angstrom), charge = 0, multiplicity = 1:

    O            2.862172767603     1.326934242453    -0.127824614280
    C            2.831726985171     0.140094862350    -0.147902943639
    C            1.531506148009    -0.637830710406    -0.130056126342
    C            4.101186176470    -0.680073770748    -0.193029550491
    C            0.279631983317     0.226548470708    -0.084478199940
    H            1.523839288200    -1.282304155081    -1.006180014842
    H            1.565178743970    -1.312127885064     0.722871492865
    C           -1.005168143970    -0.599708458339    -0.056483503383
    H            0.272704784739     0.888867132670    -0.943091797008
    H            0.322497358515     0.869034695561     0.787398713621
    C           -2.268104012151     0.264790754074    -0.077076764142
    H           -1.008843564540    -1.254380570374    -0.924240643417
    H           -1.006277486351    -1.236080784218     0.824342072611
    C           -3.504427173230    -0.465413040781     0.444622670102
    H           -2.468356679981     0.578029545904    -1.098069888793
    H           -2.110999787833     1.165612558088     0.508922472182
    C           -4.775909880675     0.372238993594     0.361305577399
    H           -3.641636543151    -1.385559215036    -0.117723999982
    H           -3.335915835737    -0.762402203048     1.476152361914
    H           -4.995604105246     0.649834110063    -0.664273110330
    H           -5.631002824747    -0.171170796919     0.746797818522
    H           -4.679331204489     1.287496770328     0.935974480596
    H            4.109658531083    -1.307699138502    -1.077307512256
    H            4.959507521756    -0.026179734582    -0.203301548646
    H            4.152747749689    -1.336661020712     0.668476411760

  Mulliken Charges: (a.u.)
   Center  Symbol    Alpha    Beta     Spin     Total
       1     O     4.17067  4.17067  0.00000 -0.34133
       2     C     2.86209  2.86209  0.00000  0.27581
       3     C     3.11460  3.11460  0.00000 -0.22920
       4     C     3.15134  3.15134  0.00000 -0.30268
       5     C     3.08309  3.08309  0.00000 -0.16618
       6     H     0.44549  0.44549  0.00000  0.10902
       7     H     0.44543  0.44543  0.00000  0.10914
       8     C     3.09125  3.09125  0.00000 -0.18250
       9     H     0.44560  0.44560  0.00000  0.10880
      10     H     0.44651  0.44651  0.00000  0.10699
      11     C     3.08732  3.08732  0.00000 -0.17465
      12     H     0.45527  0.45527  0.00000  0.08947
      13     H     0.45549  0.45549  0.00000  0.08902
      14     C     3.08420  3.08420  0.00000 -0.16840
      15     H     0.45385  0.45385  0.00000  0.09230
      16     H     0.45256  0.45256  0.00000  0.09488
      17     C     3.15035  3.15035  0.00000 -0.30069
      18     H     0.45505  0.45505  0.00000  0.08989
      19     H     0.45531  0.45531  0.00000  0.08939
      20     H     0.45510  0.45510  0.00000  0.08981
      21     H     0.44871  0.44871  0.00000  0.10258
      22     H     0.45456  0.45456  0.00000  0.09089
      23     H     0.45042  0.45042  0.00000  0.09916
      24     H     0.43535  0.43535  0.00000  0.12929
      25     H     0.45039  0.45039  0.00000  0.09921

   Total alpha = 36.00000, Total beta = 36.00000, Total charge =  0.00000

*** Psi4 exiting successfully. Buy a developer a beer!
