  ==> Input File <==

--------------------------------------------------------------------------
set {
	reference rhf
	basis 6-31G*
}

set_num_threads( 4 )
memory 2 gb

molecule MOL {
0 1

H	 1.940372	 -1.201121	 -0.179776
C	 1.951159	 -0.223429	 0.317018
C	 0.692068	 0.589600	 0.160137
O	 2.910557	 0.126676	 0.924564
C	 -0.558097	 -0.297372	 0.091132
H	 0.791645	 1.202255	 -0.728243
H	 0.616171	 1.253469	 1.020572
C	 -1.850991	 0.512573	 -0.019058
H	 -0.476753	 -0.965681	 -0.762987
H	 -0.604799	 -0.930658	 0.975228
C	 -3.096943	 -0.368295	 -0.099594
H	 -1.800724	 1.150330	 -0.898172
H	 -1.931651	 1.177355	 0.838044
H	 -3.060452	 -1.020287	 -0.967456
H	 -3.996858	 0.233488	 -0.175704
H	 -3.191959	 -0.995686	 0.782074

	symmetry c1
}
set optking {
	frozen_dihedral = ("
		4 2 3 6
	")
}

ee = optimize('scf')
oeprop('DIPOLE', 'QUADRUPOLE', 'MULLIKEN_CHARGES')
f=open( 'psi4out.xyz', 'w' )
f.write( "16  " )
f.write( str(ee) + "\n" )
f.write( MOL.save_string_xyz() )
f.close()
--------------------------------------------------------------------------

    Molecular point group: c1
  Charge       = 0
  Multiplicity = 1
  Basis Set: 6-31G*
  Basis Set:
  @DF-RHF Final Energy:  -270.01904282737257
    Total Energy =                       -270.0190428273725729
    Molecular point group: c1
  Basis Set: 6-31G*
  Basis Set:
  Basis Set: 6-31G*
  Basis Set:
  @DF-RHF Final Energy:  -270.01902959524324
    Total Energy =                       -270.0190295952431825
  Basis Set: 6-31G*
  Basis Set:
  Basis Set: 6-31G*
  Basis Set:
  @DF-RHF Final Energy:  -270.01870712448903
    Total Energy =                       -270.0187071244892536
  Basis Set: 6-31G*
  Basis Set:
  Basis Set: 6-31G*
  Basis Set:
  @DF-RHF Final Energy:  -270.01946775948124
    Total Energy =                       -270.0194677594813584
  Basis Set: 6-31G*
  Basis Set:
  Basis Set: 6-31G*
  Basis Set:
  @DF-RHF Final Energy:  -270.01935836839675
    Total Energy =                       -270.0193583683967518
  Basis Set: 6-31G*
  Basis Set:
  Basis Set: 6-31G*
  Basis Set:
  @DF-RHF Final Energy:  -270.01947667777307
    Total Energy =                       -270.0194766777731274
  Basis Set: 6-31G*
  Basis Set:
  Charge       = 0
  Multiplicity = 1
  Basis Set: 6-31G*
  Basis Set:

    Orbital Energies (a.u.)
    -----------------------

    Doubly Occupied:

       1A    -20.561926     2A    -11.327199     3A    -11.235841
       4A    -11.235228     5A    -11.229426     6A    -11.218665
       7A     -1.402337     8A     -1.096778     9A     -1.018801
      10A     -0.905411    11A     -0.812093    12A     -0.795892
      13A     -0.671955    14A     -0.651560    15A     -0.630927
      16A     -0.602498    17A     -0.586946    18A     -0.546469
      19A     -0.532340    20A     -0.501475    21A     -0.488407
      22A     -0.484918    23A     -0.478173    24A     -0.409295

  @DF-RHF Final Energy:  -270.01947709680240

   => Energetics <=

    Nuclear Repulsion Energy =            228.2544424878552149
    One-Electron Energy =                -817.6987175981616929
    Two-Electron Energy =                 319.4247980135041871
    DFT Exchange-Correlation Energy =       0.0000000000000000
    Empirical Dispersion Energy =           0.0000000000000000
    PCM Polarization Energy =               0.0000000000000000
    EFP Energy =                            0.0000000000000000
    Total Energy =                       -270.0194770968023477
    Molecular point group: c1
  Basis Set: 6-31G*
  Basis Set:

  -Total Gradient:
     Atom            X                  Y                   Z
    ------   -----------------  -----------------  -----------------
       1       -0.000029020321     0.000009792067    -0.000002663161
       2       -0.000381131239    -0.000414059149     0.001206124056
       3       -0.000271845892    -0.000623072453    -0.000987221831
       4        0.000297702909     0.000404026831    -0.000745523644
       5        0.000007951683     0.000002368675     0.000036989241
       6        0.000361107964     0.000606984290     0.000478807539
       7       -0.000008426155     0.000000256734     0.000051760793
       8        0.000016990870     0.000005434415    -0.000042171499
       9        0.000035981961     0.000024930978    -0.000015235446
      10       -0.000021859041    -0.000015906045    -0.000020181673
      11       -0.000004442012    -0.000001009479     0.000055215176
      12       -0.000012448870    -0.000016992724    -0.000014686060
      13        0.000011439483     0.000017227253    -0.000015769507
      14        0.000005443695     0.000018179378    -0.000001038927
      15       -0.000001731232     0.000000414593     0.000016092946
      16       -0.000005713812    -0.000018575365    -0.000000498003

  **** Optimization is complete! (in 7 steps) ****
    Final optimized geometry and variables:
    Molecular point group: c1

    Geometry (in Angstrom), charge = 0, multiplicity = 1:

    H            1.967639347277    -1.231942863240    -0.461616955951
    C            1.958122726696    -0.273958098370     0.071855459705
    C            0.677488276164     0.519179285868    -0.029618126664
    O            2.924956752032     0.091767227171     0.657731978658
    C           -0.573231665192    -0.357358431815    -0.121343515867
    H            0.761723990584     1.143631697460    -0.918786589205
    H            0.634497896651     1.191654801870     0.820252200525
    C           -1.859843126908     0.457853987444    -0.258926038082
    H           -0.482532425056    -1.031500218725    -0.971130787586
    H           -0.639775984163    -0.987470757870     0.763500888954
    C           -3.110638415182    -0.416126272051    -0.336938227811
    H           -1.796466055104     1.080577887386    -1.148545663871
    H           -1.945546087793     1.138120358087     0.585039495251
    H           -3.070497790536    -1.083516350998    -1.193030461638
    H           -4.005816592929     0.189976136935    -0.431902292100
    H           -3.218137799771    -1.027588981343     0.554293859438

  Mulliken Charges: (a.u.)
   Center  Symbol    Alpha    Beta     Spin     Total
       1     H     0.43082  0.43082  0.00000  0.13835
       2     C     2.83045  2.83045  0.00000  0.33910
       3     C     3.20929  3.20929  0.00000 -0.41858
       4     O     4.23943  4.23943  0.00000 -0.47886
       5     C     3.16377  3.16377  0.00000 -0.32755
       6     H     0.40396  0.40396  0.00000  0.19207
       7     H     0.39856  0.39856  0.00000  0.20289
       8     C     3.15181  3.15181  0.00000 -0.30363
       9     H     0.41966  0.41966  0.00000  0.16068
      10     H     0.41595  0.41595  0.00000  0.16809
      11     C     3.24029  3.24029  0.00000 -0.48058
      12     H     0.42057  0.42057  0.00000  0.15886
      13     H     0.41882  0.41882  0.00000  0.16235
      14     H     0.42051  0.42051  0.00000  0.15899
      15     H     0.41636  0.41636  0.00000  0.16729
      16     H     0.41973  0.41973  0.00000  0.16053

   Total alpha = 24.00000, Total beta = 24.00000, Total charge = -0.00000
