  ==> Input File <==

--------------------------------------------------------------------------
set {
	reference rhf
	basis cc-pvtz
}

set_num_threads( 4 )
memory 2 gb

molecule MOL {
0 1

H	 -2.123894	 -0.667238	 -0.609809
O	 -2.041679	 -0.058866	 0.103463
C	 -0.959304	 0.780994	 -0.094939
C	 0.354905	 0.037902	 -0.006215
H	 -0.985899	 1.279578	 -1.057596
H	 -0.969809	 1.529522	 0.682889
F	 1.376532	 0.869701	 -0.107112
F	 0.455311	 -0.576847	 1.153785
F	 0.487580	 -0.862044	 -0.950919

	symmetry c1
}
set optking {
	frozen_dihedral = ("
		7 4 3 5
	")
}

ee = optimize('scf')
oeprop('DIPOLE', 'QUADRUPOLE', 'MULLIKEN_CHARGES')
f=open( 'psi4out.xyz', 'w' )
f.write( "9  " )
f.write( str(ee) + "\n" )
f.write( MOL.save_string_xyz() )
f.close()
--------------------------------------------------------------------------

    Molecular point group: c1
  Charge       = 0
  Multiplicity = 1
  Basis Set: CC-PVTZ
  Basis Set:
  @DF-RHF Final Energy:  -450.84673318763890
    Total Energy =                       -450.8467331876389608
    Molecular point group: c1
  Basis Set: CC-PVTZ
  Basis Set:
  Basis Set: CC-PVTZ
  Basis Set:
  @DF-RHF Final Energy:  -450.84704387915525
    Total Energy =                       -450.8470438791551942
  Basis Set: CC-PVTZ
  Basis Set:
  Basis Set: CC-PVTZ
  Basis Set:
  @DF-RHF Final Energy:  -450.84708785633524
    Total Energy =                       -450.8470878563351789
  Basis Set: CC-PVTZ
  Basis Set:
  Basis Set: CC-PVTZ
  Basis Set:
  @DF-RHF Final Energy:  -450.84709278995274
    Total Energy =                       -450.8470927899525122
  Basis Set: CC-PVTZ
  Basis Set:
  Charge       = 0
  Multiplicity = 1
  Basis Set: CC-PVTZ
  Basis Set:

    Orbital Energies (a.u.)
    -----------------------

    Doubly Occupied:

       1A    -26.339723     2A    -26.339163     3A    -26.334808
       4A    -20.583632     5A    -11.493330     6A    -11.310158
       7A     -1.747470     8A     -1.644887     9A     -1.642139
      10A     -1.406973    11A     -1.050381    12A     -0.929576
      13A     -0.837724    14A     -0.835832    15A     -0.810537
      16A     -0.732782    17A     -0.718806    18A     -0.703313
      19A     -0.671819    20A     -0.665105    21A     -0.648885
      22A     -0.633132    23A     -0.618165    24A     -0.534689
      25A     -0.484582

  @DF-RHF Final Energy:  -450.84709358182789

   => Energetics <=

    Nuclear Repulsion Energy =            277.6772272842059124
    One-Electron Energy =               -1177.6134188582691422
    Two-Electron Energy =                 449.0890979922352244
    DFT Exchange-Correlation Energy =       0.0000000000000000
    Empirical Dispersion Energy =           0.0000000000000000
    PCM Polarization Energy =               0.0000000000000000
    EFP Energy =                            0.0000000000000000
    Total Energy =                       -450.8470935818280623
    Molecular point group: c1
  Basis Set: CC-PVTZ
  Basis Set:

  -Total Gradient:
     Atom            X                  Y                   Z
    ------   -----------------  -----------------  -----------------
       1       -0.000015318608    -0.000009731336    -0.000006471497
       2       -0.000015544709    -0.000007446767    -0.000002768533
       3        0.000896783101     0.001756320917     0.001276690452
       4       -0.000170985263    -0.000544674681    -0.001999193475
       5       -0.000724005481    -0.001382966466    -0.000678308679
       6       -0.000004456628    -0.000009030443    -0.000014278172
       7        0.000025473657     0.000202911452     0.001401491098
       8        0.000004131410    -0.000017403264    -0.000020663951
       9        0.000003922518     0.000012020588     0.000043502761

  **** Optimization is complete! (in 5 steps) ****
    Final optimized geometry and variables:
    Molecular point group: c1

    Geometry (in Angstrom), charge = 0, multiplicity = 1:

    H           -2.130896161799    -0.658967742793    -0.635089837645
    O           -2.042223017195    -0.060530598700     0.085697526271
    C           -0.958584113541     0.780265485178    -0.108086078683
    C            0.354804368054     0.037298354107    -0.005084083746
    H           -0.981657210713     1.263087336073    -1.078786677165
    H           -0.977232917091     1.534661732125     0.663366411261
    F            1.364117943567     0.875410410833    -0.118398228611
    F            0.484755245035    -0.591585642451     1.138510056449
    F            0.468812577895    -0.862720875679    -0.965052057825

  Mulliken Charges: (a.u.)
   Center  Symbol    Alpha    Beta     Spin     Total
       1     H     0.38701  0.38701  0.00000  0.22598
       2     O     4.19229  4.19229  0.00000 -0.38457
       3     C     2.99070  2.99070  0.00000  0.01861
       4     C     2.68480  2.68480  0.00000  0.63041
       5     H     0.46163  0.46163  0.00000  0.07675
       6     H     0.44683  0.44683  0.00000  0.10634
       7     F     4.61235  4.61235  0.00000 -0.22470
       8     F     4.60730  4.60730  0.00000 -0.21461
       9     F     4.61710  4.61710  0.00000 -0.23420

   Total alpha = 25.00000, Total beta = 25.00000, Total charge = -0.00000
