                              Psi4 1.0.54 Driver

  ==> Input File <==

--------------------------------------------------------------------------
set {
	reference rhf
	basis cc-pvtz
}

set_num_threads( 4 )
memory 2 gb

molecule MOL {
0 1

H	 -3.162190	 0.493205	 -0.000107
C	 -2.363908	 -0.234727	 0.000005
O	 -1.158738	 0.454634	 -0.000087
H	 -2.464314	 -0.863616	 -0.882153
H	 -2.464327	 -0.863359	 0.882345
C	 -0.449668	 0.376255	 -1.196495
C	 0.837602	 1.165190	 -1.066455
H	 -1.051882	 0.772034	 -2.014624
H	 -0.229891	 -0.665022	 -1.433315
C	 1.674314	 1.128442	 -2.340391
H	 0.590519	 2.189756	 -0.811232
H	 1.405989	 0.764090	 -0.234584
H	 1.132555	 1.548123	 -3.181492
H	 2.586778	 1.699314	 -2.219820
H	 1.953722	 0.112975	 -2.600824

	symmetry c1
}
set optking {
	frozen_dihedral = ("
		6 3 2 4
	")
}

ee,wfn = optimize('scf', return_wfn=True)
oeprop( wfn, 'DIPOLE', 'QUADRUPOLE', 'MULLIKEN_CHARGES')
f=open( 'psi4out.xyz', 'w' )
f.write( "15  " )
f.write( str(ee) + "\n" )
f.write( MOL.save_string_xyz() )
f.close()
--------------------------------------------------------------------------

    Molecular point group: c1
  Charge       = 0
  Multiplicity = 1
  Basis Set: CC-PVTZ
  Basis Set:
  @DF-RHF Final Energy:  -232.22420777311777
    Total Energy =                       -232.2242077731175982
    Molecular point group: c1
  Basis Set: CC-PVTZ
  Basis Set:
  Basis Set: CC-PVTZ
  Basis Set:
  @DF-RHF Final Energy:  -232.22468807884641
    Total Energy =                       -232.2246880788463841
  Basis Set: CC-PVTZ
  Basis Set:
  Basis Set: CC-PVTZ
  Basis Set:
  @DF-RHF Final Energy:  -232.22481026021299
    Total Energy =                       -232.2248102602130189
  Basis Set: CC-PVTZ
  Basis Set:
  Charge       = 0
  Multiplicity = 1
  Basis Set: CC-PVTZ
  Basis Set:

    Orbital Energies (a.u.)
    -----------------------

    Doubly Occupied:

       1A    -20.544102     2A    -11.264877     3A    -11.261292
       4A    -11.212233     5A    -11.210459     6A     -1.377080
       7A     -1.058037     8A     -0.956102     9A     -0.877409
      10A     -0.809212    11A     -0.673279    12A     -0.653955
      13A     -0.631696    14A     -0.608303    15A     -0.563708
      16A     -0.545405    17A     -0.502933    18A     -0.489588
      19A     -0.479169    20A     -0.462041    21A     -0.411231

  @DF-RHF Final Energy:  -232.22481114843774

   => Energetics <=

    Nuclear Repulsion Energy =            189.6848844172867246
    One-Electron Energy =                -690.6351679307347240
    Two-Electron Energy =                 268.7254723650103188
    DFT Exchange-Correlation Energy =       0.0000000000000000
    Empirical Dispersion Energy =           0.0000000000000000
    PCM Polarization Energy =               0.0000000000000000
    EFP Energy =                            0.0000000000000000
    Total Energy =                       -232.2248111484376523
    Molecular point group: c1
  Basis Set: CC-PVTZ
  Basis Set:

  -Total Gradient:
     Atom            X                  Y                   Z
    ------   -----------------  -----------------  -----------------
       1       -0.000019174094    -0.000012351605     0.000008903991
       2        0.001036268108    -0.001654873622     0.001105547291
       3       -0.001077402811     0.001579731713    -0.000772487227
       4       -0.000571119104     0.001051479278    -0.000719840268
       5        0.000027171390    -0.000005802842    -0.000005980027
       6        0.000615152247    -0.000989962171     0.000381401553
       7       -0.000023866651     0.000002784375     0.000002627803
       8       -0.000007010890     0.000003157176     0.000056091192
       9       -0.000006059939     0.000002026735    -0.000019877979
      10        0.000022822593     0.000021070957    -0.000017117520
      11        0.000011540501     0.000005169154     0.000000404180
      12       -0.000019671092    -0.000004454623    -0.000007477289
      13        0.000004131392    -0.000002626864    -0.000002512535
      14        0.000009341794     0.000002009049    -0.000014638274
      15       -0.000002123448     0.000002643293     0.000004955107

  **** Optimization is complete! (in 4 steps) ****
    Final optimized geometry and variables:
    Molecular point group: c1

    Geometry (in Angstrom), charge = 0, multiplicity = 1:

    H           -2.898650558903    -0.128488286245     0.892303681100
    C           -2.061003534996    -0.818795672768     0.896846238667
    O           -0.856545268488    -0.117298153990     0.884413061268
    H           -2.160570882885    -1.469206558399     0.033739843798
    H           -2.116077736726    -1.422794170758     1.793967386800
    C           -0.114498025767    -0.194158441303    -0.293330134481
    C            1.153071151010     0.620497060265    -0.132762366051
    H           -0.696901226965     0.184724160620    -1.133096776904
    H            0.133243927247    -1.232003518341    -0.513829440284
    C            2.028877982476     0.586544844789    -1.380451630379
    H            0.879513699189     1.642839941662     0.103928336466
    H            1.702924323536     0.238718209296     0.720452854426
    H            1.505234662325     0.986937284111    -2.242239547003
    H            2.926473786062     1.176018848014    -1.238812386118
    H            2.335206170083    -0.426109161802    -1.621074080471

  Mulliken Charges: (a.u.)
   Center  Symbol    Alpha    Beta     Spin     Total
       1     H     0.46049  0.46049  0.00000  0.07902
       2     C     3.02908  3.02908  0.00000 -0.05815
       3     O     4.17642  4.17642  0.00000 -0.35285
       4     H     0.47340  0.47340  0.00000  0.05321
       5     H     0.45534  0.45534  0.00000  0.08931
       6     C     2.95535  2.95535  0.00000  0.08931
       7     C     3.08210  3.08210  0.00000 -0.16419
       8     H     0.47610  0.47610  0.00000  0.04780
       9     H     0.47540  0.47540  0.00000  0.04919
      10     C     3.15592  3.15592  0.00000 -0.31184
      11     H     0.45112  0.45112  0.00000  0.09776
      12     H     0.45124  0.45124  0.00000  0.09753
      13     H     0.45585  0.45585  0.00000  0.08830
      14     H     0.44629  0.44629  0.00000  0.10742
      15     H     0.45590  0.45590  0.00000  0.08820

   Total alpha = 21.00000, Total beta = 21.00000, Total charge =  0.00000

*** Psi4 exiting successfully. Buy a developer a beer!
