  ==> Input File <==

--------------------------------------------------------------------------
set {
	reference rhf
	basis 6-31G*
}

set_num_threads( 1 )
memory 2 gb

molecule MOL {
0 1

H	 1.169217	 1.339402	 -3.894864
O	 2.098795	 1.175518	 -3.830845
C	 2.628754	 1.876098	 -2.734311
C	 2.239333	 1.271750	 -1.389751
H	 3.703978	 1.839797	 -2.853681
H	 2.334505	 2.924268	 -2.773522
C	 0.737219	 1.316359	 -1.099011
H	 2.586198	 0.242076	 -1.361069
H	 2.774966	 1.808853	 -0.608736
C	 0.384847	 0.751958	 0.280157
H	 0.208338	 0.757189	 -1.865809
H	 0.386335	 2.346428	 -1.163657
C	 -1.097916	 0.851182	 0.656864
H	 0.700581	 -0.288434	 0.332532
H	 0.966893	 1.283007	 1.030431
C	 -2.037799	 -0.007733	 -0.193645
H	 -1.206309	 0.556242	 1.698534
H	 -1.413360	 1.892098	 0.603710
C	 -3.489788	 0.042957	 0.286558
H	 -1.691690	 -1.040266	 -0.179695
H	 -2.000159	 0.312212	 -1.232163
C	 -4.216917	 1.317354	 -0.141063
H	 -4.025645	 -0.823308	 -0.095450
H	 -3.513059	 -0.038752	 1.371301
H	 -4.239342	 1.411634	 -1.223113
H	 -5.243387	 1.322503	 0.212445
H	 -3.726170	 2.201406	 0.256408

	symmetry c1
}
set optking {
	frozen_dihedral = ("
		14 10 7 4,
		14 10 13 16,
		10 7 4 8,
		8 4 3 2,
		10 13 16 20,
		4 3 2 1
	")
}

ee = energy('scf')
oeprop('DIPOLE', 'QUADRUPOLE', 'MULLIKEN_CHARGES')
f=open( 'psi4out.xyz', 'w' )
f.write( "27  " )
f.write( str(ee) + "\n" )
f.write( MOL.save_string_xyz() )
f.close()
--------------------------------------------------------------------------

    Molecular point group: c1

    Geometry (in Angstrom), charge = 0, multiplicity = 1:

       Center              X                  Y                   Z               Mass
    ------------   -----------------  -----------------  -----------------  -----------------
           H          1.453389091108     0.370959710828    -2.933385220914     1.007825032070
           O          2.382967091108     0.207075710828    -2.869366220914    15.994914619560
           C          2.912926091108     0.907655710828    -1.772832220914    12.000000000000
           C          2.523505091108     0.303307710828    -0.428272220914    12.000000000000
           H          3.988150091108     0.871354710828    -1.892202220914     1.007825032070
           H          2.618677091108     1.955825710828    -1.812043220914     1.007825032070
           C          1.021391091108     0.347916710828    -0.137532220914    12.000000000000
           H          2.870370091108    -0.726366289172    -0.399590220914     1.007825032070
           H          3.059138091108     0.840410710828     0.352742779086     1.007825032070
           C          0.669019091108    -0.216484289172     1.241635779086    12.000000000000
           H          0.492510091108    -0.211253289172    -0.904330220914     1.007825032070
           H          0.670507091108     1.377985710828    -0.202178220914     1.007825032070
           C         -0.813743908892    -0.117260289172     1.618342779086    12.000000000000
           H          0.984753091108    -1.256876289172     1.294010779086     1.007825032070
           H          1.251065091108     0.314564710828     1.991909779086     1.007825032070
           C         -1.753626908892    -0.976175289172     0.767833779086    12.000000000000
           H         -0.922136908892    -0.412200289172     2.660012779086     1.007825032070
           H         -1.129187908892     0.923655710828     1.565188779086     1.007825032070
           C         -3.205615908892    -0.925485289172     1.248036779086    12.000000000000
           H         -1.407517908892    -2.008708289172     0.781783779086     1.007825032070
           H         -1.715986908892    -0.656230289172    -0.270684220914     1.007825032070
           C         -3.932744908892     0.348911710828     0.820415779086    12.000000000000
           H         -3.741472908892    -1.791750289172     0.866028779086     1.007825032070
           H         -3.228886908892    -1.007194289172     2.332779779086     1.007825032070
           H         -3.955169908892     0.443191710828    -0.261634220914     1.007825032070
           H         -4.959214908892     0.354060710828     1.173923779086     1.007825032070
           H         -3.441997908892     1.232963710828     1.217886779086     1.007825032070

  Charge       = 0
  Multiplicity = 1
  Basis Set: 6-31G*
  Basis Set:

    Orbital Energies (a.u.)
    -----------------------

    Doubly Occupied:

       1A    -20.552276     2A    -11.267044     3A    -11.219791
       4A    -11.217250     5A    -11.215758     6A    -11.215500
       7A    -11.215191     8A    -11.213961     9A    -11.209581
      10A     -1.359020    11A     -1.095853    12A     -1.061989
      13A     -1.009929    14A     -0.946906    15A     -0.891431
      16A     -0.826076    17A     -0.800261    18A     -0.772322
      19A     -0.693670    20A     -0.650202    21A     -0.625911
      22A     -0.615867    23A     -0.613997    24A     -0.589477
      25A     -0.579842    26A     -0.554216    27A     -0.534890
      28A     -0.526020    29A     -0.514313    30A     -0.492312
      31A     -0.485836    32A     -0.476672    33A     -0.470498
      34A     -0.454870    35A     -0.451059    36A     -0.441960
      37A     -0.422859

  @DF-RHF Final Energy:  -388.27946033607873

   => Energetics <=

    Nuclear Repulsion Energy =            463.6914701997649217
    One-Electron Energy =               -1445.3726605626129640
    Two-Electron Energy =                 593.4017300267699966
    DFT Exchange-Correlation Energy =       0.0000000000000000
    Empirical Dispersion Energy =           0.0000000000000000
    PCM Polarization Energy =               0.0000000000000000
    EFP Energy =                            0.0000000000000000
    Total Energy =                       -388.2794603360780457

  Mulliken Charges: (a.u.)
   Center  Symbol    Alpha    Beta     Spin     Total
       1     H     0.27991  0.27991  0.00000  0.44018
       2     O     4.37095  4.37095  0.00000 -0.74190
       3     C     2.99737  2.99737  0.00000  0.00526
       4     C     3.16095  3.16095  0.00000 -0.32189
       5     H     0.41445  0.41445  0.00000  0.17111
       6     H     0.43204  0.43204  0.00000  0.13592
       7     C     3.16329  3.16329  0.00000 -0.32659
       8     H     0.41496  0.41496  0.00000  0.17008
       9     H     0.42434  0.42434  0.00000  0.15132
      10     C     3.15162  3.15162  0.00000 -0.30324
      11     H     0.42290  0.42290  0.00000  0.15421
      12     H     0.42547  0.42547  0.00000  0.14907
      13     C     3.15501  3.15501  0.00000 -0.31002
      14     H     0.42163  0.42163  0.00000  0.15674
      15     H     0.42159  0.42159  0.00000  0.15682
      16     C     3.15494  3.15494  0.00000 -0.30989
      17     H     0.42111  0.42111  0.00000  0.15778
      18     H     0.42314  0.42314  0.00000  0.15372
      19     C     3.15336  3.15336  0.00000 -0.30672
      20     H     0.42142  0.42142  0.00000  0.15716
      21     H     0.42357  0.42357  0.00000  0.15285
      22     C     3.24063  3.24063  0.00000 -0.48126
      23     H     0.42027  0.42027  0.00000  0.15947
      24     H     0.42270  0.42270  0.00000  0.15460
      25     H     0.42237  0.42237  0.00000  0.15527
      26     H     0.41897  0.41897  0.00000  0.16205
      27     H     0.42105  0.42105  0.00000  0.15790

   Total alpha = 37.00000, Total beta = 37.00000, Total charge =  0.00000
