  ==> Input File <==

--------------------------------------------------------------------------
set {
	reference rhf
	basis 6-31G*
}

set_num_threads( 4 )
memory 2 gb

molecule MOL {
0 1

H	 -1.805692	 1.093629	 0.299860
N	 -1.852125	 0.165761	 -0.074816
C	 -0.563778	 -0.502042	 0.037919
H	 -2.118615	 0.254924	 -1.036995
C	 0.575259	 0.508231	 -0.048326
H	 -0.482092	 -1.204004	 -0.786564
H	 -0.460411	 -1.085169	 0.956626
C	 1.954651	 -0.143624	 0.035137
H	 0.475158	 1.060484	 -0.977307
H	 0.469181	 1.234488	 0.755973
H	 2.103292	 -0.853109	 -0.774172
H	 2.742821	 0.599562	 -0.030094
H	 2.083613	 -0.679371	 0.971560

	symmetry c1
}
set optking {
	frozen_dihedral = ("
		1 2 3 6
	")
}

ee = optimize('scf')
oeprop('DIPOLE', 'QUADRUPOLE', 'MULLIKEN_CHARGES')
f=open( 'psi4out.xyz', 'w' )
f.write( "13  " )
f.write( str(ee) + "\n" )
f.write( MOL.save_string_xyz() )
f.close()
--------------------------------------------------------------------------

    Molecular point group: c1
  Charge       = 0
  Multiplicity = 1
  Basis Set: 6-31G*
  Basis Set:
  @DF-RHF Final Energy:  -173.27868548559860
    Total Energy =                       -173.2786854855986007
    Molecular point group: c1
  Basis Set: 6-31G*
  Basis Set:
  Basis Set: 6-31G*
  Basis Set:
  @DF-RHF Final Energy:  -173.28000610048454
    Total Energy =                       -173.2800061004845134
  Basis Set: 6-31G*
  Basis Set:
  Basis Set: 6-31G*
  Basis Set:
  @DF-RHF Final Energy:  -173.28021082915413
    Total Energy =                       -173.2802108291540435
  Basis Set: 6-31G*
  Basis Set:
  Basis Set: 6-31G*
  Basis Set:
  @DF-RHF Final Energy:  -173.28021363082570
    Total Energy =                       -173.2802136308257275
  Basis Set: 6-31G*
  Basis Set:
  Charge       = 0
  Multiplicity = 1
  Basis Set: 6-31G*
  Basis Set:

    Orbital Energies (a.u.)
    -----------------------

    Doubly Occupied:

       1A    -15.532543     2A    -11.240456     3A    -11.217936
       4A    -11.212962     5A     -1.176719     6A     -1.038057
       7A     -0.900072     8A     -0.807971     9A     -0.672554
      10A     -0.611900    11A     -0.605960    12A     -0.559020
      13A     -0.534314    14A     -0.507960    15A     -0.486386
      16A     -0.472014    17A     -0.378079

  @DF-RHF Final Energy:  -173.28021378907877

   => Energetics <=

    Nuclear Repulsion Energy =            131.6005749732374568
    One-Electron Energy =                -493.8517694140948038
    Two-Electron Energy =                 188.9709806517786319
    DFT Exchange-Correlation Energy =       0.0000000000000000
    Empirical Dispersion Energy =           0.0000000000000000
    PCM Polarization Energy =               0.0000000000000000
    EFP Energy =                            0.0000000000000000
    Total Energy =                       -173.2802137890787435
    Molecular point group: c1
  Basis Set: 6-31G*
  Basis Set:

  -Total Gradient:
     Atom            X                  Y                   Z
    ------   -----------------  -----------------  -----------------
       1        0.000753457251     0.001302414983    -0.003300880377
       2       -0.000652671607    -0.001037867490     0.003685625485
       3       -0.001336028204    -0.002635047732     0.001539178928
       4        0.000004402934    -0.000000250312    -0.000002066037
       5       -0.000038547966    -0.000028318654    -0.000010223666
       6        0.001227204226     0.002392173764    -0.001925386789
       7        0.000016104642    -0.000000520424     0.000006538032
       8        0.000011031214     0.000010070202     0.000010729230
       9       -0.000002880719    -0.000003433677     0.000002366918
      10        0.000000001003     0.000005587146    -0.000005247079
      11       -0.000002278528     0.000004467921     0.000000574355
      12        0.000018888182    -0.000006259898     0.000004620248
      13        0.000001317573    -0.000003015831    -0.000005829248

  **** Optimization is complete! (in 5 steps) ****
    Final optimized geometry and variables:
    Molecular point group: c1

    Geometry (in Angstrom), charge = 0, multiplicity = 1:

    H           -1.886686226868     1.047450815344     0.334055017140
    N           -1.899238948755     0.114258627881    -0.032069329403
    C           -0.572239158089    -0.489194722975     0.044831249617
    H           -2.184798552373     0.201496306110    -0.987983716500
    C            0.589203425508     0.504713494445    -0.034559398623
    H           -0.476529001256    -1.195175024984    -0.774603634366
    H           -0.496260366341    -1.057878156126     0.967077024991
    C            1.956865489693    -0.170420910359     0.060978292528
    H            0.518191186559     1.061910087757    -0.966783838936
    H            0.489042445510     1.233202364259     0.768590114862
    H            2.102900050421    -0.878287652943    -0.750147222820
    H            2.759646751410     0.558129223004     0.011405978902
    H            2.061132141495    -0.714004128888     0.995609519715

  Mulliken Charges: (a.u.)
   Center  Symbol    Alpha    Beta     Spin     Total
       1     H     0.33442  0.33442  0.00000  0.33117
       2     N     3.92140  3.92140  0.00000 -0.84280
       3     C     3.05503  3.05503  0.00000 -0.11006
       4     H     0.33413  0.33413  0.00000  0.33174
       5     C     3.16219  3.16219  0.00000 -0.32439
       6     H     0.42313  0.42313  0.00000  0.15375
       7     H     0.41887  0.41887  0.00000  0.16226
       8     C     3.24334  3.24334  0.00000 -0.48667
       9     H     0.42506  0.42506  0.00000  0.14988
      10     H     0.42449  0.42449  0.00000  0.15101
      11     H     0.42095  0.42095  0.00000  0.15810
      12     H     0.41750  0.41750  0.00000  0.16500
      13     H     0.41949  0.41949  0.00000  0.16102

   Total alpha = 17.00000, Total beta = 17.00000, Total charge = -0.00000
