  ==> Input File <==

--------------------------------------------------------------------------
set {
	reference rhf
	basis 6-31G*
}

set_num_threads( 4 )
memory 2 gb

molecule MOL {
0 1

O	 -2.042549	 -1.228399	 -0.269030
C	 -1.653912	 -0.146171	 0.050137
C	 -0.332303	 0.024011	 0.778412
C	 -2.438579	 1.106236	 -0.272369
C	 0.845713	 -0.001731	 -0.208243
H	 -0.323783	 0.953829	 1.340327
H	 -0.235459	 -0.796807	 1.480410
C	 2.200309	 0.136118	 0.488247
H	 0.733710	 0.800019	 -0.936072
H	 0.811185	 -0.933796	 -0.764304
C	 2.191303	 1.189392	 1.595379
H	 2.491874	 -0.825280	 0.905534
H	 2.957234	 0.392605	 -0.249212
H	 1.466995	 0.942596	 2.366431
H	 1.934646	 2.168636	 1.202121
H	 3.164701	 1.267491	 2.069112
H	 -3.277823	 0.863061	 -0.908988
H	 -1.806773	 1.843019	 -0.759671
H	 -2.802853	 1.554979	 0.648059

	symmetry c1
}
set optking {
	frozen_dihedral = ("
		11 8 5 9
	")
}

ee = optimize('scf')
oeprop('DIPOLE', 'QUADRUPOLE', 'MULLIKEN_CHARGES')
f=open( 'psi4out.xyz', 'w' )
f.write( "19  " )
f.write( str(ee) + "\n" )
f.write( MOL.save_string_xyz() )
f.close()
--------------------------------------------------------------------------

    Molecular point group: c1
  Charge       = 0
  Multiplicity = 1
  Basis Set: 6-31G*
  Basis Set:
  @DF-RHF Final Energy:  -309.05976022071428
    Total Energy =                       -309.0597602207140540
    Molecular point group: c1
  Basis Set: 6-31G*
  Basis Set:
  Basis Set: 6-31G*
  Basis Set:
  @DF-RHF Final Energy:  -309.06049943865219
    Total Energy =                       -309.0604994386520161
  Basis Set: 6-31G*
  Basis Set:
  Basis Set: 6-31G*
  Basis Set:
  @DF-RHF Final Energy:  -309.06174747872177
    Total Energy =                       -309.0617474787217702
  Basis Set: 6-31G*
  Basis Set:
  Basis Set: 6-31G*
  Basis Set:
  @DF-RHF Final Energy:  -309.06169122011499
    Total Energy =                       -309.0616912201149376
  Basis Set: 6-31G*
  Basis Set:
  @DF-RHF Final Energy:  -309.06136182780267
    Total Energy =                       -309.0613618278025569
  @DF-RHF Final Energy:  -309.06177887738227
    Total Energy =                       -309.0617788773824941
  @DF-RHF Final Energy:  -309.06180030288436
    Total Energy =                       -309.0618003028843646
  Basis Set: 6-31G*
  Basis Set:
  @DF-RHF Final Energy:  -309.06184929108417
    Total Energy =                       -309.0618492910840587
  Basis Set: 6-31G*
  Basis Set:
  Basis Set: 6-31G*
  Basis Set:
  @DF-RHF Final Energy:  -309.06185892674398
    Total Energy =                       -309.0618589267441507
  Basis Set: 6-31G*
  Basis Set:
  Basis Set: 6-31G*
  Basis Set:
  @DF-RHF Final Energy:  -309.06186256915248
    Total Energy =                       -309.0618625691522539
  Basis Set: 6-31G*
  Basis Set:
  Charge       = 0
  Multiplicity = 1
  Basis Set: 6-31G*
  Basis Set:

    Orbital Energies (a.u.)
    -----------------------

    Doubly Occupied:

       1A    -20.547562     2A    -11.324729     3A    -11.230636
       4A    -11.229353     5A    -11.228277     6A    -11.225110
       7A    -11.216475     8A     -1.393373     9A     -1.090638
      10A     -1.027459    11A     -0.981578    12A     -0.902358
      13A     -0.796569    14A     -0.734858    15A     -0.658936
      16A     -0.652015    17A     -0.619732    18A     -0.604142
      19A     -0.594482    20A     -0.569800    21A     -0.552711
      22A     -0.542510    23A     -0.522587    24A     -0.498017
      25A     -0.479818    26A     -0.469884    27A     -0.463586
      28A     -0.397665

  @DF-RHF Final Energy:  -309.06186275836126

   => Energetics <=

    Nuclear Repulsion Energy =            304.9042680689176450
    One-Electron Energy =               -1022.8225418532829281
    Two-Electron Energy =                 408.8564110260039115
    DFT Exchange-Correlation Energy =       0.0000000000000000
    Empirical Dispersion Energy =           0.0000000000000000
    PCM Polarization Energy =               0.0000000000000000
    EFP Energy =                            0.0000000000000000
    Total Energy =                       -309.0618627583613716
    Molecular point group: c1
  Basis Set: 6-31G*
  Basis Set:

  -Total Gradient:
     Atom            X                  Y                   Z
    ------   -----------------  -----------------  -----------------
       1        0.000089478077     0.000007746928    -0.000110314131
       2       -0.000223631342     0.000029582709     0.000313473484
       3        0.000022522309     0.000055146038    -0.000193913895
       4        0.000060255177    -0.000001092439    -0.000102601236
       5       -0.002505049848     0.002172293683     0.005048188134
       6        0.000027504363    -0.000008808751     0.000015713183
       7       -0.000003326127    -0.000000079108    -0.000004695348
       8        0.001724694297     0.002677275761    -0.003906779239
       9        0.001661018764    -0.002730576189    -0.003245348917
      10       -0.000010931977     0.000034978213    -0.000062870272
      11       -0.000825677825    -0.002299805304     0.002165617613
      12       -0.000024518677    -0.000050689608    -0.000032834525
      13        0.000050936299     0.000094256238     0.000096955829
      14        0.000023060857    -0.000011121581    -0.000038525720
      15       -0.000066273625    -0.000006824900     0.000021495202
      16       -0.000000256319     0.000036034520     0.000019001515
      17        0.000000532043    -0.000001093301     0.000004751684
      18        0.000002315509    -0.000001204159     0.000004933179
      19       -0.000002651957     0.000003981252     0.000007753460

  **** Optimization is complete! (in 11 steps) ****
    Final optimized geometry and variables:
    Molecular point group: c1

    Geometry (in Angstrom), charge = 0, multiplicity = 1:

    O           -1.842139830953    -1.424978365809    -0.589832615929
    C           -1.499135373166    -0.324441481658    -0.281402453192
    C           -0.204895227199    -0.093854942592     0.479275564544
    C           -2.315736800484     0.894310245524    -0.650504789844
    C            0.991167120895    -0.088367671723    -0.484949308334
    H           -0.255942566768     0.838512044352     1.031220073540
    H           -0.093622198810    -0.905237633069     1.190838946222
    C            2.369786934605    -0.020017142489     0.190152487024
    H            0.899063754084     0.721171012813    -1.206818727885
    H            0.947774977314    -1.000533126025    -1.072603623537
    C            2.501082206943     1.007036065351     1.316093871560
    H            2.607833024085    -1.001797458250     0.593096538742
    H            3.114441337869     0.182194262641    -0.574274996387
    H            1.874257678656     0.755431846100     2.164598204691
    H            2.225249312798     2.004408050741     0.982602924235
    H            3.525640634732     1.052335562453     1.671266401421
    H           -3.127039946463     0.610730416459    -1.306326177418
    H           -1.694816305862     1.643054823908    -1.133469100767
    H           -2.722323500770     1.347269429902     0.249940023040

  Mulliken Charges: (a.u.)
   Center  Symbol    Alpha    Beta     Spin     Total
       1     O     4.26199  4.26199  0.00000 -0.52398
       2     C     2.73705  2.73705  0.00000  0.52591
       3     C     3.20244  3.20244  0.00000 -0.40487
       4     C     3.28951  3.28951  0.00000 -0.57902
       5     C     3.16456  3.16456  0.00000 -0.32911
       6     H     0.41400  0.41400  0.00000  0.17200
       7     H     0.40143  0.40143  0.00000  0.19714
       8     C     3.15204  3.15204  0.00000 -0.30408
       9     H     0.42072  0.42072  0.00000  0.15855
      10     H     0.40486  0.40486  0.00000  0.19028
      11     C     3.24424  3.24424  0.00000 -0.48847
      12     H     0.41861  0.41861  0.00000  0.16278
      13     H     0.41745  0.41745  0.00000  0.16509
      14     H     0.41896  0.41896  0.00000  0.16208
      15     H     0.42250  0.42250  0.00000  0.15500
      16     H     0.41620  0.41620  0.00000  0.16759
      17     H     0.39699  0.39699  0.00000  0.20601
      18     H     0.40964  0.40964  0.00000  0.18073
      19     H     0.40680  0.40680  0.00000  0.18639

   Total alpha = 28.00000, Total beta = 28.00000, Total charge =  0.00000
