  ==> Input File <==

--------------------------------------------------------------------------
set {
	reference rhf
	basis 6-31G*
}

set_num_threads( 4 )
memory 2 gb

molecule MOL {
0 1

H	 -2.083594	 -1.326210	 -2.348247
N	 -1.176753	 -1.404967	 -1.930620
C	 -1.258646	 -1.249388	 -0.489026
H	 -0.607212	 -0.675556	 -2.313625
C	 0.125474	 -1.333317	 0.119498
H	 -1.716311	 -0.310562	 -0.174146
H	 -1.862410	 -2.057062	 -0.086643
O	 0.874168	 -0.245412	 -0.342030
H	 0.060829	 -1.308810	 1.207091
H	 0.597923	 -2.268136	 -0.173999
C	 2.202317	 -0.244239	 0.074611
H	 2.711377	 -1.041390	 -0.449894
H	 2.692099	 0.699270	 -0.159667
H	 2.283185	 -0.418429	 1.145558

	symmetry c1
}
set optking {
	frozen_dihedral = ("
		5 8 11 13
	")
}

ee = optimize('scf')
oeprop('DIPOLE', 'QUADRUPOLE', 'MULLIKEN_CHARGES')
f=open( 'psi4out.xyz', 'w' )
f.write( "14  " )
f.write( str(ee) + "\n" )
f.write( MOL.save_string_xyz() )
f.close()
--------------------------------------------------------------------------

    Molecular point group: c1
  Charge       = 0
  Multiplicity = 1
  Basis Set: 6-31G*
  Basis Set:
  @DF-RHF Final Energy:  -248.12389690599650
    Total Energy =                       -248.1238969059966166
    Molecular point group: c1
  Basis Set: 6-31G*
  Basis Set:
  Basis Set: 6-31G*
  Basis Set:
  @DF-RHF Final Energy:  -248.12476575526969
    Total Energy =                       -248.1247657552696637
  Basis Set: 6-31G*
  Basis Set:
  Basis Set: 6-31G*
  Basis Set:
  @DF-RHF Final Energy:  -248.12501933349631
    Total Energy =                       -248.1250193334964251
  Basis Set: 6-31G*
  Basis Set:
  Charge       = 0
  Multiplicity = 1
  Basis Set: 6-31G*
  Basis Set:

    Orbital Energies (a.u.)
    -----------------------

    Doubly Occupied:

       1A    -20.557215     2A    -15.528440     3A    -11.266173
       4A    -11.265637     5A    -11.240754     6A     -1.381238
       7A     -1.173562     8A     -0.999018     9A     -0.907201
      10A     -0.815195    11A     -0.683896    12A     -0.673848
      13A     -0.645149    14A     -0.609754    15A     -0.605342
      16A     -0.540725    17A     -0.530697    18A     -0.496542
      19A     -0.472774    20A     -0.417308    21A     -0.380092

  @DF-RHF Final Energy:  -248.12502021368033

   => Energetics <=

    Nuclear Repulsion Energy =            194.6780749869661804
    One-Electron Energy =                -723.2250652367777093
    Two-Electron Energy =                 280.4219700361311425
    DFT Exchange-Correlation Energy =       0.0000000000000000
    Empirical Dispersion Energy =           0.0000000000000000
    PCM Polarization Energy =               0.0000000000000000
    EFP Energy =                            0.0000000000000000
    Total Energy =                       -248.1250202136803864
    Molecular point group: c1
  Basis Set: 6-31G*
  Basis Set:

  -Total Gradient:
     Atom            X                  Y                   Z
    ------   -----------------  -----------------  -----------------
       1        0.000004900382     0.000007078533    -0.000022722347
       2       -0.000016230798    -0.000005298656    -0.000027827279
       3        0.000090192918     0.000071660249    -0.000033627734
       4       -0.000001251970     0.000013233776    -0.000015424988
       5       -0.000242255734     0.000572320821     0.001137602605
       6       -0.000008088634     0.000007608729     0.000007919289
       7        0.000067160365     0.000004473964     0.000027519487
       8        0.000310460287    -0.000731514852    -0.001160076348
       9       -0.000007562920    -0.000015856482     0.000022237980
      10        0.000006740598     0.000029682027    -0.000029594194
      11        0.000364267842    -0.000466166287    -0.001149907791
      12       -0.000043502302    -0.000010460487    -0.000025139493
      13       -0.000479971289     0.000533280920     0.001265923314
      14       -0.000044858753    -0.000010042257     0.000003117499

  **** Optimization is complete! (in 4 steps) ****
    Final optimized geometry and variables:
    Molecular point group: c1

    Geometry (in Angstrom), charge = 0, multiplicity = 1:

    H           -2.252836861055    -0.427780903759    -1.822171092391
    N           -1.345901292809    -0.511271590615    -1.405736698204
    C           -1.425341797992    -0.360691276077     0.036638865977
    H           -0.774282298884     0.217492163514    -1.786876672129
    C           -0.041360812130    -0.453528147823     0.643916930168
    H           -1.878062535040     0.579204371786     0.355497311952
    H           -2.032359389899    -1.166892414280     0.436902884069
    O            0.710841594153     0.633161692683     0.185341646134
    H           -0.103903594112    -0.431572622000     1.731522841533
    H            0.425555960424    -1.390039541511     0.346739749688
    C            2.041020670375     0.626215313771     0.596721016166
    H            2.605011520433    -0.164783086525     0.107466463044
    H            2.469629925321     1.585186794320     0.338897036785
    H            2.121792564071     0.492768994837     1.673996938244

  Mulliken Charges: (a.u.)
   Center  Symbol    Alpha    Beta     Spin     Total
       1     H     0.33283  0.33283  0.00000  0.33435
       2     N     3.92527  3.92527  0.00000 -0.85054
       3     C     3.06891  3.06891  0.00000 -0.13782
       4     H     0.32373  0.32373  0.00000  0.35253
       5     C     2.99021  2.99021  0.00000  0.01957
       6     H     0.42662  0.42662  0.00000  0.14676
       7     H     0.42048  0.42048  0.00000  0.15903
       8     O     4.30988  4.30988  0.00000 -0.61977
       9     H     0.43069  0.43069  0.00000  0.13862
      10     H     0.42277  0.42277  0.00000  0.15446
      11     C     3.07881  3.07881  0.00000 -0.15763
      12     H     0.42632  0.42632  0.00000  0.14736
      13     H     0.41283  0.41283  0.00000  0.17433
      14     H     0.43063  0.43063  0.00000  0.13874

   Total alpha = 21.00000, Total beta = 21.00000, Total charge =  0.00000
