  ==> Input File <==

--------------------------------------------------------------------------
set {
	reference rhf
	basis 6-31G*
}

set_num_threads( 4 )
memory 2 gb

molecule MOL {
0 1

H	 -1.121622	 -0.764840	 -1.073301
O	 -1.422729	 -0.573567	 -0.196946
C	 -0.731407	 0.539437	 0.309156
C	 0.680193	 0.672443	 -0.251532
H	 -1.319765	 1.404033	 0.030086
H	 -0.700012	 0.506517	 1.397677
C	 1.599139	 -0.492137	 0.118598
H	 0.616402	 0.758534	 -1.332349
H	 1.107032	 1.602637	 0.117369
H	 1.239738	 -1.428634	 -0.297334
H	 2.601428	 -0.335055	 -0.265730
H	 1.674954	 -0.608418	 1.197020

	symmetry c1
}
set optking {
	frozen_dihedral = ("
		1 2 3 4
	")
}

ee = optimize('scf')
oeprop('DIPOLE', 'QUADRUPOLE', 'MULLIKEN_CHARGES')
f=open( 'psi4out.xyz', 'w' )
f.write( "12  " )
f.write( str(ee) + "\n" )
f.write( MOL.save_string_xyz() )
f.close()
--------------------------------------------------------------------------

    Molecular point group: c1
  Charge       = 0
  Multiplicity = 1
  Basis Set: 6-31G*
  Basis Set:
  @DF-RHF Final Energy:  -193.10734163487851
    Total Energy =                       -193.1073416348785372
    Molecular point group: c1
  Basis Set: 6-31G*
  Basis Set:
  Basis Set: 6-31G*
  Basis Set:
  @DF-RHF Final Energy:  -193.10831122128670
    Total Energy =                       -193.1083112212867263
  Basis Set: 6-31G*
  Basis Set:
  Basis Set: 6-31G*
  Basis Set:
  @DF-RHF Final Energy:  -193.10871825299384
    Total Energy =                       -193.1087182529938389
  Basis Set: 6-31G*
  Basis Set:
  Basis Set: 6-31G*
  Basis Set:
  @DF-RHF Final Energy:  -193.10872185325815
    Total Energy =                       -193.1087218532580607
  Basis Set: 6-31G*
  Basis Set:
  Basis Set: 6-31G*
  Basis Set:
  @DF-RHF Final Energy:  -193.10873383130314
    Total Energy =                       -193.1087338313030557
  Basis Set: 6-31G*
  Basis Set:
  Charge       = 0
  Multiplicity = 1
  Basis Set: 6-31G*
  Basis Set:

    Orbital Energies (a.u.)
    -----------------------

    Doubly Occupied:

       1A    -20.551835     2A    -11.267744     3A    -11.226321
       4A    -11.215302     5A     -1.359038     6A     -1.053245
       7A     -0.925415     8A     -0.819533     9A     -0.663446
      10A     -0.642670    11A     -0.638388    12A     -0.570905
      13A     -0.542839    14A     -0.513535    15A     -0.490989
      16A     -0.466675    17A     -0.430785

  @DF-RHF Final Energy:  -193.10873461757726

   => Energetics <=

    Nuclear Repulsion Energy =            133.1788473642282895
    One-Electron Energy =                -525.8178326976490098
    Two-Electron Energy =                 199.5302507158435219
    DFT Exchange-Correlation Energy =       0.0000000000000000
    Empirical Dispersion Energy =           0.0000000000000000
    PCM Polarization Energy =               0.0000000000000000
    EFP Energy =                            0.0000000000000000
    Total Energy =                       -193.1087346175771700
    Molecular point group: c1
  Basis Set: 6-31G*
  Basis Set:

  -Total Gradient:
     Atom            X                  Y                   Z
    ------   -----------------  -----------------  -----------------
       1        0.001911327113    -0.001621181585     0.001075079979
       2       -0.002605099562     0.002377627979    -0.001895258549
       3        0.001275155335    -0.001710247957     0.002094193104
       4       -0.000601354062     0.000942974549    -0.001312432082
       5        0.000014121963     0.000001357070     0.000007487999
       6        0.000022031728     0.000006229639     0.000006171770
       7       -0.000003696511     0.000011065899    -0.000001750463
       8       -0.000010827560    -0.000008925535     0.000014822687
       9        0.000007227586     0.000010921113     0.000010920026
      10        0.000000211023    -0.000008977802    -0.000007676159
      11       -0.000020779306    -0.000004030252    -0.000002716516
      12        0.000011682255     0.000003186881     0.000011158204

  **** Optimization is complete! (in 6 steps) ****
    Final optimized geometry and variables:
    Molecular point group: c1

    Geometry (in Angstrom), charge = 0, multiplicity = 1:

    H           -1.106232828653    -0.800034856280    -1.046470540569
    O           -1.415872420840    -0.593347823589    -0.176228142819
    C           -0.734775680283     0.532924180428     0.317629826721
    C            0.682207442493     0.669421703793    -0.227240109284
    H           -1.298975371625     1.433393812104     0.083781964671
    H           -0.714938277612     0.432819178810     1.396562514692
    C            1.595044149725    -0.499380204487     0.144621247942
    H            0.634964828879     0.773811017201    -1.311029775030
    H            1.103929367400     1.598892585063     0.146782946792
    H            1.202170229583    -1.442617274861    -0.219146505124
    H            2.587358042247    -0.367401203500    -0.274431917384
    H            1.696650369680    -0.582094635397     1.222584520537

  Mulliken Charges: (a.u.)
   Center  Symbol    Alpha    Beta     Spin     Total
       1     H     0.28181  0.28181  0.00000  0.43638
       2     O     4.37305  4.37305  0.00000 -0.74611
       3     C     2.98194  2.98194  0.00000  0.03612
       4     C     3.18232  3.18232  0.00000 -0.36464
       5     H     0.42729  0.42729  0.00000  0.14542
       6     H     0.41977  0.41977  0.00000  0.16047
       7     C     3.23875  3.23875  0.00000 -0.47751
       8     H     0.42464  0.42464  0.00000  0.15071
       9     H     0.41700  0.41700  0.00000  0.16600
      10     H     0.41738  0.41738  0.00000  0.16524
      11     H     0.41796  0.41796  0.00000  0.16409
      12     H     0.41808  0.41808  0.00000  0.16383

   Total alpha = 17.00000, Total beta = 17.00000, Total charge =  0.00000
