  ==> Input File <==

--------------------------------------------------------------------------
set {
	reference rhf
	basis 6-31G*
}

set_num_threads( 4 )
memory 2 gb

molecule MOL {
0 1

H	 3.729471	 -0.928294	 -0.070608
O	 2.826016	 -1.159218	 0.122261
C	 2.077727	 -0.067559	 -0.035091
C	 0.624473	 -0.343591	 0.253101
O	 2.542965	 0.974826	 -0.363729
C	 -0.265902	 0.883932	 0.072916
H	 0.324016	 -1.163849	 -0.390541
H	 0.565024	 -0.726111	 1.268924
C	 -1.728698	 0.646073	 0.462102
H	 -0.209144	 1.219470	 -0.958188
H	 0.135059	 1.692851	 0.673903
C	 -2.482460	 -0.343073	 -0.431425
H	 -2.245265	 1.602650	 0.432430
H	 -1.779332	 0.308348	 1.496285
C	 -3.719659	 0.277066	 -1.080458
H	 -1.812107	 -0.707347	 -1.207296
H	 -2.785928	 -1.213456	 0.144528
H	 -4.237527	 -0.442557	 -1.706772
H	 -3.451756	 1.125849	 -1.703053
H	 -4.421991	 0.627663	 -0.329427

	symmetry c1
}
set optking {
	frozen_dihedral = ("
		16 12 9 6
	")
}

ee = optimize('scf')
oeprop('DIPOLE', 'QUADRUPOLE', 'MULLIKEN_CHARGES')
f=open( 'psi4out.xyz', 'w' )
f.write( "20  " )
f.write( str(ee) + "\n" )
f.write( MOL.save_string_xyz() )
f.close()
--------------------------------------------------------------------------

    Molecular point group: c1
  Charge       = 0
  Multiplicity = 1
  Basis Set: 6-31G*
  Basis Set:
  @DF-RHF Final Energy:  -383.94318790627756
    Total Energy =                       -383.9431879062775579
    Molecular point group: c1
  Basis Set: 6-31G*
  Basis Set:
  Basis Set: 6-31G*
  Basis Set:
  @DF-RHF Final Energy:  -383.94340011152832
    Total Energy =                       -383.9434001115280921
  Basis Set: 6-31G*
  Basis Set:
  Basis Set: 6-31G*
  Basis Set:
  @DF-RHF Final Energy:  -383.94360768764165
    Total Energy =                       -383.9436076876414745
  Basis Set: 6-31G*
  Basis Set:
  Basis Set: 6-31G*
  Basis Set:
  @DF-RHF Final Energy:  -383.94359022256776
    Total Energy =                       -383.9435902225679911
  Basis Set: 6-31G*
  Basis Set:
  Basis Set: 6-31G*
  Basis Set:
  @DF-RHF Final Energy:  -383.94349538448461
    Total Energy =                       -383.9434953844848906
  Basis Set: 6-31G*
  Basis Set:
  Basis Set: 6-31G*
  Basis Set:
  @DF-RHF Final Energy:  -383.94362782296054
    Total Energy =                       -383.9436278229603658
  Basis Set: 6-31G*
  Basis Set:
  Basis Set: 6-31G*
  Basis Set:
  @DF-RHF Final Energy:  -383.94362904646977
    Total Energy =                       -383.9436290464699368
  Basis Set: 6-31G*
  Basis Set:
  Charge       = 0
  Multiplicity = 1
  Basis Set: 6-31G*
  Basis Set:

    Orbital Energies (a.u.)
    -----------------------

    Doubly Occupied:

       1A    -20.612509     2A    -20.551577     3A    -11.381120
       4A    -11.240112     5A    -11.223237     6A    -11.220447
       7A    -11.219830     8A    -11.212311     9A     -1.474545
      10A     -1.365599    11A     -1.095082    12A     -1.039135
      13A     -0.960551    14A     -0.869523    15A     -0.816790
      16A     -0.775781    17A     -0.699505    18A     -0.689381
      19A     -0.666138    20A     -0.630370    21A     -0.604294
      22A     -0.593220    23A     -0.573443    24A     -0.565664
      25A     -0.527145    26A     -0.513585    27A     -0.502762
      28A     -0.479082    29A     -0.468979    30A     -0.462419
      31A     -0.457146    32A     -0.443219

  @DF-RHF Final Energy:  -383.94362916447159

   => Energetics <=

    Nuclear Repulsion Energy =            376.5634223894393813
    One-Electron Energy =               -1269.1451004195855603
    Two-Electron Energy =                 508.6380488656744205
    DFT Exchange-Correlation Energy =       0.0000000000000000
    Empirical Dispersion Energy =           0.0000000000000000
    PCM Polarization Energy =               0.0000000000000000
    EFP Energy =                            0.0000000000000000
    Total Energy =                       -383.9436291644717016
    Molecular point group: c1
  Basis Set: 6-31G*
  Basis Set:

  -Total Gradient:
     Atom            X                  Y                   Z
    ------   -----------------  -----------------  -----------------
       1        0.000001822965     0.000001912373     0.000000184132
       2       -0.000004538982    -0.000018506373    -0.000011101885
       3        0.000001765133     0.000003095243     0.000034229224
       4       -0.000001402359    -0.000009333149    -0.000028972139
       5        0.000000104581     0.000019219601    -0.000008947419
       6       -0.000268555916     0.000715841013    -0.000557742539
       7       -0.000000107529     0.000004725968     0.000014084365
       8        0.000007416823     0.000003307011     0.000015361101
       9        0.000460287847    -0.001282625364     0.000937077566
      10        0.000001991014     0.000007423172    -0.000011681283
      11       -0.000002340847    -0.000005008754     0.000002969835
      12       -0.000558686932     0.001549046412    -0.001133155724
      13       -0.000010398994     0.000001457359    -0.000004718601
      14       -0.000005507521    -0.000011096664     0.000004714527
      15        0.000002920561     0.000007286935     0.000008405826
      16        0.000374713439    -0.000986104808     0.000733723884
      17        0.000001452216    -0.000001617784     0.000006436357
      18       -0.000000932668    -0.000003924833     0.000005091714
      19        0.000000065764    -0.000002755949    -0.000007027220
      20       -0.000000068598     0.000007658592     0.000001068281

  **** Optimization is complete! (in 8 steps) ****
    Final optimized geometry and variables:
    Molecular point group: c1

    Geometry (in Angstrom), charge = 0, multiplicity = 1:

    H            3.687411380037    -1.040906771521     0.030112668412
    O            2.793701803177    -1.252255395257     0.281862496747
    C            2.040718111889    -0.171257839069     0.080042931572
    C            0.602189873640    -0.416598066236     0.455411233643
    O            2.491539192105     0.841965336242    -0.345723410207
    C           -0.292749042303     0.802323939790     0.244124432389
    H            0.263291521714    -1.273906163497    -0.118311635173
    H            0.589764905154    -0.733813339603     1.494907099610
    C           -1.755061669605     0.544080902746     0.622911828465
    H           -0.232107257284     1.120153895316    -0.792131033583
    H            0.095329494109     1.624607977223     0.835955867142
    C           -2.502928859922    -0.427405696651    -0.320509699157
    H           -2.269722712535     1.501007675695     0.626825096787
    H           -1.801404964815     0.181270447077     1.646868934821
    C           -3.750796498937     0.188019596178    -0.953982370767
    H           -1.836992382468    -0.765519758826    -1.110376530719
    H           -2.789751824934    -1.324328406890     0.221381291559
    H           -4.250923050875    -0.520175922428    -1.607439628700
    H           -3.497053186533     1.063822610384    -1.544594246362
    H           -4.462136725912     0.497805777574    -0.193733342877

  Mulliken Charges: (a.u.)
   Center  Symbol    Alpha    Beta     Spin     Total
       1     H     0.26787  0.26787  0.00000  0.46425
       2     O     4.35149  4.35149  0.00000 -0.70298
       3     C     2.62271  2.62271  0.00000  0.75459
       4     C     3.21183  3.21183  0.00000 -0.42366
       5     O     4.27931  4.27931  0.00000 -0.55862
       6     C     3.15540  3.15540  0.00000 -0.31080
       7     H     0.39688  0.39688  0.00000  0.20624
       8     H     0.39894  0.39894  0.00000  0.20213
       9     C     3.16096  3.16096  0.00000 -0.32192
      10     H     0.41101  0.41101  0.00000  0.17798
      11     H     0.41019  0.41019  0.00000  0.17962
      12     C     3.15651  3.15651  0.00000 -0.31302
      13     H     0.41476  0.41476  0.00000  0.17048
      14     H     0.42073  0.42073  0.00000  0.15853
      15     C     3.23993  3.23993  0.00000 -0.47986
      16     H     0.42131  0.42131  0.00000  0.15739
      17     H     0.41949  0.41949  0.00000  0.16101
      18     H     0.41963  0.41963  0.00000  0.16073
      19     H     0.42043  0.42043  0.00000  0.15913
      20     H     0.42062  0.42062  0.00000  0.15876

   Total alpha = 32.00000, Total beta = 32.00000, Total charge = -0.00000
