  ==> Input File <==

--------------------------------------------------------------------------
set {
	reference rhf
	basis cc-pvtz
}

set_num_threads( 4 )
memory 2 gb

molecule MOL {
0 1

H	 -2.739589	 -0.187617	 0.927643
O	 -2.346257	 -0.289210	 0.080372
C	 -1.183935	 0.486039	 -0.009831
C	 0.062853	 -0.375310	 0.027457
H	 -1.178881	 1.094526	 -0.908634
H	 -1.184406	 1.155156	 0.838676
O	 1.172093	 0.457955	 -0.054438
H	 0.052476	 -1.081302	 -0.804627
H	 0.076323	 -0.955658	 0.947560
C	 2.395478	 -0.199028	 -0.000366
H	 2.505946	 -0.901710	 -0.823354
H	 3.174616	 0.545641	 -0.071768
H	 2.513730	 -0.742241	 0.934223

	symmetry c1
}
set optking {
	frozen_dihedral = ("
		1 2 3 5
	")
}

ee = optimize('scf')
oeprop('DIPOLE', 'QUADRUPOLE', 'MULLIKEN_CHARGES')
f=open( 'psi4out.xyz', 'w' )
f.write( "13  " )
f.write( str(ee) + "\n" )
f.write( MOL.save_string_xyz() )
f.close()
--------------------------------------------------------------------------

    Molecular point group: c1
  Charge       = 0
  Multiplicity = 1
  Basis Set: CC-PVTZ
  Basis Set:
  @DF-RHF Final Energy:  -268.06027473566462
    Total Energy =                       -268.0602747356646205
    Molecular point group: c1
  Basis Set: CC-PVTZ
  Basis Set:
  Basis Set: CC-PVTZ
  Basis Set:
  @DF-RHF Final Energy:  -268.06127955936529
    Total Energy =                       -268.0612795593654027
  Basis Set: CC-PVTZ
  Basis Set:
  Basis Set: CC-PVTZ
  Basis Set:
  @DF-RHF Final Energy:  -268.06154824997748
    Total Energy =                       -268.0615482499773634
  Basis Set: CC-PVTZ
  Basis Set:
  Basis Set: CC-PVTZ
  Basis Set:
  @DF-RHF Final Energy:  -268.06155257588591
    Total Energy =                       -268.0615525758858553
  Basis Set: CC-PVTZ
  Basis Set:
  Charge       = 0
  Multiplicity = 1
  Basis Set: CC-PVTZ
  Basis Set:

    Orbital Energies (a.u.)
    -----------------------

    Doubly Occupied:

       1A    -20.553526     2A    -20.551607     3A    -11.267900
       4A    -11.265787     5A    -11.265514     6A     -1.389461
       7A     -1.367778     8A     -1.019217     9A     -0.912696
      10A     -0.836524    11A     -0.715642    12A     -0.678181
      13A     -0.652778    14A     -0.642583    15A     -0.603252
      16A     -0.556718    17A     -0.548678    18A     -0.490540
      19A     -0.482130    20A     -0.440916    21A     -0.422060

  @DF-RHF Final Energy:  -268.06155306548635

   => Energetics <=

    Nuclear Repulsion Energy =            190.4258212323134387
    One-Electron Energy =                -743.6477777360615846
    Two-Electron Energy =                 285.1604034382615396
    DFT Exchange-Correlation Energy =       0.0000000000000000
    Empirical Dispersion Energy =           0.0000000000000000
    PCM Polarization Energy =               0.0000000000000000
    EFP Energy =                            0.0000000000000000
    Total Energy =                       -268.0615530654866348
    Molecular point group: c1
  Basis Set: CC-PVTZ
  Basis Set:

  -Total Gradient:
     Atom            X                  Y                   Z
    ------   -----------------  -----------------  -----------------
       1       -0.000311205716     0.000434145938    -0.000227932393
       2        0.000333951879    -0.000419084030     0.000337696132
       3        0.000193465282    -0.000406734986    -0.000322518551
       4       -0.000020300314     0.000029749575     0.000000511369
       5       -0.000227780448     0.000353870594     0.000228047556
       6        0.000003743048    -0.000003079315     0.000003714082
       7        0.000029639788    -0.000000866338    -0.000015119878
       8        0.000005051058     0.000001909277    -0.000001944438
       9       -0.000015745130     0.000002717957    -0.000004037338
      10        0.000008935546     0.000009012617     0.000004604492
      11       -0.000001133385     0.000001201472    -0.000000275179
      12        0.000002888378    -0.000001787845    -0.000002650926
      13       -0.000001509985    -0.000001054917    -0.000000094928

  **** Optimization is complete! (in 5 steps) ****
    Final optimized geometry and variables:
    Molecular point group: c1

    Geometry (in Angstrom), charge = 0, multiplicity = 1:

    H           -2.776819362938    -0.220117589461     0.835670827106
    O           -2.328931353656    -0.316964329000     0.017750887341
    C           -1.181261117959     0.489878765962    -0.015614436389
    C            0.061354779602    -0.373805945852     0.035126920602
    H           -1.186100223820     1.063689288722    -0.933469186348
    H           -1.165221840141     1.194955530112     0.808109682416
    O            1.173553089163     0.457008035717    -0.047980436375
    H            0.041895463639    -1.083388760540    -0.789400314017
    H            0.074732064089    -0.947242079996     0.961195063448
    C            2.393334249915    -0.208218336358    -0.042719823233
    H            2.479079100780    -0.887358603783    -0.887755918023
    H            3.175765352512     0.533427535312    -0.110997691422
    H            2.530872956784    -0.779399697230     0.872738226966

  Mulliken Charges: (a.u.)
   Center  Symbol    Alpha    Beta     Spin     Total
       1     H     0.38974  0.38974  0.00000  0.22051
       2     O     4.20645  4.20645  0.00000 -0.41289
       3     C     2.97355  2.97355  0.00000  0.05290
       4     C     2.95823  2.95823  0.00000  0.08354
       5     H     0.45869  0.45869  0.00000  0.08262
       6     H     0.46861  0.46861  0.00000  0.06278
       7     O     4.17648  4.17648  0.00000 -0.35295
       8     H     0.47069  0.47069  0.00000  0.05862
       9     H     0.47858  0.47858  0.00000  0.04285
      10     C     3.03113  3.03113  0.00000 -0.06225
      11     H     0.47000  0.47000  0.00000  0.06000
      12     H     0.44668  0.44668  0.00000  0.10664
      13     H     0.47118  0.47118  0.00000  0.05763

   Total alpha = 21.00000, Total beta = 21.00000, Total charge =  0.00000
