  ==> Input File <==

--------------------------------------------------------------------------
set {
	reference rhf
	basis 6-31G*
}

set_num_threads( 4 )
memory 2 gb

molecule MOL {
0 1

O	 -2.042549	 -1.228399	 -0.269030
C	 -1.653912	 -0.146171	 0.050137
C	 -0.332303	 0.024011	 0.778412
C	 -2.438579	 1.106236	 -0.272369
C	 0.845713	 -0.001731	 -0.208243
H	 -0.323783	 0.953829	 1.340327
H	 -0.235459	 -0.796807	 1.480410
C	 1.230906	 1.393577	 -0.701978
H	 0.596257	 -0.628131	 -1.062923
H	 1.696535	 -0.466812	 0.280575
C	 2.407887	 1.371818	 -1.676375
H	 0.371883	 1.857179	 -1.182163
H	 1.479537	 2.019202	 0.152039
H	 2.176945	 0.780882	 -2.558142
H	 3.291685	 0.942967	 -1.213310
H	 2.660641	 2.374182	 -2.007145
H	 -3.277823	 0.863061	 -0.908988
H	 -1.806773	 1.843019	 -0.759671
H	 -2.802853	 1.554979	 0.648059

	symmetry c1
}
set optking {
	frozen_dihedral = ("
		9 5 3 2
	")
}

ee = optimize('scf')
oeprop('DIPOLE', 'QUADRUPOLE', 'MULLIKEN_CHARGES')
f=open( 'psi4out.xyz', 'w' )
f.write( "19  " )
f.write( str(ee) + "\n" )
f.write( MOL.save_string_xyz() )
f.close()
--------------------------------------------------------------------------

    Molecular point group: c1
  Charge       = 0
  Multiplicity = 1
  Basis Set: 6-31G*
  Basis Set:
  @DF-RHF Final Energy:  -309.06047786031934
    Total Energy =                       -309.0604778603192813
    Molecular point group: c1
  Basis Set: 6-31G*
  Basis Set:
  Basis Set: 6-31G*
  Basis Set:
  @DF-RHF Final Energy:  -309.06120658204605
    Total Energy =                       -309.0612065820462249
  Basis Set: 6-31G*
  Basis Set:
  Basis Set: 6-31G*
  Basis Set:
  @DF-RHF Final Energy:  -309.05978021205954
    Total Energy =                       -309.0597802120595361
  Basis Set: 6-31G*
  Basis Set:
  Basis Set: 6-31G*
  Basis Set:
  @DF-RHF Final Energy:  -309.06172380115225
    Total Energy =                       -309.0617238011524819
  Basis Set: 6-31G*
  Basis Set:
  @DF-RHF Final Energy:  -309.06229874999281
    Total Energy =                       -309.0622987499925216
  @DF-RHF Final Energy:  -309.06333967512796
    Total Energy =                       -309.0633396751278497
  @DF-RHF Final Energy:  -309.06417095475666
    Total Energy =                       -309.0641709547567189
  @DF-RHF Final Energy:  -309.06471609740112
    Total Energy =                       -309.0647160974010603
  @DF-RHF Final Energy:  -309.06420571649664
    Total Energy =                       -309.0642057164965308
  @DF-RHF Final Energy:  -309.06516876618730
    Total Energy =                       -309.0651687661870142
  Basis Set: 6-31G*
  Basis Set:
  @DF-RHF Final Energy:  -309.06517459865489
    Total Energy =                       -309.0651745986550623
  Basis Set: 6-31G*
  Basis Set:
  Basis Set: 6-31G*
  Basis Set:
  @DF-RHF Final Energy:  -309.06518132970979
    Total Energy =                       -309.0651813297096737
  Basis Set: 6-31G*
  Basis Set:
  Basis Set: 6-31G*
  Basis Set:
  @DF-RHF Final Energy:  -309.06518259974632
    Total Energy =                       -309.0651825997463220
  Basis Set: 6-31G*
  Basis Set:
  Charge       = 0
  Multiplicity = 1
  Basis Set: 6-31G*
  Basis Set:

    Orbital Energies (a.u.)
    -----------------------

    Doubly Occupied:

       1A    -20.551688     2A    -11.327839     3A    -11.232314
       4A    -11.229124     5A    -11.216047     6A    -11.215087
       7A    -11.206898     8A     -1.397172     9A     -1.083338
      10A     -1.028975    11A     -0.982116    12A     -0.884898
      13A     -0.801204    14A     -0.729522    15A     -0.667262
      16A     -0.630851    17A     -0.625139    18A     -0.614061
      19A     -0.579455    20A     -0.570998    21A     -0.559220
      22A     -0.522680    23A     -0.516231    24A     -0.493948
      25A     -0.474954    26A     -0.467022    27A     -0.457633
      28A     -0.402495

  @DF-RHF Final Energy:  -309.06518264320130

   => Energetics <=

    Nuclear Repulsion Energy =            305.2715705854427597
    One-Electron Energy =               -1023.7371629138833669
    Two-Electron Energy =                 409.4004096852395378
    DFT Exchange-Correlation Energy =       0.0000000000000000
    Empirical Dispersion Energy =           0.0000000000000000
    PCM Polarization Energy =               0.0000000000000000
    EFP Energy =                            0.0000000000000000
    Total Energy =                       -309.0651826432010694
    Molecular point group: c1
  Basis Set: 6-31G*
  Basis Set:

  -Total Gradient:
     Atom            X                  Y                   Z
    ------   -----------------  -----------------  -----------------
       1       -0.000035675706    -0.000010455714     0.000009672771
       2       -0.000171835131    -0.002593736079     0.000762404394
       3        0.000141188113     0.004312137221    -0.001703166966
       4       -0.000023779426    -0.000003141528     0.000020018594
       5        0.000778762717    -0.004342757425     0.003403763238
       6       -0.000005570811    -0.000008912088     0.000008315571
       7       -0.000017267860    -0.000007856008     0.000013197253
       8        0.000015972242    -0.000000578286    -0.000025510736
       9       -0.000692761370     0.002658868145    -0.002493335277
      10        0.000000161041     0.000006838716     0.000002003305
      11       -0.000001254207     0.000007638837    -0.000001435527
      12        0.000007421197    -0.000006237667     0.000004511406
      13        0.000001151777    -0.000003796850     0.000001020126
      14       -0.000001734118     0.000002701207     0.000000668394
      15       -0.000002560367    -0.000000968058     0.000001424328
      16        0.000002631672     0.000000041205     0.000000344331
      17        0.000000912578    -0.000000603253     0.000001796451
      18        0.000002446105    -0.000011094157    -0.000004944068
      19        0.000001791558     0.000001911785    -0.000000747586

  **** Optimization is complete! (in 14 steps) ****
    Final optimized geometry and variables:
    Molecular point group: c1

    Geometry (in Angstrom), charge = 0, multiplicity = 1:

    O           -1.417463226072    -0.713448510479    -0.901091367765
    C           -1.455035431511    -0.260238395912     0.201547535537
    C           -0.212085842258    -0.088100796722     1.060482654721
    C           -2.763428462775     0.175144626110     0.828684668351
    C            1.104158956136    -0.411362448633     0.347710251181
    H           -0.207836602763     0.921236771479     1.466617822899
    H           -0.350805587109    -0.741395317447     1.921199545959
    C            1.717892105718     0.807269683080    -0.348148576606
    H            0.916055756514    -1.169472757397    -0.402746662427
    H            1.815454636134    -0.815674476392     1.062058139481
    C            3.006503450439     0.473195427228    -1.097440530476
    H            0.993081039127     1.220585878960    -1.045249002975
    H            1.919061901716     1.583487790702     0.388029259636
    H            2.827840572381    -0.270882082990    -1.867935662031
    H            3.761075252420     0.077115971420    -0.423219176238
    H            3.421830164454     1.353936169393    -1.577340337515
    H           -3.588428697641    -0.119893091315     0.195340317174
    H           -2.771666307283     1.255344884587     0.945901471764
    H           -2.885295466293    -0.257502611414     1.816790001361

  Mulliken Charges: (a.u.)
   Center  Symbol    Alpha    Beta     Spin     Total
       1     O     4.26183  4.26183  0.00000 -0.52366
       2     C     2.73662  2.73662  0.00000  0.52675
       3     C     3.21307  3.21307  0.00000 -0.42613
       4     C     3.28705  3.28705  0.00000 -0.57410
       5     C     3.15391  3.15391  0.00000 -0.30782
       6     H     0.40950  0.40950  0.00000  0.18100
       7     H     0.40617  0.40617  0.00000  0.18765
       8     C     3.15442  3.15442  0.00000 -0.30885
       9     H     0.40028  0.40028  0.00000  0.19944
      10     H     0.42077  0.42077  0.00000  0.15846
      11     C     3.24026  3.24026  0.00000 -0.48052
      12     H     0.41660  0.41660  0.00000  0.16681
      13     H     0.42627  0.42627  0.00000  0.14745
      14     H     0.41780  0.41780  0.00000  0.16441
      15     H     0.42298  0.42298  0.00000  0.15403
      16     H     0.41932  0.41932  0.00000  0.16136
      17     H     0.39641  0.39641  0.00000  0.20717
      18     H     0.40669  0.40669  0.00000  0.18662
      19     H     0.41004  0.41004  0.00000  0.17992

   Total alpha = 28.00000, Total beta = 28.00000, Total charge =  0.00000
