                              Psi4 1.0.54 Driver

  ==> Input File <==

--------------------------------------------------------------------------
set {
	reference rhf
	basis cc-pvtz
}

set_num_threads( 4 )
memory 2 gb

molecule MOL {
0 1

H	 1.109678	 0.855096	 -4.116565
O	 2.041228	 0.782688	 -4.022749
C	 2.504673	 1.693283	 -3.060819
C	 2.147421	 1.302905	 -1.634403
H	 3.580461	 1.717119	 -3.170778
H	 2.136505	 2.694272	 -3.277435
C	 0.649989	 1.320378	 -1.335672
H	 2.548413	 0.313383	 -1.436390
H	 2.656235	 1.990050	 -0.962585
C	 0.332081	 0.955451	 0.113673
H	 0.143394	 0.629789	 -2.001593
H	 0.251589	 2.310719	 -1.549655
C	 -1.149227	 1.028879	 0.488627
H	 0.705249	 -0.044758	 0.319961
H	 0.885054	 1.624534	 0.767138
C	 -2.041121	 -0.006551	 -0.194127
H	 -1.235164	 0.902981	 1.564402
H	 -1.524980	 2.026265	 0.271406
C	 -3.489218	 0.042606	 0.286507
H	 -1.638199	 -1.000756	 -0.013353
H	 -2.024531	 0.137398	 -1.270234
C	 -4.219984	 1.311773	 -0.139038
H	 -4.022855	 -0.824300	 -0.093339
H	 -3.510372	 -0.038577	 1.370031
H	 -4.244251	 1.405725	 -1.219696
H	 -5.244345	 1.313233	 0.215630
H	 -3.732090	 2.196311	 0.257073

	symmetry c1
}
set optking {
	frozen_dihedral = ("
		20 16 19 22
	")
}

ee,wfn = optimize('scf', return_wfn=True)
oeprop( wfn, 'DIPOLE', 'QUADRUPOLE', 'MULLIKEN_CHARGES')
f=open( 'psi4out.xyz', 'w' )
f.write( "27  " )
f.write( str(ee) + "\n" )
f.write( MOL.save_string_xyz() )
f.close()
--------------------------------------------------------------------------

    Molecular point group: c1
  Charge       = 0
  Multiplicity = 1
  Basis Set: CC-PVTZ
  Basis Set:
  @DF-RHF Final Energy:  -388.42565243719952
    Total Energy =                       -388.4256524371996875
    Molecular point group: c1
  Basis Set: CC-PVTZ
  Basis Set:
  Basis Set: CC-PVTZ
  Basis Set:
  @DF-RHF Final Energy:  -388.42595388925480
    Total Energy =                       -388.4259538892551973
  Basis Set: CC-PVTZ
  Basis Set:
  Basis Set: CC-PVTZ
  Basis Set:
  @DF-RHF Final Energy:  -388.42606161264058
    Total Energy =                       -388.4260616126407513
  Basis Set: CC-PVTZ
  Basis Set:
  Basis Set: CC-PVTZ
  Basis Set:
  @DF-RHF Final Energy:  -388.42606948512184
    Total Energy =                       -388.4260694851217295
  Basis Set: CC-PVTZ
  Basis Set:
  Charge       = 0
  Multiplicity = 1
  Basis Set: CC-PVTZ
  Basis Set:

    Orbital Energies (a.u.)
    -----------------------

    Doubly Occupied:

       1A    -20.545309     2A    -11.264938     3A    -11.216685
       4A    -11.214632     5A    -11.214275     6A    -11.213189
       7A    -11.212936     8A    -11.212126     9A    -11.207290
      10A     -1.363205    11A     -1.096148    12A     -1.061960
      13A     -1.010851    14A     -0.947744    15A     -0.893226
      16A     -0.827844    17A     -0.800131    18A     -0.770034
      19A     -0.696161    20A     -0.651557    21A     -0.629373
      22A     -0.615681    23A     -0.611532    24A     -0.591584
      25A     -0.581119    26A     -0.554981    27A     -0.536263
      28A     -0.525931    29A     -0.515106    30A     -0.495213
      31A     -0.484556    32A     -0.476429    33A     -0.470042
      34A     -0.456401    35A     -0.450551    36A     -0.442783
      37A     -0.425614

  @DF-RHF Final Energy:  -388.42607024546106

   => Energetics <=

    Nuclear Repulsion Energy =            463.5862653756802843
    One-Electron Energy =               -1445.4578788939352307
    Two-Electron Energy =                 593.4455432727941115
    DFT Exchange-Correlation Energy =       0.0000000000000000
    Empirical Dispersion Energy =           0.0000000000000000
    PCM Polarization Energy =               0.0000000000000000
    EFP Energy =                            0.0000000000000000
    Total Energy =                       -388.4260702454607781
    Molecular point group: c1
  Basis Set: CC-PVTZ
  Basis Set:

  -Total Gradient:
     Atom            X                  Y                   Z
    ------   -----------------  -----------------  -----------------
       1       -0.000000509978     0.000002069107    -0.000000636420
       2        0.000000727019    -0.000003940375     0.000001702539
       3       -0.000006293647     0.000008741774     0.000003896379
       4        0.000001167354    -0.000009237466     0.000012535736
       5       -0.000001499970    -0.000002231123     0.000000639566
       6        0.000000295420     0.000000442324    -0.000000636510
       7       -0.000019981363    -0.000023822028    -0.000008904014
       8        0.000003127779    -0.000002429509    -0.000002642655
       9        0.000002838006    -0.000002174016     0.000001629918
      10       -0.000010608545    -0.000000433449    -0.000005666330
      11       -0.000005013041     0.000002358768    -0.000006131209
      12        0.000000181671     0.000004828743     0.000003093734
      13        0.000011113684    -0.000028104902    -0.000015702090
      14       -0.000003895193     0.000015716259     0.000016078835
      15       -0.000003130004     0.000026696195     0.000003472199
      16        0.000151733298     0.000110053497     0.000418741428
      17        0.000012619084    -0.000013889811     0.000012036107
      18        0.000004989937    -0.000007140246     0.000004101276
      19        0.000134378817     0.000221424055     0.000374261833
      20       -0.000149816299    -0.000123834956    -0.000479591988
      21       -0.000001401464    -0.000007310298    -0.000012651134
      22       -0.000109795862    -0.000175979474    -0.000329560000
      23       -0.000009759487    -0.000006644239     0.000005444117
      24        0.000001833404     0.000007173447     0.000002291651
      25        0.000012091100     0.000005614123     0.000003172502
      26       -0.000010663331    -0.000002755545    -0.000015388882
      27       -0.000004728396     0.000004809146     0.000014413409

  **** Optimization is complete! (in 5 steps) ****
    Final optimized geometry and variables:
    Molecular point group: c1

    Geometry (in Angstrom), charge = 0, multiplicity = 1:

    H            1.492532955891    -0.110084259408    -2.997594097211
    O            2.419392438743    -0.216285397595    -2.891599383865
    C            2.902300721345     0.673337932707    -1.919740482753
    C            2.511629329946     0.291048755398    -0.499988811122
    H            3.979635990450     0.658621564100    -2.015058174607
    H            2.573517678772     1.687716223825    -2.137232195905
    C            1.011420443789     0.356675924101    -0.222979378655
    H            2.877033368097    -0.711606109150    -0.299475685468
    H            3.032899859798     0.959211224740     0.181325375286
    C            0.661346427826     0.006038752098     1.222411727448
    H            0.492502048662    -0.319159484154    -0.894497336994
    H            0.647883669891     1.358561542947    -0.444895605502
    C           -0.821217704107     0.135727008630     1.577621120658
    H            0.994222932141    -1.006997987611     1.434540310521
    H            1.230124701643     0.655340072818     1.882264956805
    C           -1.736663868241    -0.863624721677     0.869537548630
    H           -0.927405764271    -0.001023878679     2.650562058866
    H           -1.145866923946     1.150675419670     1.368371020365
    C           -3.187657609109    -0.845294618152     1.355133760836
    H           -1.337045356952    -1.864250216121     1.012420262974
    H           -1.726188723765    -0.685489169683    -0.201809496479
    C           -3.959790393415     0.423291714873     1.000562057977
    H           -3.704835931741    -1.696711258060     0.923372792428
    H           -3.208668820585    -0.992794847330     2.431582614872
    H           -3.954043307719     0.594765051834    -0.071167110539
    H           -4.994062219381     0.345183344049     1.315668298197
    H           -3.540139497198     1.300750031680     1.477869438818

  Mulliken Charges: (a.u.)
   Center  Symbol    Alpha    Beta     Spin     Total
       1     H     0.39229  0.39229  0.00000  0.21543
       2     O     4.20554  4.20554  0.00000 -0.41107
       3     C     2.97991  2.97991  0.00000  0.04019
       4     C     3.08931  3.08931  0.00000 -0.17863
       5     H     0.44857  0.44857  0.00000  0.10285
       6     H     0.46971  0.46971  0.00000  0.06057
       7     C     3.10286  3.10286  0.00000 -0.20572
       8     H     0.45079  0.45079  0.00000  0.09842
       9     H     0.45523  0.45523  0.00000  0.08954
      10     C     3.09686  3.09686  0.00000 -0.19371
      11     H     0.45555  0.45555  0.00000  0.08890
      12     H     0.45372  0.45372  0.00000  0.09256
      13     C     3.10037  3.10037  0.00000 -0.20074
      14     H     0.45171  0.45171  0.00000  0.09658
      15     H     0.44808  0.44808  0.00000  0.10384
      16     C     3.09678  3.09678  0.00000 -0.19355
      17     H     0.44785  0.44785  0.00000  0.10430
      18     H     0.45218  0.45218  0.00000  0.09564
      19     C     3.08902  3.08902  0.00000 -0.17804
      20     H     0.44830  0.44830  0.00000  0.10341
      21     H     0.45481  0.45481  0.00000  0.09039
      22     C     3.15241  3.15241  0.00000 -0.30482
      23     H     0.44835  0.44835  0.00000  0.10330
      24     H     0.45439  0.45439  0.00000  0.09121
      25     H     0.45556  0.45556  0.00000  0.08888
      26     H     0.44613  0.44613  0.00000  0.10773
      27     H     0.45372  0.45372  0.00000  0.09256

   Total alpha = 37.00000, Total beta = 37.00000, Total charge =  0.00000

*** Psi4 exiting successfully. Buy a developer a beer!
