  ==> Input File <==

--------------------------------------------------------------------------
set {
	reference rhf
	basis 6-31G*
}

set_num_threads( 1 )
memory 2 gb

molecule MOL {
0 1

H	 -3.420663	 1.227371	 -1.044276
O	 -3.452007	 0.283848	 -0.965577
C	 -3.181085	 -0.079926	 0.364119
C	 -1.765924	 0.277073	 0.805136
H	 -3.327791	 -1.152017	 0.410903
H	 -3.905698	 0.375695	 1.036898
C	 -0.677594	 -0.417312	 -0.014550
H	 -1.637766	 1.358238	 0.744969
H	 -1.659588	 0.017670	 1.857098
C	 0.738335	 -0.034840	 0.421385
H	 -0.814977	 -0.178223	 -1.064632
H	 -0.802730	 -1.495410	 0.071702
C	 1.688596	 -1.234326	 0.469562
H	 1.126255	 0.719360	 -0.259144
H	 0.700808	 0.431813	 1.404966
C	 3.096647	 -0.917014	 0.986149
H	 1.762069	 -1.674985	 -0.523472
H	 1.251283	 -1.999074	 1.108103
C	 3.911120	 0.011195	 0.083116
H	 3.638975	 -1.852084	 1.103685
H	 3.025091	 -0.481620	 1.980892
H	 3.988857	 -0.392890	 -0.922772
H	 4.919125	 0.135462	 0.466941
H	 3.467783	 0.998723	 0.009613

	symmetry c1
}
set optking {
	frozen_dihedral = ("
		20 16 13 17,
		17 13 10 7,
		11 7 4 3,
		1 2 3 5,
		7 4 3 2
	")
}

ee = energy('scf')
oeprop('DIPOLE', 'QUADRUPOLE', 'MULLIKEN_CHARGES')
f=open( 'psi4out.xyz', 'w' )
f.write( "24  " )
f.write( str(ee) + "\n" )
f.write( MOL.save_string_xyz() )
f.close()
--------------------------------------------------------------------------

    Molecular point group: c1

    Geometry (in Angstrom), charge = 0, multiplicity = 1:

       Center              X                  Y                   Z               Mass
    ------------   -----------------  -----------------  -----------------  -----------------
           H         -3.411040635002     1.470176899675    -1.288558323805     1.007825032070
           O         -3.442384635002     0.526653899675    -1.209859323805    15.994914619560
           C         -3.171462635002     0.162879899675     0.119836676195    12.000000000000
           C         -1.756301635002     0.519878899675     0.560853676195    12.000000000000
           H         -3.318168635002    -0.909211100325     0.166620676195     1.007825032070
           H         -3.896075635002     0.618500899675     0.792615676195     1.007825032070
           C         -0.667971635002    -0.174506100325    -0.258832323805    12.000000000000
           H         -1.628143635002     1.601043899675     0.500686676195     1.007825032070
           H         -1.649965635002     0.260475899675     1.612815676195     1.007825032070
           C          0.747957364998     0.207965899675     0.177102676195    12.000000000000
           H         -0.805354635002     0.064582899675    -1.308914323805     1.007825032070
           H         -0.793107635002    -1.252604100325    -0.172580323805     1.007825032070
           C          1.698218364998    -0.991520100325     0.225279676195    12.000000000000
           H          1.135877364998     0.962165899675    -0.503426323805     1.007825032070
           H          0.710430364998     0.674618899675     1.160683676195     1.007825032070
           C          3.106269364998    -0.674208100325     0.741866676195    12.000000000000
           H          1.771691364998    -1.432179100325    -0.767754323805     1.007825032070
           H          1.260905364998    -1.756268100325     0.863820676195     1.007825032070
           C          3.920742364998     0.254000899675    -0.161166323805    12.000000000000
           H          3.648597364998    -1.609278100325     0.859402676195     1.007825032070
           H          3.034713364998    -0.238814100325     1.736609676195     1.007825032070
           H          3.998479364998    -0.150084100325    -1.167054323805     1.007825032070
           H          4.928747364998     0.378267899675     0.222658676195     1.007825032070
           H          3.477405364998     1.241528899675    -0.234669323805     1.007825032070

  Charge       = 0
  Multiplicity = 1
  Basis Set: 6-31G*
  Basis Set:

    Orbital Energies (a.u.)
    -----------------------

    Doubly Occupied:

       1A    -20.553387     2A    -11.267303     3A    -11.217777
       4A    -11.213915     5A    -11.212384     6A    -11.210976
       7A    -11.209719     8A    -11.207196     9A     -1.359968
      10A     -1.088763    11A     -1.048030    12A     -0.985304
      13A     -0.914942    14A     -0.850654    15A     -0.800889
      16A     -0.776835    17A     -0.679137    18A     -0.652824
      19A     -0.623392    20A     -0.621004    21A     -0.594664
      22A     -0.577687    23A     -0.570789    24A     -0.531303
      25A     -0.523297    26A     -0.511702    27A     -0.492276
      28A     -0.478922    29A     -0.466516    30A     -0.459646
      31A     -0.454928    32A     -0.443628    33A     -0.419528

  @DF-RHF Final Energy:  -349.24310610820277

   => Energetics <=

    Nuclear Repulsion Energy =            384.4919935742333905
    One-Electron Energy =               -1235.4315959058385488
    Two-Electron Energy =                 501.6964962234026757
    DFT Exchange-Correlation Energy =       0.0000000000000000
    Empirical Dispersion Energy =           0.0000000000000000
    PCM Polarization Energy =               0.0000000000000000
    EFP Energy =                            0.0000000000000000
    Total Energy =                       -349.2431061082024257

  Mulliken Charges: (a.u.)
   Center  Symbol    Alpha    Beta     Spin     Total
       1     H     0.28342  0.28342  0.00000  0.43317
       2     O     4.36834  4.36834  0.00000 -0.73668
       3     C     2.99652  2.99652  0.00000  0.00695
       4     C     3.17097  3.17097  0.00000 -0.34194
       5     H     0.41628  0.41628  0.00000  0.16743
       6     H     0.42837  0.42837  0.00000  0.14326
       7     C     3.15388  3.15388  0.00000 -0.30777
       8     H     0.42780  0.42780  0.00000  0.14441
       9     H     0.42218  0.42218  0.00000  0.15564
      10     C     3.15556  3.15556  0.00000 -0.31113
      11     H     0.41016  0.41016  0.00000  0.17969
      12     H     0.42177  0.42177  0.00000  0.15645
      13     C     3.15435  3.15435  0.00000 -0.30870
      14     H     0.41977  0.41977  0.00000  0.16046
      15     H     0.42405  0.42405  0.00000  0.15189
      16     C     3.15268  3.15268  0.00000 -0.30536
      17     H     0.42294  0.42294  0.00000  0.15412
      18     H     0.42258  0.42258  0.00000  0.15483
      19     C     3.24099  3.24099  0.00000 -0.48198
      20     H     0.42131  0.42131  0.00000  0.15739
      21     H     0.42390  0.42390  0.00000  0.15219
      22     H     0.42208  0.42208  0.00000  0.15585
      23     H     0.41963  0.41963  0.00000  0.16073
      24     H     0.42046  0.42046  0.00000  0.15909

   Total alpha = 33.00000, Total beta = 33.00000, Total charge = -0.00000
