                              Psi4 1.0.54 Driver

  ==> Input File <==

--------------------------------------------------------------------------
set {
	reference rhf
	basis cc-pvtz
}

set_num_threads( 4 )
memory 2 gb

molecule MOL {
0 1

O	 -2.683456	 0.545639	 0.434539
C	 -2.115969	 -0.461296	 0.159817
C	 -0.881910	 -0.448129	 -0.720509
C	 -2.578646	 -1.799579	 0.684885
C	 0.376695	 -0.140025	 0.100361
H	 -1.022971	 0.319290	 -1.471029
H	 -0.769127	 -1.402056	 -1.224660
C	 1.630207	 -0.772146	 -0.501001
H	 0.486632	 0.935267	 0.162725
H	 0.248225	 -0.501310	 1.117842
C	 2.907848	 -0.545876	 0.309149
H	 1.772784	 -0.391628	 -1.509394
H	 1.468529	 -1.842059	 -0.599744
C	 3.373802	 0.906639	 0.372125
H	 3.699140	 -1.146831	 -0.127906
H	 2.764321	 -0.923458	 1.318191
H	 3.519798	 1.311927	 -0.623875
H	 4.316899	 0.983758	 0.900700
H	 2.661122	 1.540651	 0.885346
H	 -2.949620	 -2.397974	 -0.141130
H	 -3.364423	 -1.662558	 1.411761
H	 -1.752129	 -2.343468	 1.128332

	symmetry c1
}
set optking {
	frozen_dihedral = ("
		6 3 5 8
	")
}

ee,wfn = optimize('scf', return_wfn=True)
oeprop( wfn, 'DIPOLE', 'QUADRUPOLE', 'MULLIKEN_CHARGES')
f=open( 'psi4out.xyz', 'w' )
f.write( "22  " )
f.write( str(ee) + "\n" )
f.write( MOL.save_string_xyz() )
f.close()
--------------------------------------------------------------------------

    Molecular point group: c1
  Charge       = 0
  Multiplicity = 1
  Basis Set: CC-PVTZ
  Basis Set:
  @DF-RHF Final Energy:  -348.22069306141128
    Total Energy =                       -348.2206930614114526
    Molecular point group: c1
  Basis Set: CC-PVTZ
  Basis Set:
  Basis Set: CC-PVTZ
  Basis Set:
  @DF-RHF Final Energy:  -348.22084291060389
    Total Energy =                       -348.2208429106038921
  Basis Set: CC-PVTZ
  Basis Set:
  Basis Set: CC-PVTZ
  Basis Set:
  @DF-RHF Final Energy:  -348.21937755562362
    Total Energy =                       -348.2193775556234527
  Basis Set: CC-PVTZ
  Basis Set:
  Basis Set: CC-PVTZ
  Basis Set:
  @DF-RHF Final Energy:  -348.22098662748908
    Total Energy =                       -348.2209866274886849
  Basis Set: CC-PVTZ
  Basis Set:
  Basis Set: CC-PVTZ
  Basis Set:
  @DF-RHF Final Energy:  -348.22101143918434
    Total Energy =                       -348.2210114391842808
  Basis Set: CC-PVTZ
  Basis Set:
  Basis Set: CC-PVTZ
  Basis Set:
  @DF-RHF Final Energy:  -348.22101843269849
    Total Energy =                       -348.2210184326986564
  Basis Set: CC-PVTZ
  Basis Set:
  Basis Set: CC-PVTZ
  Basis Set:
  @DF-RHF Final Energy:  -348.22102097475118
    Total Energy =                       -348.2210209747508998
  Basis Set: CC-PVTZ
  Basis Set:
  Charge       = 0
  Multiplicity = 1
  Basis Set: CC-PVTZ
  Basis Set:

    Orbital Energies (a.u.)
    -----------------------

    Doubly Occupied:

       1A    -20.536177     2A    -11.318815     3A    -11.229035
       4A    -11.227471     5A    -11.226741     6A    -11.222127
       7A    -11.220062     8A    -11.210719     9A     -1.396368
      10A     -1.097720    11A     -1.046183    12A     -0.999449
      13A     -0.940400    14A     -0.859794    15A     -0.788907
      16A     -0.733940    17A     -0.662175    18A     -0.648788
      19A     -0.627911    20A     -0.623680    21A     -0.597843
      22A     -0.577681    23A     -0.570911    24A     -0.544553
      25A     -0.537275    26A     -0.516220    27A     -0.500381
      28A     -0.494932    29A     -0.472359    30A     -0.466586
      31A     -0.460284    32A     -0.397815

  @DF-RHF Final Energy:  -348.22102161529853

   => Energetics <=

    Nuclear Repulsion Energy =            373.7946425189067554
    One-Electron Energy =               -1212.5247256090647170
    Two-Electron Energy =                 490.5090614748600046
    DFT Exchange-Correlation Energy =       0.0000000000000000
    Empirical Dispersion Energy =           0.0000000000000000
    PCM Polarization Energy =               0.0000000000000000
    EFP Energy =                            0.0000000000000000
    Total Energy =                       -348.2210216152979001
    Molecular point group: c1
  Basis Set: CC-PVTZ
  Basis Set:

  -Total Gradient:
     Atom            X                  Y                   Z
    ------   -----------------  -----------------  -----------------
       1        0.000043813873    -0.000029565287     0.000042225820
       2       -0.000055991238    -0.000006508063    -0.000020500838
       3        0.002636799194    -0.003600045024    -0.002869847947
       4       -0.000028868629     0.000011241174    -0.000050527781
       5        0.000128938169     0.004045044894    -0.001426486859
       6       -0.002268487478     0.002070801186     0.002775731463
       7       -0.000000935289     0.000011451879     0.000001396871
       8       -0.000472654630    -0.002538008376     0.001528420387
       9        0.000006066153    -0.000000921536     0.000004068763
      10       -0.000000722358     0.000002279350    -0.000031178106
      11       -0.000009946398     0.000009775142     0.000009793698
      12       -0.000006771420    -0.000006315304     0.000026414656
      13        0.000014636972     0.000009559548    -0.000004985128
      14        0.000017510708     0.000001991606    -0.000009554824
      15       -0.000002811015    -0.000007220460     0.000004114177
      16       -0.000004316410     0.000015983960    -0.000030310580
      17       -0.000011974009    -0.000015750252     0.000042432617
      18       -0.000031038009    -0.000007334927    -0.000029001044
      19        0.000013509915     0.000000077889    -0.000000464767
      20        0.000041193780     0.000020812421     0.000038805414
      21       -0.000003663558    -0.000005814617    -0.000003332548
      22       -0.000004288321     0.000018464795     0.000002786556

  **** Optimization is complete! (in 8 steps) ****
    Final optimized geometry and variables:
    Molecular point group: c1

    Geometry (in Angstrom), charge = 0, multiplicity = 1:

    O           -2.720113819718     0.887201496490     0.277708385205
    C           -2.127396653724    -0.115739742427     0.044899835022
    C           -0.894937427424    -0.114119021632    -0.837534815993
    C           -2.557375872699    -1.441730185100     0.627467117832
    C            0.369004963299     0.154122062178     0.002910603981
    H           -1.037145214216     0.680217678455    -1.557603988766
    H           -0.809205248331    -1.060587285965    -1.358463627867
    C            1.628333309103    -0.453989167418    -0.611788976963
    H            0.471844602912     1.222104784568     0.138202373587
    H            0.243570338001    -0.265556196804     0.998040864287
    C            2.908431409923    -0.211717548344     0.189207481964
    H            1.760087822452    -0.071936488458    -1.621739632333
    H            1.477671364929    -1.525149869106    -0.710455277743
    C            3.369629588609     1.243110266090     0.229027934539
    H            3.700156133711    -0.815961477584    -0.242454701846
    H            2.770428009493    -0.575076573364     1.204211467043
    H            3.513284988808     1.632981182716    -0.773403501457
    H            4.313083244971     1.331597022502     0.754952938014
    H            2.655877611037     1.882856975997     0.733529808515
    H           -2.950989023286    -2.065213298769    -0.168981209807
    H           -3.321658985917    -1.289590185781     1.374018457346
    H           -1.713936270681    -1.968044742614     1.059290902813

  Mulliken Charges: (a.u.)
   Center  Symbol    Alpha    Beta     Spin     Total
       1     O     4.17773  4.17773  0.00000 -0.35545
       2     C     2.85794  2.85794  0.00000  0.28412
       3     C     3.09898  3.09898  0.00000 -0.19797
       4     C     3.15607  3.15607  0.00000 -0.31214
       5     C     3.10375  3.10375  0.00000 -0.20750
       6     H     0.43824  0.43824  0.00000  0.12352
       7     H     0.44839  0.44839  0.00000  0.10323
       8     C     3.09797  3.09797  0.00000 -0.19595
       9     H     0.43779  0.43779  0.00000  0.12442
      10     H     0.45105  0.45105  0.00000  0.09790
      11     C     3.09100  3.09100  0.00000 -0.18201
      12     H     0.45114  0.45114  0.00000  0.09773
      13     H     0.44919  0.44919  0.00000  0.10161
      14     C     3.15158  3.15158  0.00000 -0.30317
      15     H     0.44757  0.44757  0.00000  0.10486
      16     H     0.45429  0.45429  0.00000  0.09143
      17     H     0.45424  0.45424  0.00000  0.09151
      18     H     0.44586  0.44586  0.00000  0.10828
      19     H     0.45250  0.45250  0.00000  0.09501
      20     H     0.44785  0.44785  0.00000  0.10430
      21     H     0.43592  0.43592  0.00000  0.12817
      22     H     0.45095  0.45095  0.00000  0.09811

   Total alpha = 32.00000, Total beta = 32.00000, Total charge =  0.00000

*** Psi4 exiting successfully. Buy a developer a beer!
