  ==> Input File <==

--------------------------------------------------------------------------
set {
	reference rhf
	basis cc-pvtz
}

set_num_threads( 4 )
memory 2 gb

molecule MOL {
0 1

H	 -3.144994	 -1.202467	 -0.018751
O	 -2.321472	 -0.864941	 -0.318626
C	 -2.021813	 0.336996	 0.342658
C	 -0.669613	 0.837286	 -0.127252
H	 -2.780861	 1.084746	 0.127159
H	 -2.006390	 0.184138	 1.420053
C	 0.490865	 -0.082543	 0.241244
H	 -0.708709	 0.967192	 -1.204587
H	 -0.507562	 1.822272	 0.303070
C	 1.839800	 0.429565	 -0.255472
H	 0.305636	 -1.070211	 -0.165276
H	 0.527397	 -0.195943	 1.322876
C	 2.575525	 -0.578048	 -1.132517
H	 1.689627	 1.349551	 -0.813842
H	 2.464344	 0.689017	 0.595598
H	 1.991087	 -0.830908	 -2.010817
H	 3.527510	 -0.184573	 -1.470462
H	 2.771442	 -1.498189	 -0.591774

	symmetry c1
}
set optking {
	frozen_dihedral = ("
		14 10 7 11
	")
}

ee = optimize('scf')
oeprop('DIPOLE', 'QUADRUPOLE', 'MULLIKEN_CHARGES')
f=open( 'psi4out.xyz', 'w' )
f.write( "18  " )
f.write( str(ee) + "\n" )
f.write( MOL.save_string_xyz() )
f.close()
--------------------------------------------------------------------------

    Molecular point group: c1
  Charge       = 0
  Multiplicity = 1
  Basis Set: CC-PVTZ
  Basis Set:
  @DF-RHF Final Energy:  -271.28106511743471
    Total Energy =                       -271.2810651174349914
    Molecular point group: c1
  Basis Set: CC-PVTZ
  Basis Set:
  Basis Set: CC-PVTZ
  Basis Set:
  @DF-RHF Final Energy:  -271.28130556086103
    Total Energy =                       -271.2813055608610853
  Basis Set: CC-PVTZ
  Basis Set:
  Basis Set: CC-PVTZ
  Basis Set:
  @DF-RHF Final Energy:  -271.28136901568769
    Total Energy =                       -271.2813690156876305
  Basis Set: CC-PVTZ
  Basis Set:
  Charge       = 0
  Multiplicity = 1
  Basis Set: CC-PVTZ
  Basis Set:

    Orbital Energies (a.u.)
    -----------------------

    Doubly Occupied:

       1A    -20.546336     2A    -11.265811     3A    -11.211048
       4A    -11.208773     5A    -11.204659     6A    -11.202235
       7A     -1.364194     8A     -1.074045     9A     -1.009207
      10A     -0.913666    11A     -0.820908    12A     -0.783866
      13A     -0.707647    14A     -0.642105    15A     -0.620718
      16A     -0.586307    17A     -0.572815    18A     -0.563204
      19A     -0.512646    20A     -0.504359    21A     -0.499013
      22A     -0.465855    23A     -0.452229    24A     -0.448364
      25A     -0.431072

  @DF-RHF Final Energy:  -271.28136931639773

   => Energetics <=

    Nuclear Repulsion Energy =            249.9648677647450654
    One-Electron Energy =                -863.2703055060063662
    Two-Electron Energy =                 342.0240684248635148
    DFT Exchange-Correlation Energy =       0.0000000000000000
    Empirical Dispersion Energy =           0.0000000000000000
    PCM Polarization Energy =               0.0000000000000000
    EFP Energy =                            0.0000000000000000
    Total Energy =                       -271.2813693163978428
    Molecular point group: c1
  Basis Set: CC-PVTZ
  Basis Set:

  -Total Gradient:
     Atom            X                  Y                   Z
    ------   -----------------  -----------------  -----------------
       1        0.000000913609     0.000000547578     0.000002412599
       2       -0.000003102425     0.000011059444     0.000013748274
       3       -0.000009687736     0.000006926519    -0.000010956206
       4        0.000003329527     0.000000145558     0.000021682008
       5       -0.000021995504    -0.000011879683    -0.000000257921
       6       -0.000006705901    -0.000008795023    -0.000011519481
       7       -0.000513963335     0.000690457265    -0.000843331774
       8        0.000014255112     0.000001916225     0.000001559986
       9        0.000004125688    -0.000008103169     0.000004039417
      10       -0.000065726005    -0.000812073622    -0.000904315827
      11        0.000467301197    -0.000436105585     0.000849978992
      12       -0.000009265061     0.000010378660    -0.000005486726
      13        0.000023502944    -0.000002567638    -0.000001142279
      14        0.000117652188     0.000549684444     0.000882988751
      15        0.000005300031    -0.000010905245    -0.000009505320
      16       -0.000006562744     0.000010506899     0.000009342778
      17        0.000009374481     0.000004613213    -0.000000312015
      18       -0.000008746076     0.000004194163     0.000001074746

  **** Optimization is complete! (in 4 steps) ****
    Final optimized geometry and variables:
    Molecular point group: c1

    Geometry (in Angstrom), charge = 0, multiplicity = 1:

    H           -3.083405158195    -1.183067516166     0.205770036914
    O           -2.260583329469    -0.846979991450    -0.097373099684
    C           -1.956225914188     0.354467266049     0.562622379453
    C           -0.605623673327     0.852885986002     0.086906306585
    H           -2.715242998858     1.103341370880     0.350740144000
    H           -1.935971132157     0.201479483426     1.639913637154
    C            0.556342622378    -0.069642756365     0.447200134077
    H           -0.648041576417     0.984733542920    -0.990242582061
    H           -0.438509925974     1.836720156034     0.517901229780
    C            1.923196133421     0.443451581526    -0.050886651278
    H            0.362055502659    -1.054937648688     0.042640296538
    H            0.582333294651    -0.192371488599     1.526241745625
    C            2.671987112468    -0.561763809330    -0.920454040870
    H            1.786982271823     1.364577260460    -0.609128168050
    H            2.546315132935     0.707689607602     0.797214973346
    H            2.095578212475    -0.817793028121    -1.803202366544
    H            3.626380217939    -0.165385149634    -1.249068821781
    H            2.863792241548    -1.480600023705    -0.376373329685

  Mulliken Charges: (a.u.)
   Center  Symbol    Alpha    Beta     Spin     Total
       1     H     0.39577  0.39577  0.00000  0.20847
       2     O     4.19821  4.19821  0.00000 -0.39642
       3     C     2.97395  2.97395  0.00000  0.05210
       4     C     3.09183  3.09183  0.00000 -0.18365
       5     H     0.46552  0.46552  0.00000  0.06896
       6     H     0.47383  0.47383  0.00000  0.05234
       7     C     3.09390  3.09390  0.00000 -0.18779
       8     H     0.45185  0.45185  0.00000  0.09631
       9     H     0.45288  0.45288  0.00000  0.09424
      10     C     3.08782  3.08782  0.00000 -0.17564
      11     H     0.44453  0.44453  0.00000  0.11095
      12     H     0.45526  0.45526  0.00000  0.08948
      13     C     3.14690  3.14690  0.00000 -0.29380
      14     H     0.45587  0.45587  0.00000  0.08826
      15     H     0.45190  0.45190  0.00000  0.09620
      16     H     0.45382  0.45382  0.00000  0.09236
      17     H     0.45125  0.45125  0.00000  0.09750
      18     H     0.45493  0.45493  0.00000  0.09014

   Total alpha = 25.00000, Total beta = 25.00000, Total charge = -0.00000
