                              Psi4 1.0.54 Driver

  ==> Input File <==

--------------------------------------------------------------------------
set {
	reference rhf
	basis cc-pvtz
}

set_num_threads( 4 )
memory 2 gb

molecule MOL {
0 1

O	 0.781872	 0.644638	 2.077070
C	 0.301737	 0.871054	 1.003327
C	 -0.716451	 1.981940	 0.848221
N	 0.622280	 0.144970	 -0.099307
H	 -1.659895	 1.603206	 0.475638
H	 -0.867210	 2.418984	 1.821235
H	 -0.366421	 2.745320	 0.164333
C	 1.664396	 -0.854993	 0.000772
C	 0.245789	 0.511436	 -1.443819
H	 2.462727	 -0.615153	 -0.690869
H	 1.261798	 -1.821849	 -0.240651
H	 2.081615	 -0.891605	 1.003877
H	 0.095902	 -0.386954	 -2.028683
H	 -0.675087	 1.068713	 -1.461883
H	 1.015636	 1.103110	 -1.934024

	symmetry c1
}
set optking {
	frozen_dihedral = ("
		2 4 8 10
	")
}

ee,wfn = optimize('scf', return_wfn=True)
oeprop( wfn, 'DIPOLE', 'QUADRUPOLE', 'MULLIKEN_CHARGES')
f=open( 'psi4out.xyz', 'w' )
f.write( "15  " )
f.write( str(ee) + "\n" )
f.write( MOL.save_string_xyz() )
f.close()
--------------------------------------------------------------------------

    Molecular point group: c1
  Charge       = 0
  Multiplicity = 1
  Basis Set: CC-PVTZ
  Basis Set:
  @DF-RHF Final Energy:  -286.13481650647469
    Total Energy =                       -286.1348165064748628
    Molecular point group: c1
  Basis Set: CC-PVTZ
  Basis Set:
  Basis Set: CC-PVTZ
  Basis Set:
  @DF-RHF Final Energy:  -286.13534105213148
    Total Energy =                       -286.1353410521317073
  Basis Set: CC-PVTZ
  Basis Set:
  Basis Set: CC-PVTZ
  Basis Set:
  @DF-RHF Final Energy:  -286.13535857775923
    Total Energy =                       -286.1353585777590069
  Basis Set: CC-PVTZ
  Basis Set:
  Basis Set: CC-PVTZ
  Basis Set:
  @DF-RHF Final Energy:  -286.13544157671583
    Total Energy =                       -286.1354415767157207
  Basis Set: CC-PVTZ
  Basis Set:
  @DF-RHF Final Energy:  -286.13547558361518
    Total Energy =                       -286.1354755836149479
  @DF-RHF Final Energy:  -286.13549175467296
    Total Energy =                       -286.1354917546730690
  @DF-RHF Final Energy:  -286.13550438094018
    Total Energy =                       -286.1355043809402332
  @DF-RHF Final Energy:  -286.13551506199110
    Total Energy =                       -286.1355150619913843
  @DF-RHF Final Energy:  -286.13553704672790
    Total Energy =                       -286.1355370467279045
  @DF-RHF Final Energy:  -286.13554845432247
    Total Energy =                       -286.1355484543221905
  @DF-RHF Final Energy:  -286.13555463611169
    Total Energy =                       -286.1355546361116922
  Basis Set: CC-PVTZ
  Basis Set:
  @DF-RHF Final Energy:  -286.13556180500859
    Total Energy =                       -286.1355618050087060
  Basis Set: CC-PVTZ
  Basis Set:
  Basis Set: CC-PVTZ
  Basis Set:
  @DF-RHF Final Energy:  -286.13556723176748
    Total Energy =                       -286.1355672317672543
  Basis Set: CC-PVTZ
  Basis Set:
  Basis Set: CC-PVTZ
  Basis Set:
  @DF-RHF Final Energy:  -286.13556841688762
    Total Energy =                       -286.1355684168875086
  Basis Set: CC-PVTZ
  Basis Set:
  Charge       = 0
  Multiplicity = 1
  Basis Set: CC-PVTZ
  Basis Set:

    Orbital Energies (a.u.)
    -----------------------

    Doubly Occupied:

       1A    -20.501877     2A    -15.578979     3A    -11.335340
       4A    -11.264242     5A    -11.246488     6A    -11.226392
       7A     -1.386159     8A     -1.246730     9A     -1.015063
      10A     -0.973620    11A     -0.921909    12A     -0.739622
      13A     -0.683342    14A     -0.662251    15A     -0.653897
      16A     -0.590931    17A     -0.577752    18A     -0.566601
      19A     -0.561404    20A     -0.548889    21A     -0.530668
      22A     -0.507641    23A     -0.412599    24A     -0.369437

  @DF-RHF Final Energy:  -286.13556933640353

   => Energetics <=

    Nuclear Repulsion Energy =            252.7694086895833721
    One-Electron Energy =                -889.6062848006499735
    Two-Electron Energy =                 350.7013067746628394
    DFT Exchange-Correlation Energy =       0.0000000000000000
    Empirical Dispersion Energy =           0.0000000000000000
    PCM Polarization Energy =               0.0000000000000000
    EFP Energy =                            0.0000000000000000
    Total Energy =                       -286.1355693364038189
    Molecular point group: c1
  Basis Set: CC-PVTZ
  Basis Set:

  -Total Gradient:
     Atom            X                  Y                   Z
    ------   -----------------  -----------------  -----------------
       1       -0.000006892288    -0.000008891081    -0.000003333533
       2       -0.000085644327    -0.000087970481     0.000022943251
       3        0.000007565647     0.000008968538    -0.000002359723
       4        0.000106099178     0.000113991374    -0.000068710850
       5       -0.000001650605    -0.000004590869     0.000006327785
       6        0.000003312539     0.000003512782     0.000000076604
       7       -0.000005366511    -0.000001537088    -0.000003759729
       8        0.000035204072     0.000053726136     0.000185682897
       9        0.000024366707     0.000013134809     0.000007774058
      10       -0.000077036172    -0.000086640514    -0.000141544446
      11       -0.000001423624    -0.000000008034     0.000002795444
      12        0.000002136597     0.000002150525     0.000000343284
      13        0.000014900797    -0.000009102778    -0.000007368413
      14       -0.000016505120    -0.000016484194     0.000002076810
      15        0.000000933109     0.000019740874    -0.000000943437

  **** Optimization is complete! (in 15 steps) ****
    Final optimized geometry and variables:
    Molecular point group: c1

    Geometry (in Angstrom), charge = 0, multiplicity = 1:

    O            0.248005254628     0.063299761506     1.702670647295
    C           -0.189491056313     0.323378112553     0.617657484350
    C           -1.208967201024     1.434008504154     0.463550726359
    N            0.192239675190    -0.349945979387    -0.495758706998
    H           -2.152932621673     1.051835538723     0.095083282688
    H           -1.359845588804     1.867357122909     1.438141410375
    H           -0.864676596566     2.199772139834    -0.219991242108
    C            1.197470294839    -1.385819953042    -0.398278643282
    C           -0.258226161186    -0.061922333929    -1.835099163073
    H            2.053285203862    -1.140008962744    -1.019500455459
    H            0.795738506391    -2.334937069002    -0.738072810197
    H            1.517600031940    -1.482863335365     0.622751269510
    H           -0.543898813443    -0.982952496562    -2.330750384688
    H           -1.113099468743     0.590858976648    -1.839389439175
    H            0.528544500387     0.401714960506    -2.423959287639

  Mulliken Charges: (a.u.)
   Center  Symbol    Alpha    Beta     Spin     Total
       1     O     4.22295  4.22295  0.00000 -0.44590
       2     C     2.84736  2.84736  0.00000  0.30527
       3     C     3.16019  3.16019  0.00000 -0.32037
       4     N     3.55746  3.55746  0.00000 -0.11493
       5     H     0.44954  0.44954  0.00000  0.10092
       6     H     0.42845  0.42845  0.00000  0.14311
       7     H     0.44974  0.44974  0.00000  0.10052
       8     C     3.10099  3.10099  0.00000 -0.20198
       9     C     3.09443  3.09443  0.00000 -0.18887
      10     H     0.45801  0.45801  0.00000  0.08399
      11     H     0.45611  0.45611  0.00000  0.08778
      12     H     0.42484  0.42484  0.00000  0.15032
      13     H     0.45164  0.45164  0.00000  0.09673
      14     H     0.44498  0.44498  0.00000  0.11004
      15     H     0.45332  0.45332  0.00000  0.09336

   Total alpha = 24.00000, Total beta = 24.00000, Total charge = -0.00000

*** Psi4 exiting successfully. Buy a developer a beer!
