                              Psi4 1.0.54 Driver

  ==> Input File <==

--------------------------------------------------------------------------
set {
	reference rhf
	basis cc-pvtz
}

set_num_threads( 4 )
memory 2 gb

molecule MOL {
0 1

H	 -2.498963	 -0.741158	 -0.729149
O	 -2.346257	 -0.289210	 0.080372
C	 -1.183935	 0.486039	 -0.009831
C	 0.062853	 -0.375310	 0.027457
H	 -1.178881	 1.094526	 -0.908634
H	 -1.184406	 1.155156	 0.838676
O	 1.172093	 0.457955	 -0.054438
H	 0.052476	 -1.081302	 -0.804627
H	 0.076323	 -0.955658	 0.947560
C	 1.357089	 1.056020	 -1.295130
H	 0.509781	 1.682736	 -1.564517
H	 2.241597	 1.673194	 -1.236574
H	 1.498321	 0.313522	 -2.076968

	symmetry c1
}
set optking {
	frozen_dihedral = ("
		10 7 4 8
	")
}

ee,wfn = optimize('scf', return_wfn=True)
oeprop( wfn, 'DIPOLE', 'QUADRUPOLE', 'MULLIKEN_CHARGES')
f=open( 'psi4out.xyz', 'w' )
f.write( "13  " )
f.write( str(ee) + "\n" )
f.write( MOL.save_string_xyz() )
f.close()
--------------------------------------------------------------------------

    Molecular point group: c1
  Charge       = 0
  Multiplicity = 1
  Basis Set: CC-PVTZ
  Basis Set:
  @DF-RHF Final Energy:  -268.05457734970196
    Total Energy =                       -268.0545773497019582
    Molecular point group: c1
  Basis Set: CC-PVTZ
  Basis Set:
  Basis Set: CC-PVTZ
  Basis Set:
  @DF-RHF Final Energy:  -267.78182686871764
    Total Energy =                       -267.7818268687175873
  Basis Set: CC-PVTZ
  Basis Set:
  Basis Set: CC-PVTZ
  Basis Set:
  @DF-RHF Final Energy:  -267.92796026228689
    Total Energy =                       -267.9279602622870016
  Basis Set: CC-PVTZ
  Basis Set:
  Basis Set: CC-PVTZ
  Basis Set:
  @DF-RHF Final Energy:  -267.99905381841887
    Total Energy =                       -267.9990538184189290
  Basis Set: CC-PVTZ
  Basis Set:
  @DF-RHF Final Energy:  -268.04601423842098
    Total Energy =                       -268.0460142384210940
  @DF-RHF Final Energy:  -268.05810639888261
    Total Energy =                       -268.0581063988826713
  Basis Set: CC-PVTZ
  Basis Set:
  @DF-RHF Final Energy:  -268.05858998364261
    Total Energy =                       -268.0585899836423778
  Basis Set: CC-PVTZ
  Basis Set:
  Basis Set: CC-PVTZ
  Basis Set:
  @DF-RHF Final Energy:  -268.05864648850797
    Total Energy =                       -268.0586464885080318
  Basis Set: CC-PVTZ
  Basis Set:
  Basis Set: CC-PVTZ
  Basis Set:
  @DF-RHF Final Energy:  -268.05865227257038
    Total Energy =                       -268.0586522725702707
  Basis Set: CC-PVTZ
  Basis Set:
  Charge       = 0
  Multiplicity = 1
  Basis Set: CC-PVTZ
  Basis Set:

    Orbital Energies (a.u.)
    -----------------------

    Doubly Occupied:

       1A    -20.555566     2A    -20.555276     3A    -11.270289
       4A    -11.269451     5A    -11.268676     6A     -1.389391
       7A     -1.371166     8A     -1.015266     9A     -0.930379
      10A     -0.836562    11A     -0.712906    12A     -0.675143
      13A     -0.665611    14A     -0.638108    15A     -0.600241
      16A     -0.576447    17A     -0.537524    18A     -0.495145
      19A     -0.491065    20A     -0.458835    21A     -0.409337

  @DF-RHF Final Energy:  -268.05865282724324

   => Energetics <=

    Nuclear Repulsion Energy =            192.3244421307142318
    One-Electron Energy =                -747.3214220867348558
    Two-Electron Energy =                 286.9383271287774164
    DFT Exchange-Correlation Energy =       0.0000000000000000
    Empirical Dispersion Energy =           0.0000000000000000
    PCM Polarization Energy =               0.0000000000000000
    EFP Energy =                            0.0000000000000000
    Total Energy =                       -268.0586528272431792
    Molecular point group: c1
  Basis Set: CC-PVTZ
  Basis Set:

  -Total Gradient:
     Atom            X                  Y                   Z
    ------   -----------------  -----------------  -----------------
       1        0.000023686114    -0.000010657616    -0.000023653137
       2       -0.000036410977     0.000015001424     0.000045360030
       3        0.000050068149    -0.000008869912     0.000044742424
       4        0.000110787127     0.001297064379    -0.001283072293
       5        0.000007821354     0.000007768779    -0.000015623363
       6       -0.000017733049    -0.000012859254    -0.000018558861
       7        0.000618987483    -0.001371740660     0.000575363531
       8       -0.000274155368    -0.000737680965     0.000872120340
       9       -0.000006141064    -0.000000919960     0.000005439530
      10       -0.000512129328     0.000815042728    -0.000161689502
      11        0.000020171182     0.000005835605    -0.000011832373
      12        0.000003924430     0.000000925204    -0.000021383355
      13        0.000011123948     0.000001090247    -0.000007212974

  **** Optimization is complete! (in 10 steps) ****
    Final optimized geometry and variables:
    Molecular point group: c1

    Geometry (in Angstrom), charge = 0, multiplicity = 1:

    H           -1.360421517473    -0.948143395604    -1.988219971385
    O           -1.779532465668    -0.372234422758    -1.375067343636
    C           -0.820238726484     0.340864776121    -0.644776984531
    C           -0.107632628256    -0.567290788662     0.347087250958
    H           -0.115260333256     0.828765209662    -1.310764472786
    H           -1.347970536263     1.113759549562    -0.103495267411
    O            0.768365510664     0.108039678651     1.193484998369
    H            0.413650676096    -1.367212274818    -0.181063014440
    H           -0.852853460351    -1.032333162365     0.977516762660
    C            1.969390724628     0.533011255659     0.633169200510
    H            1.832173495569     1.340467726197    -0.079199843465
    H            2.593146965129     0.892316713281     1.438600968387
    H            2.484295364247    -0.285116022291     0.133971889188

  Mulliken Charges: (a.u.)
   Center  Symbol    Alpha    Beta     Spin     Total
       1     H     0.39399  0.39399  0.00000  0.21201
       2     O     4.20219  4.20219  0.00000 -0.40437
       3     C     2.97523  2.97523  0.00000  0.04954
       4     C     2.98633  2.98633  0.00000  0.02733
       5     H     0.47162  0.47162  0.00000  0.05675
       6     H     0.45082  0.45082  0.00000  0.09836
       7     O     4.17713  4.17713  0.00000 -0.35426
       8     H     0.47795  0.47795  0.00000  0.04411
       9     H     0.44533  0.44533  0.00000  0.10934
      10     C     3.03416  3.03416  0.00000 -0.06832
      11     H     0.47006  0.47006  0.00000  0.05988
      12     H     0.44322  0.44322  0.00000  0.11357
      13     H     0.47197  0.47197  0.00000  0.05607

   Total alpha = 21.00000, Total beta = 21.00000, Total charge = -0.00000

*** Psi4 exiting successfully. Buy a developer a beer!
