  ==> Input File <==

--------------------------------------------------------------------------
set {
	reference rhf
	basis 6-31G*
}

set_num_threads( 4 )
memory 2 gb

molecule MOL {
0 1

H	 2.652209	 0.763231	 0.000000
O	 2.263154	 -0.100023	 0.000000
C	 0.912879	 -0.015685	 0.000000
C	 0.350257	 1.235801	 0.214057
C	 0.099325	 -1.118410	 -0.203005
H	 0.998912	 2.077784	 0.369363
C	 -1.024245	 1.372454	 0.222997
H	 0.536513	 -2.088893	 -0.368988
C	 -1.279578	 -0.966719	 -0.191466
H	 -1.455091	 2.343760	 0.389196
C	 -1.850444	 0.274553	 0.020703
H	 -1.904057	 -1.827893	 -0.349883
H	 -2.918938	 0.388637	 0.029035

	symmetry c1
}
set optking {
	frozen_dihedral = ("
		4 3 2 1
	")
}

ee = optimize('scf')
oeprop('DIPOLE', 'QUADRUPOLE', 'MULLIKEN_CHARGES')
f=open( 'psi4out.xyz', 'w' )
f.write( "13  " )
f.write( str(ee) + "\n" )
f.write( MOL.save_string_xyz() )
f.close()
--------------------------------------------------------------------------

    Molecular point group: c1
  Charge       = 0
  Multiplicity = 1
  Basis Set: 6-31G*
  Basis Set:
  @DF-RHF Final Energy:  -305.55535559400283
    Total Energy =                       -305.5553555940028900
    Molecular point group: c1
  Basis Set: 6-31G*
  Basis Set:
  Basis Set: 6-31G*
  Basis Set:
  @DF-RHF Final Energy:  -305.55728745941576
    Total Energy =                       -305.5572874594158179
  Basis Set: 6-31G*
  Basis Set:
  Basis Set: 6-31G*
  Basis Set:
  @DF-RHF Final Energy:  -305.55746302858159
    Total Energy =                       -305.5574630285816511
  Basis Set: 6-31G*
  Basis Set:
  Basis Set: 6-31G*
  Basis Set:
  @DF-RHF Final Energy:  -305.55748645096327
    Total Energy =                       -305.5574864509630970
  Basis Set: 6-31G*
  Basis Set:
  Basis Set: 6-31G*
  Basis Set:
  @DF-RHF Final Energy:  -305.55749013468426
    Total Energy =                       -305.5574901346843149
  Basis Set: 6-31G*
  Basis Set:
  Charge       = 0
  Multiplicity = 1
  Basis Set: 6-31G*
  Basis Set:

    Orbital Energies (a.u.)
    -----------------------

    Doubly Occupied:

       1A    -20.590402     2A    -11.297986     3A    -11.236857
       4A    -11.234775     5A    -11.228051     6A    -11.221907
       7A    -11.221745     8A     -1.408883     9A     -1.147266
      10A     -1.018634    11A     -1.004011    12A     -0.846428
      13A     -0.822069    14A     -0.735868    15A     -0.683775
      16A     -0.649902    17A     -0.609066    18A     -0.589783
      19A     -0.588178    20A     -0.560819    21A     -0.514017
      22A     -0.489645    23A     -0.478912    24A     -0.338125
      25A     -0.309524

  @DF-RHF Final Energy:  -305.55749029542824

   => Energetics <=

    Nuclear Repulsion Energy =            273.1411522849163021
    One-Electron Energy =                -955.7440322943972433
    Two-Electron Energy =                 377.0453897140527033
    DFT Exchange-Correlation Energy =       0.0000000000000000
    Empirical Dispersion Energy =           0.0000000000000000
    PCM Polarization Energy =               0.0000000000000000
    EFP Energy =                            0.0000000000000000
    Total Energy =                       -305.5574902954282379
    Molecular point group: c1
  Basis Set: 6-31G*
  Basis Set:

  -Total Gradient:
     Atom            X                  Y                   Z
    ------   -----------------  -----------------  -----------------
       1       -0.000002748300    -0.000000927719    -0.000912325990
       2        0.000037283183    -0.000066896672     0.001561918965
       3        0.000013655224     0.000203379261    -0.001409412863
       4       -0.000001068012    -0.000106748345     0.000716768722
       5       -0.000060733445    -0.000004599654     0.000018060710
       6        0.000001475055    -0.000002283433     0.000004095101
       7        0.000001647018     0.000007932434     0.000010836863
       8        0.000003762146     0.000003928359    -0.000001186298
       9        0.000008252669    -0.000014234921     0.000048955045
      10       -0.000005916765    -0.000004801359     0.000000936065
      11        0.000006427843    -0.000016808528    -0.000030482628
      12       -0.000001326559    -0.000000691266    -0.000008688707
      13       -0.000000710061     0.000002751845     0.000000525016

  **** Optimization is complete! (in 6 steps) ****
    Final optimized geometry and variables:
    Molecular point group: c1

    Geometry (in Angstrom), charge = 0, multiplicity = 1:

    H            2.701856449831     0.562716023353    -0.012615443658
    O            2.249629156254    -0.269130058635    -0.018714747262
    C            0.908973513955    -0.083539032726    -0.010726694863
    C            0.332755181665     1.157454249788     0.207290874890
    C            0.106947546820    -1.199009317808    -0.210985796814
    H            0.955942542899     2.020782710231     0.370707164824
    C           -1.048719850096     1.281714890588     0.215763472121
    H            0.573743687892    -2.152296452223    -0.375540749857
    C           -1.267757539235    -1.061875575527    -0.195467358739
    H           -1.488268751972     2.248903931482     0.383259095823
    C           -1.857036565628     0.177613159244     0.015828630456
    H           -1.884619052059    -1.928947695787    -0.351854065078
    H           -2.927043399792     0.277206321820     0.024645202264

  Mulliken Charges: (a.u.)
   Center  Symbol    Alpha    Beta     Spin     Total
       1     H     0.27189  0.27189  0.00000  0.45622
       2     O     4.37862  4.37862  0.00000 -0.75724
       3     C     2.79466  2.79466  0.00000  0.41068
       4     C     3.14380  3.14380  0.00000 -0.28761
       5     C     3.12337  3.12337  0.00000 -0.24674
       6     H     0.40447  0.40447  0.00000  0.19107
       7     C     3.09040  3.09040  0.00000 -0.18080
       8     H     0.39170  0.39170  0.00000  0.21660
       9     C     3.09106  3.09106  0.00000 -0.18213
      10     H     0.39837  0.39837  0.00000  0.20325
      11     C     3.11308  3.11308  0.00000 -0.22616
      12     H     0.39802  0.39802  0.00000  0.20395
      13     H     0.40056  0.40056  0.00000  0.19888

   Total alpha = 25.00000, Total beta = 25.00000, Total charge =  0.00000
