  ==> Input File <==

--------------------------------------------------------------------------
set {
	reference rhf
	basis 6-31G*
}

set_num_threads( 4 )
memory 2 gb

molecule MOL {
0 1

H	 1.225363	 -1.607489	 1.494207
O	 0.550353	 -1.039178	 1.152046
C	 1.135793	 0.118896	 0.612333
C	 0.031547	 1.023609	 0.088541
H	 1.805954	 -0.139105	 -0.205720
H	 1.728305	 0.633437	 1.365512
C	 -1.134819	 0.293262	 -0.585751
H	 0.474374	 1.714721	 -0.623187
H	 -0.338529	 1.620940	 0.920081
C	 -1.917817	 -0.639439	 0.339494
H	 -0.758119	 -0.268455	 -1.433105
H	 -1.813832	 1.041889	 -0.986690
H	 -2.777680	 -1.057197	 -0.174994
H	 -1.310268	 -1.471279	 0.680599
H	 -2.283753	 -0.111424	 1.216626

	symmetry c1
}
set optking {
	frozen_dihedral = ("
		2 3 4 8
	")
}

ee = optimize('scf')
oeprop('DIPOLE', 'QUADRUPOLE', 'MULLIKEN_CHARGES')
f=open( 'psi4out.xyz', 'w' )
f.write( "15  " )
f.write( str(ee) + "\n" )
f.write( MOL.save_string_xyz() )
f.close()
--------------------------------------------------------------------------

    Molecular point group: c1
  Charge       = 0
  Multiplicity = 1
  Basis Set: 6-31G*
  Basis Set:
  @DF-RHF Final Energy:  -232.13094514739797
    Total Energy =                       -232.1309451473979379
    Molecular point group: c1
  Basis Set: 6-31G*
  Basis Set:
  Basis Set: 6-31G*
  Basis Set:
  @DF-RHF Final Energy:  -232.13738312870879
    Total Energy =                       -232.1373831287086205
  Basis Set: 6-31G*
  Basis Set:
  Basis Set: 6-31G*
  Basis Set:
  @DF-RHF Final Energy:  -232.13894328490528
    Total Energy =                       -232.1389432849052810
  Basis Set: 6-31G*
  Basis Set:
  Basis Set: 6-31G*
  Basis Set:
  @DF-RHF Final Energy:  -232.13962834510409
    Total Energy =                       -232.1396283451039722
  Basis Set: 6-31G*
  Basis Set:
  Basis Set: 6-31G*
  Basis Set:
  @DF-RHF Final Energy:  -232.13970934106953
    Total Energy =                       -232.1397093410695902
  Basis Set: 6-31G*
  Basis Set:
  Basis Set: 6-31G*
  Basis Set:
  @DF-RHF Final Energy:  -232.13971439941102
    Total Energy =                       -232.1397143994112753
  Basis Set: 6-31G*
  Basis Set:
  Charge       = 0
  Multiplicity = 1
  Basis Set: 6-31G*
  Basis Set:

    Orbital Energies (a.u.)
    -----------------------

    Doubly Occupied:

       1A    -20.554777     2A    -11.269532     3A    -11.213586
       4A    -11.208171     5A    -11.192102     6A     -1.361810
       7A     -1.058757     8A     -0.968935     9A     -0.858498
      10A     -0.777203    11A     -0.705278    12A     -0.645445
      13A     -0.602772    14A     -0.580597    15A     -0.542765
      16A     -0.536421    17A     -0.508902    18A     -0.471309
      19A     -0.460634    20A     -0.445318    21A     -0.430531

  @DF-RHF Final Energy:  -232.13971585814406

   => Energetics <=

    Nuclear Repulsion Energy =            192.8148440632413951
    One-Electron Energy =                -697.1224272132099031
    Two-Electron Energy =                 272.1678672918242228
    DFT Exchange-Correlation Energy =       0.0000000000000000
    Empirical Dispersion Energy =           0.0000000000000000
    PCM Polarization Energy =               0.0000000000000000
    EFP Energy =                            0.0000000000000000
    Total Energy =                       -232.1397158581443136
    Molecular point group: c1
  Basis Set: 6-31G*
  Basis Set:

  -Total Gradient:
     Atom            X                  Y                   Z
    ------   -----------------  -----------------  -----------------
       1       -0.000001362112     0.000019983662    -0.000009747274
       2        0.000185701656    -0.001341492393    -0.003749830324
       3       -0.000393959636     0.001209027874     0.004097754848
       4        0.000917543823     0.003113722144     0.003634142154
       5        0.000037872126    -0.000031477867     0.000007570740
       6       -0.000019221815    -0.000019610947     0.000001478776
       7        0.000025833913    -0.000010829435    -0.000102754395
       8       -0.000746396396    -0.002977983855    -0.003989701488
       9       -0.000034984421     0.000024125866     0.000019153190
      10       -0.000008976702     0.000092605185     0.000010500494
      11        0.000002216836     0.000028992726     0.000034599190
      12        0.000013944770    -0.000003161692     0.000005775326
      13       -0.000014171568    -0.000037739874     0.000013947307
      14        0.000033999320    -0.000057826514     0.000027897025
      15        0.000001960203    -0.000008334877    -0.000000785571

  **** Optimization is complete! (in 7 steps) ****
    Final optimized geometry and variables:
    Molecular point group: c1

    Geometry (in Angstrom), charge = 0, multiplicity = 1:

    H            1.805555555584    -1.524918768766     0.912637133492
    O            1.033882302598    -1.025328597748     0.687300821911
    C            1.418136897414     0.250560098803     0.242268079635
    C            0.193661628682     1.081151045323    -0.137314200377
    H            2.058653785509     0.148763884104    -0.632790077530
    H            1.992955809887     0.770080359263     1.006264716236
    C           -0.898251058917     0.312483986774    -0.903022880640
    H            0.552031928771     1.875255116355    -0.787759219983
    H           -0.236062813628     1.547038091611     0.744778468405
    C           -1.906640908115    -0.416629148155    -0.013867576580
    H           -0.432084531711    -0.394798128957    -1.583696944883
    H           -1.438919806856     1.022253857087    -1.524400336859
    H           -2.660889225462    -0.912769641389    -0.618504276511
    H           -1.422836689700    -1.159710778295     0.604849245914
    H           -2.420907219653     0.285097063404     0.638248221894

  Mulliken Charges: (a.u.)
   Center  Symbol    Alpha    Beta     Spin     Total
       1     H     0.28021  0.28021  0.00000  0.43959
       2     O     4.36908  4.36908  0.00000 -0.73815
       3     C     2.99414  2.99414  0.00000  0.01173
       4     C     3.16627  3.16627  0.00000 -0.33254
       5     H     0.43254  0.43254  0.00000  0.13492
       6     H     0.42938  0.42938  0.00000  0.14124
       7     C     3.14954  3.14954  0.00000 -0.29909
       8     H     0.42128  0.42128  0.00000  0.15744
       9     H     0.41767  0.41767  0.00000  0.16466
      10     C     3.24113  3.24113  0.00000 -0.48227
      11     H     0.41947  0.41947  0.00000  0.16106
      12     H     0.42459  0.42459  0.00000  0.15082
      13     H     0.42548  0.42548  0.00000  0.14903
      14     H     0.40129  0.40129  0.00000  0.19743
      15     H     0.42794  0.42794  0.00000  0.14412

   Total alpha = 21.00000, Total beta = 21.00000, Total charge =  0.00000
