                              Psi4 1.0.54 Driver

  ==> Input File <==

--------------------------------------------------------------------------
set {
	reference rhf
	basis cc-pvtz
}

set_num_threads( 4 )
memory 2 gb

molecule MOL {
0 1

O	 -2.071633	 -1.227563	 -0.223463
C	 -1.652164	 -0.152425	 0.058082
C	 -0.327811	 0.006324	 0.778296
C	 -2.402515	 1.108629	 -0.298924
C	 0.843231	 -0.001575	 -0.211665
H	 -0.319484	 0.928173	 1.350354
H	 -0.227804	 -0.823091	 1.466705
C	 2.167775	 -0.378048	 0.445664
H	 0.939808	 0.977007	 -0.675070
H	 0.618890	 -0.701605	 -1.009158
C	 3.333080	 -0.399482	 -0.537579
H	 2.384286	 0.322611	 1.247364
H	 2.069708	 -1.354445	 0.911036
H	 3.478728	 0.573844	 -0.994153
H	 3.159198	 -1.114807	 -1.334099
H	 4.257200	 -0.673671	 -0.042378
H	 -3.240910	 0.874416	 -0.936711
H	 -1.747554	 1.818823	 -0.790984
H	 -2.760419	 1.579708	 0.610998

	symmetry c1
}
set optking {
	frozen_dihedral = ("
		9 5 3 2
	")
}

ee,wfn = optimize('scf', return_wfn=True)
oeprop( wfn, 'DIPOLE', 'QUADRUPOLE', 'MULLIKEN_CHARGES')
f=open( 'psi4out.xyz', 'w' )
f.write( "19  " )
f.write( str(ee) + "\n" )
f.write( MOL.save_string_xyz() )
f.close()
--------------------------------------------------------------------------

    Molecular point group: c1
  Charge       = 0
  Multiplicity = 1
  Basis Set: CC-PVTZ
  Basis Set:
  @DF-RHF Final Energy:  -309.17579142176993
    Total Energy =                       -309.1757914217699863
    Molecular point group: c1
  Basis Set: CC-PVTZ
  Basis Set:
  Basis Set: CC-PVTZ
  Basis Set:
  @DF-RHF Final Energy:  -309.17593480510970
    Total Energy =                       -309.1759348051097049
  Basis Set: CC-PVTZ
  Basis Set:
  Basis Set: CC-PVTZ
  Basis Set:
  @DF-RHF Final Energy:  -309.17587778337861
    Total Energy =                       -309.1758777833786098
  Basis Set: CC-PVTZ
  Basis Set:
  Basis Set: CC-PVTZ
  Basis Set:
  @DF-RHF Final Energy:  -309.17602826415521
    Total Energy =                       -309.1760282641552067
  Basis Set: CC-PVTZ
  Basis Set:
  @DF-RHF Final Energy:  -309.17603648653113
    Total Energy =                       -309.1760364865311317
  Basis Set: CC-PVTZ
  Basis Set:
  @DF-RHF Final Energy:  -309.17604845252492
    Total Energy =                       -309.1760484525249240
  Basis Set: CC-PVTZ
  Basis Set:
  Basis Set: CC-PVTZ
  Basis Set:
  @DF-RHF Final Energy:  -309.17605260213026
    Total Energy =                       -309.1760526021301985
  Basis Set: CC-PVTZ
  Basis Set:
  Basis Set: CC-PVTZ
  Basis Set:
  @DF-RHF Final Energy:  -309.17605388876444
    Total Energy =                       -309.1760538887644998
  Basis Set: CC-PVTZ
  Basis Set:
  Charge       = 0
  Multiplicity = 1
  Basis Set: CC-PVTZ
  Basis Set:

    Orbital Energies (a.u.)
    -----------------------

    Doubly Occupied:

       1A    -20.536983     2A    -11.319292     3A    -11.230014
       4A    -11.227738     5A    -11.226576     6A    -11.223005
       7A    -11.213303     8A     -1.397073     9A     -1.092990
      10A     -1.030193    11A     -0.983791    12A     -0.891905
      13A     -0.807763    14A     -0.734698    15A     -0.666510
      16A     -0.644620    17A     -0.627525    18A     -0.614913
      19A     -0.581803    20A     -0.576118    21A     -0.555154
      22A     -0.533924    23A     -0.516816    24A     -0.501992
      25A     -0.481483    26A     -0.475739    27A     -0.472079
      28A     -0.399255

  @DF-RHF Final Energy:  -309.17605405050637

   => Energetics <=

    Nuclear Repulsion Energy =            301.8894063794243152
    One-Electron Energy =               -1017.0044108349171665
    Two-Electron Energy =                 405.9389504049863149
    DFT Exchange-Correlation Energy =       0.0000000000000000
    Empirical Dispersion Energy =           0.0000000000000000
    PCM Polarization Energy =               0.0000000000000000
    EFP Energy =                            0.0000000000000000
    Total Energy =                       -309.1760540505065933
    Molecular point group: c1
  Basis Set: CC-PVTZ
  Basis Set:

  -Total Gradient:
     Atom            X                  Y                   Z
    ------   -----------------  -----------------  -----------------
       1        0.000005529986     0.000021862565    -0.000007749666
       2        0.000168297912    -0.002357496642     0.000131565146
       3        0.000262253791     0.003407280049     0.000379830384
       4       -0.000025090240    -0.000004938010     0.000036882769
       5       -0.002469563060    -0.001899941812    -0.002855922068
       6       -0.000000391492    -0.000006099575     0.000007166417
       7       -0.000004446871     0.000004187078    -0.000003835207
       8       -0.000015030816     0.000006902194    -0.000008884317
       9        0.002060667882     0.000842373838     0.002347887589
      10        0.000000983369    -0.000008241788    -0.000006669667
      11       -0.000002436194    -0.000002232765    -0.000000150917
      12        0.000001852091     0.000001112213     0.000001266986
      13        0.000000922551    -0.000000410048    -0.000000373636
      14        0.000000498277     0.000000731800     0.000003215800
      15       -0.000001553265    -0.000001225238    -0.000000327059
      16       -0.000001983755     0.000001096679     0.000000128204
      17        0.000011178573     0.000000872514    -0.000000473997
      18       -0.000003665168    -0.000009307906    -0.000004421039
      19        0.000011976430     0.000003474849    -0.000019135722

  **** Optimization is complete! (in 9 steps) ****
    Final optimized geometry and variables:
    Molecular point group: c1

    Geometry (in Angstrom), charge = 0, multiplicity = 1:

    O           -2.166427233289    -1.077228885214    -0.036673888296
    C           -1.653195568745    -0.016016605552     0.109889980620
    C           -0.305010644925     0.112831743392     0.789941806018
    C           -2.304902777852     1.252602719819    -0.387810857578
    C            0.846605340356     0.130777256349    -0.228902412322
    H           -0.270688136155     1.007838222516     1.401711886210
    H           -0.201634690226    -0.746980755916     1.438593538576
    C            2.186161587316    -0.235361126393     0.407441743350
    H            0.937458086508     1.122365756329    -0.662123434262
    H            0.632111256929    -0.561517683098    -1.036049326521
    C            3.348742822328    -0.168196979260    -0.576659817010
    H            2.380578319658     0.431351195562     1.243306533104
    H            2.120680666729    -1.236151585350     0.822893965878
    H            3.464701724837     0.832241150334    -0.980085329750
    H            3.194274118180    -0.844556958852    -1.410555167920
    H            4.281814495105    -0.441394486942    -0.098035367495
    H           -3.183689926643     1.015639109258    -0.967548263380
    H           -1.610383335551     1.830368441530    -0.987098202004
    H           -2.585885164174     1.867869315712     0.460837325684

  Mulliken Charges: (a.u.)
   Center  Symbol    Alpha    Beta     Spin     Total
       1     O     4.17655  4.17655  0.00000 -0.35311
       2     C     2.85879  2.85879  0.00000  0.28242
       3     C     3.09738  3.09738  0.00000 -0.19477
       4     C     3.15476  3.15476  0.00000 -0.30953
       5     C     3.09889  3.09889  0.00000 -0.19778
       6     H     0.44792  0.44792  0.00000  0.10415
       7     H     0.44003  0.44003  0.00000  0.11994
       8     C     3.08393  3.08393  0.00000 -0.16786
       9     H     0.45347  0.45347  0.00000  0.09305
      10     H     0.44369  0.44369  0.00000  0.11261
      11     C     3.14974  3.14974  0.00000 -0.29949
      12     H     0.45390  0.45390  0.00000  0.09220
      13     H     0.44989  0.44989  0.00000  0.10021
      14     H     0.45546  0.45546  0.00000  0.08909
      15     H     0.45303  0.45303  0.00000  0.09394
      16     H     0.44704  0.44704  0.00000  0.10593
      17     H     0.43578  0.43578  0.00000  0.12844
      18     H     0.45069  0.45069  0.00000  0.09862
      19     H     0.44904  0.44904  0.00000  0.10193

   Total alpha = 28.00000, Total beta = 28.00000, Total charge = -0.00000

*** Psi4 exiting successfully. Buy a developer a beer!
