                              Psi4 1.0.54 Driver

  ==> Input File <==

--------------------------------------------------------------------------
set {
	reference rhf
	basis cc-pvtz
}

set_num_threads( 4 )
memory 2 gb

molecule MOL {
0 1

H	 -3.498985	 1.253143	 -1.010443
O	 -3.458596	 0.315260	 -0.960865
C	 -3.176635	 -0.080824	 0.355601
C	 -1.763371	 0.265266	 0.799691
H	 -3.321825	 -1.153438	 0.379502
H	 -3.895468	 0.357385	 1.043382
C	 -0.673390	 -0.426948	 -0.013392
H	 -1.631049	 1.344913	 0.747560
H	 -1.664587	 -0.001624	 1.849167
C	 0.737842	 -0.043159	 0.423759
H	 -0.806103	 -0.190518	 -1.063345
H	 -0.797221	 -1.503753	 0.074146
C	 1.824000	 -0.743224	 -0.390623
H	 0.850588	 1.033777	 0.343840
H	 0.868587	 -0.286314	 1.476203
C	 3.255957	 -0.453067	 0.062319
H	 1.718250	 -0.470599	 -1.438164
H	 1.658105	 -1.815850	 -0.339904
C	 3.707029	 0.992337	 -0.133857
H	 3.928201	 -1.104096	 -0.488158
H	 3.362667	 -0.724561	 1.109374
H	 3.605811	 1.294044	 -1.171549
H	 4.748333	 1.111029	 0.143343
H	 3.129882	 1.683078	 0.468956

	symmetry c1
}
set optking {
	frozen_dihedral = ("
		1 2 3 5
	")
}

ee,wfn = optimize('scf', return_wfn=True)
oeprop( wfn, 'DIPOLE', 'QUADRUPOLE', 'MULLIKEN_CHARGES')
f=open( 'psi4out.xyz', 'w' )
f.write( "24  " )
f.write( str(ee) + "\n" )
f.write( MOL.save_string_xyz() )
f.close()
--------------------------------------------------------------------------

    Molecular point group: c1
  Charge       = 0
  Multiplicity = 1
  Basis Set: CC-PVTZ
  Basis Set:
  @DF-RHF Final Energy:  -349.38040974524233
    Total Energy =                       -349.3804097452421047
    Molecular point group: c1
  Basis Set: CC-PVTZ
  Basis Set:
  Basis Set: CC-PVTZ
  Basis Set:
  @DF-RHF Final Energy:  -349.38041075009340
    Total Energy =                       -349.3804107500934037
  Basis Set: CC-PVTZ
  Basis Set:
  Charge       = 0
  Multiplicity = 1
  Basis Set: CC-PVTZ
  Basis Set:

    Orbital Energies (a.u.)
    -----------------------

    Doubly Occupied:

       1A    -20.546295     2A    -11.265584     3A    -11.214596
       4A    -11.211852     5A    -11.209822     6A    -11.209087
       7A    -11.208441     8A    -11.205074     9A     -1.364104
      10A     -1.089492    11A     -1.049153    12A     -0.986528
      13A     -0.915749    14A     -0.850738    15A     -0.800913
      16A     -0.776319    17A     -0.683680    18A     -0.654265
      19A     -0.625898    20A     -0.620505    21A     -0.596851
      22A     -0.585523    23A     -0.558678    24A     -0.541583
      25A     -0.516110    26A     -0.509166    27A     -0.499717
      28A     -0.473289    29A     -0.468342    30A     -0.460056
      31A     -0.456216    32A     -0.450662    33A     -0.421156

  @DF-RHF Final Energy:  -349.38041101876610

   => Energetics <=

    Nuclear Repulsion Energy =            384.8421430997930770
    One-Electron Energy =               -1236.3942202809414539
    Two-Electron Energy =                 502.1716661623827918
    DFT Exchange-Correlation Energy =       0.0000000000000000
    Empirical Dispersion Energy =           0.0000000000000000
    PCM Polarization Energy =               0.0000000000000000
    EFP Energy =                            0.0000000000000000
    Total Energy =                       -349.3804110187656420
    Molecular point group: c1
  Basis Set: CC-PVTZ
  Basis Set:

  -Total Gradient:
     Atom            X                  Y                   Z
    ------   -----------------  -----------------  -----------------
       1       -0.000342675590    -0.000022315366     0.000064611061
       2        0.000358341874     0.000049209127    -0.000063619800
       3        0.000264393875    -0.000079133571    -0.000082533964
       4        0.000017835200     0.000037031856    -0.000023516683
       5       -0.000298865634     0.000040263785     0.000084472898
       6        0.000008324561    -0.000012318911    -0.000002152128
       7       -0.000009967883    -0.000002103207     0.000010920760
       8        0.000005396978     0.000004762080     0.000000091542
       9       -0.000004026072    -0.000007547836     0.000003680573
      10       -0.000002720651    -0.000004282857     0.000005120790
      11       -0.000002867573     0.000002905921     0.000008067588
      12        0.000000598532    -0.000010527303    -0.000002813304
      13        0.000001050502     0.000007227162    -0.000004873981
      14       -0.000005866956    -0.000007316590    -0.000001123114
      15        0.000003216784    -0.000000036923     0.000003091285
      16       -0.000002369681     0.000000174179     0.000005761866
      17       -0.000000195718     0.000001693795    -0.000001923027
      18        0.000000914939     0.000001653329    -0.000001158235
      19        0.000003993718     0.000002703100    -0.000001488343
      20       -0.000000207384    -0.000002701282     0.000001651926
      21       -0.000000653526     0.000000681168     0.000001734685
      22       -0.000000678704     0.000002081453    -0.000001461888
      23        0.000000967688    -0.000000112974    -0.000001540088
      24        0.000006060725    -0.000001990134    -0.000001000422

  **** Optimization is complete! (in 3 steps) ****
    Final optimized geometry and variables:
    Molecular point group: c1

    Geometry (in Angstrom), charge = 0, multiplicity = 1:

    H           -3.495572583544     1.252834995053    -1.009424291715
    O           -3.457513887841     0.315144229500    -0.957790355689
    C           -3.175762497977    -0.079154538904     0.359413711957
    C           -1.762081490488     0.267273767947     0.801747720861
    H           -3.323513234540    -1.151417531115     0.386212237645
    H           -3.894099946707     0.360657597515     1.046620880384
    C           -0.673678181008    -0.424466872172    -0.013676225037
    H           -1.630194403859     1.346791662778     0.749264647597
    H           -1.661572457821    -0.000334670251     1.850975017257
    C            0.738476250046    -0.043702363216     0.423235186387
    H           -0.807339330691    -0.184874238996    -1.062752863898
    H           -0.798793552720    -1.501382628202     0.071356848086
    C            1.823123081417    -0.743546798958    -0.393412191238
    H            0.852578328594     1.033220951556     0.345390198815
    H            0.869759969213    -0.289122308117     1.475116020138
    C            3.255958643359    -0.455507995755     0.058259274574
    H            1.716384327619    -0.469358117368    -1.440448643205
    H            1.656256637702    -1.816089734531    -0.344079679637
    C            3.708471357670     0.989684260045    -0.136402813299
    H            3.926880842637    -1.106446272155    -0.493953504735
    H            3.363694004765    -0.728688831510     1.104783637235
    H            3.604685228392     1.293571018246    -1.173204732177
    H            4.750730754700     1.106463609266     0.138032733650
    H            3.134003701140     1.680053417256     0.469374138819

  Mulliken Charges: (a.u.)
   Center  Symbol    Alpha    Beta     Spin     Total
       1     H     0.39524  0.39524  0.00000  0.20953
       2     O     4.20370  4.20370  0.00000 -0.40740
       3     C     2.97904  2.97904  0.00000  0.04192
       4     C     3.09979  3.09979  0.00000 -0.19958
       5     H     0.45871  0.45871  0.00000  0.08257
       6     H     0.46016  0.46016  0.00000  0.07968
       7     C     3.08713  3.08713  0.00000 -0.17425
       8     H     0.45946  0.45946  0.00000  0.08107
       9     H     0.45391  0.45391  0.00000  0.09217
      10     C     3.09160  3.09160  0.00000 -0.18320
      11     H     0.44614  0.44614  0.00000  0.10772
      12     H     0.45526  0.45526  0.00000  0.08948
      13     C     3.09452  3.09452  0.00000 -0.18904
      14     H     0.45339  0.45339  0.00000  0.09323
      15     H     0.45631  0.45631  0.00000  0.08739
      16     C     3.09015  3.09015  0.00000 -0.18030
      17     H     0.45358  0.45358  0.00000  0.09285
      18     H     0.44976  0.44976  0.00000  0.10048
      19     C     3.15251  3.15251  0.00000 -0.30501
      20     H     0.44863  0.44863  0.00000  0.10273
      21     H     0.45526  0.45526  0.00000  0.08948
      22     H     0.45485  0.45485  0.00000  0.09029
      23     H     0.44666  0.44666  0.00000  0.10667
      24     H     0.45424  0.45424  0.00000  0.09152

   Total alpha = 33.00000, Total beta = 33.00000, Total charge = -0.00000

*** Psi4 exiting successfully. Buy a developer a beer!
