  ==> Input File <==

--------------------------------------------------------------------------
set {
	reference rhf
	basis 6-31G*
}

set_num_threads( 1 )
memory 2 gb

molecule MOL {
0 1

O	 -2.847792	 1.255502	 -0.339710
C	 -2.668563	 0.129746	 -0.000350
C	 -3.764801	 -0.788578	 0.475268
O	 -1.481751	 -0.454642	 0.000584
H	 -4.509414	 -0.875792	 -0.306913
H	 -3.387166	 -1.766890	 0.733601
H	 -4.245250	 -0.339930	 1.336525
C	 -0.334255	 0.388708	 0.000906
C	 0.891947	 -0.504646	 0.000751
H	 -0.365390	 1.025305	 -0.873475
H	 -0.365484	 1.024911	 0.875569
C	 2.191998	 0.301789	 0.000897
H	 0.855148	 -1.151283	 -0.871571
H	 0.855132	 -1.151660	 0.872805
C	 3.441114	 -0.581407	 0.000108
H	 2.215074	 0.954890	 -0.869742
H	 2.215465	 0.953923	 0.872248
C	 4.739576	 0.224112	 -0.001102
H	 3.419457	 -1.233487	 -0.870178
H	 3.420834	 -1.233096	 0.870717
H	 4.804918	 0.861552	 -0.878265
H	 5.606527	 -0.429058	 -0.001824
H	 4.806469	 0.861674	 0.875853

	symmetry c1
}
set optking {
	frozen_dihedral = ("
		13 9 8 10,
		2 4 8 10,
		16 12 9 13,
		19 15 12 16
	")
}

ee = energy('scf')
oeprop('DIPOLE', 'QUADRUPOLE', 'MULLIKEN_CHARGES')
f=open( 'psi4out.xyz', 'w' )
f.write( "23  " )
f.write( str(ee) + "\n" )
f.write( MOL.save_string_xyz() )
f.close()
--------------------------------------------------------------------------

    Molecular point group: c1

    Geometry (in Angstrom), charge = 0, multiplicity = 1:

       Center              X                  Y                   Z               Mass
    ------------   -----------------  -----------------  -----------------  -----------------
           O         -2.849020063648     1.252981772544    -0.355640963776    15.994914619560
           C         -2.669791063648     0.127225772544    -0.016280963776    12.000000000000
           C         -3.766029063648    -0.791098227456     0.459337036224    12.000000000000
           O         -1.482979063648    -0.457162227456    -0.015346963776    15.994914619560
           H         -4.510642063648    -0.878312227456    -0.322843963776     1.007825032070
           H         -3.388394063648    -1.769410227456     0.717670036224     1.007825032070
           H         -4.246478063648    -0.342450227456     1.320594036224     1.007825032070
           C         -0.335483063648     0.386187772544    -0.015024963776    12.000000000000
           C          0.890718936352    -0.507166227456    -0.015179963776    12.000000000000
           H         -0.366618063648     1.022784772544    -0.889405963776     1.007825032070
           H         -0.366712063648     1.022390772544     0.859638036224     1.007825032070
           C          2.190769936352     0.299268772544    -0.015033963776    12.000000000000
           H          0.853919936352    -1.153803227456    -0.887501963776     1.007825032070
           H          0.853903936352    -1.154180227456     0.856874036224     1.007825032070
           C          3.439885936352    -0.583927227456    -0.015822963776    12.000000000000
           H          2.213845936352     0.952369772544    -0.885672963776     1.007825032070
           H          2.214236936352     0.951402772544     0.856317036224     1.007825032070
           C          4.738347936352     0.221591772544    -0.017032963776    12.000000000000
           H          3.418228936352    -1.236007227456    -0.886108963776     1.007825032070
           H          3.419605936352    -1.235616227456     0.854786036224     1.007825032070
           H          4.803689936352     0.859031772544    -0.894195963776     1.007825032070
           H          5.605298936352    -0.431578227456    -0.017754963776     1.007825032070
           H          4.805240936352     0.859153772544     0.859922036224     1.007825032070

  Charge       = 0
  Multiplicity = 1
  Basis Set: 6-31G*
  Basis Set:

    Orbital Energies (a.u.)
    -----------------------

    Doubly Occupied:

       1A    -20.600527     2A    -20.541327     3A    -11.374252
       4A    -11.282514     5A    -11.232248     6A    -11.224737
       7A    -11.224102     8A    -11.221892     9A    -11.213135
      10A     -1.467205    11A     -1.360893    12A     -1.094421
      13A     -1.041983    14A     -1.003630    15A     -0.931373
      16A     -0.841905    17A     -0.803026    18A     -0.774543
      19A     -0.693810    20A     -0.683720    21A     -0.666527
      22A     -0.646941    23A     -0.607095    24A     -0.588667
      25A     -0.582433    26A     -0.567841    27A     -0.557783
      28A     -0.540297    29A     -0.520535    30A     -0.504972
      31A     -0.491509    32A     -0.478160    33A     -0.471457
      34A     -0.466516    35A     -0.450282    36A     -0.434371

  @DF-RHF Final Energy:  -422.97686278446628

   => Energetics <=

    Nuclear Repulsion Energy =            449.5668705853808547
    One-Electron Energy =               -1466.7142017473938722
    Two-Electron Energy =                 594.1704683775490139
    DFT Exchange-Correlation Energy =       0.0000000000000000
    Empirical Dispersion Energy =           0.0000000000000000
    PCM Polarization Energy =               0.0000000000000000
    EFP Energy =                            0.0000000000000000
    Total Energy =                       -422.9768627844639468

  Mulliken Charges: (a.u.)
   Center  Symbol    Alpha    Beta     Spin     Total
       1     O     4.28170  4.28170  0.00000 -0.56339
       2     C     2.61512  2.61512  0.00000  0.76976
       3     C     3.28874  3.28874  0.00000 -0.57747
       4     O     4.31355  4.31355  0.00000 -0.62709
       5     H     0.39749  0.39749  0.00000  0.20502
       6     H     0.39994  0.39994  0.00000  0.20012
       7     H     0.39753  0.39753  0.00000  0.20495
       8     C     2.99638  2.99638  0.00000  0.00724
       9     C     3.16479  3.16479  0.00000 -0.32958
      10     H     0.40643  0.40643  0.00000  0.18714
      11     H     0.41507  0.41507  0.00000  0.16986
      12     C     3.16013  3.16013  0.00000 -0.32025
      13     H     0.41304  0.41304  0.00000  0.17392
      14     H     0.41488  0.41488  0.00000  0.17023
      15     C     3.15145  3.15145  0.00000 -0.30291
      16     H     0.42022  0.42022  0.00000  0.15956
      17     H     0.42140  0.42140  0.00000  0.15719
      18     C     3.23988  3.23988  0.00000 -0.47976
      19     H     0.42112  0.42112  0.00000  0.15776
      20     H     0.42152  0.42152  0.00000  0.15695
      21     H     0.42067  0.42067  0.00000  0.15866
      22     H     0.41794  0.41794  0.00000  0.16412
      23     H     0.42101  0.42101  0.00000  0.15797

   Total alpha = 36.00000, Total beta = 36.00000, Total charge = -0.00000
