                              Psi4 1.0.54 Driver

  ==> Input File <==

--------------------------------------------------------------------------
set {
	reference rhf
	basis cc-pvtz
}

set_num_threads( 4 )
memory 2 gb

molecule MOL {
0 1

H	 -4.230259	 0.539112	 0.036360
O	 -3.515113	 -0.019339	 -0.206321
C	 -2.302264	 0.528872	 0.237390
C	 -1.175688	 -0.398187	 -0.171891
H	 -2.148018	 1.514076	 -0.197759
H	 -2.310727	 0.646384	 1.319032
C	 0.196029	 0.106276	 0.266738
H	 -1.201873	 -0.515469	 -1.250677
H	 -1.365975	 -1.378728	 0.252664
C	 1.330220	 -0.826136	 -0.155230
H	 0.359542	 1.097229	 -0.145561
H	 0.212134	 0.218135	 1.348778
C	 2.719700	 -0.407669	 0.328325
H	 1.339388	 -0.911200	 -1.239363
H	 1.119001	 -1.821953	 0.224128
C	 3.807486	 -0.447524	 -0.742419
H	 3.010362	 -1.063646	 1.143136
H	 2.666150	 0.592513	 0.750464
H	 3.879379	 -1.434740	 -1.187725
H	 3.619052	 0.261562	 -1.539525
H	 4.774958	 -0.207414	 -0.316371

	symmetry c1
}
set optking {
	frozen_dihedral = ("
		16 13 10 14
	")
}

ee,wfn = optimize('scf', return_wfn=True)
oeprop( wfn, 'DIPOLE', 'QUADRUPOLE', 'MULLIKEN_CHARGES')
f=open( 'psi4out.xyz', 'w' )
f.write( "21  " )
f.write( str(ee) + "\n" )
f.write( MOL.save_string_xyz() )
f.close()
--------------------------------------------------------------------------

    Molecular point group: c1
  Charge       = 0
  Multiplicity = 1
  Basis Set: CC-PVTZ
  Basis Set:
  @DF-RHF Final Energy:  -310.32932107427780
    Total Energy =                       -310.3293210742774590
    Molecular point group: c1
  Basis Set: CC-PVTZ
  Basis Set:
  Basis Set: CC-PVTZ
  Basis Set:
  @DF-RHF Final Energy:  -310.32976605233426
    Total Energy =                       -310.3297660523343211
  Basis Set: CC-PVTZ
  Basis Set:
  Basis Set: CC-PVTZ
  Basis Set:
  @DF-RHF Final Energy:  -310.32981790515964
    Total Energy =                       -310.3298179051598709
  Basis Set: CC-PVTZ
  Basis Set:
  Basis Set: CC-PVTZ
  Basis Set:
  @DF-RHF Final Energy:  -310.32982082849043
    Total Energy =                       -310.3298208284905968
  Basis Set: CC-PVTZ
  Basis Set:
  Charge       = 0
  Multiplicity = 1
  Basis Set: CC-PVTZ
  Basis Set:

    Orbital Energies (a.u.)
    -----------------------

    Doubly Occupied:

       1A    -20.545467     2A    -11.265123     3A    -11.214239
       4A    -11.212449     5A    -11.210683     6A    -11.208910
       7A    -11.206420     8A     -1.363332     9A     -1.086182
      10A     -1.034854    11A     -0.957784    12A     -0.868360
      13A     -0.803633    14A     -0.790765    15A     -0.696197
      16A     -0.663308    17A     -0.627301    18A     -0.600787
      19A     -0.586489    20A     -0.565501    21A     -0.545071
      22A     -0.522633    23A     -0.508441    24A     -0.486807
      25A     -0.478086    26A     -0.462874    27A     -0.455148
      28A     -0.443561    29A     -0.437448

  @DF-RHF Final Energy:  -310.32982098408507

   => Energetics <=

    Nuclear Repulsion Energy =            309.7159829593641120
    One-Electron Energy =               -1034.3958971775125519
    Two-Electron Energy =                 414.3500932340634790
    DFT Exchange-Correlation Energy =       0.0000000000000000
    Empirical Dispersion Energy =           0.0000000000000000
    PCM Polarization Energy =               0.0000000000000000
    EFP Energy =                            0.0000000000000000
    Total Energy =                       -310.3298209840850177
    Molecular point group: c1
  Basis Set: CC-PVTZ
  Basis Set:

  -Total Gradient:
     Atom            X                  Y                   Z
    ------   -----------------  -----------------  -----------------
       1        0.000002945738     0.000001766612     0.000000522741
       2        0.000003129293    -0.000002794817    -0.000005476854
       3        0.000006214141     0.000000228826     0.000010198315
       4       -0.000013288178    -0.000001629289     0.000006676471
       5       -0.000001540235    -0.000004599270     0.000000972613
       6       -0.000000419174    -0.000000083823    -0.000004980737
       7       -0.000014395631     0.000006336676    -0.000018820523
       8        0.000006998869     0.000000573300     0.000008258099
       9       -0.000002886182     0.000003864449     0.000000122901
      10       -0.001084570570     0.004178629411    -0.000638411476
      11       -0.000001089760    -0.000011412340     0.000000259669
      12        0.000009108439    -0.000010217653    -0.000013232402
      13        0.000756538710    -0.003401270450     0.000885573624
      14        0.000744725574    -0.002725109277     0.000329622666
      15        0.000004148962     0.000005660101     0.000010610863
      16       -0.000407214019     0.001971777952    -0.000571863343
      17        0.000000199355    -0.000002632606    -0.000009770727
      18        0.000011388394    -0.000007860821    -0.000007438894
      19       -0.000003781905     0.000017036213     0.000014982155
      20        0.000005237878    -0.000011094008     0.000018127430
      21       -0.000021449707    -0.000007169186    -0.000015932589

  **** Optimization is complete! (in 5 steps) ****
    Final optimized geometry and variables:
    Molecular point group: c1

    Geometry (in Angstrom), charge = 0, multiplicity = 1:

    H           -4.294148436222     0.824057090151     0.025027355806
    O           -3.588482407873     0.247233461663    -0.201749099122
    C           -2.371291273633     0.766867166167     0.263764481560
    C           -1.260196937064    -0.189122228560    -0.120562575557
    H           -2.184246660779     1.746326110426    -0.171450844435
    H           -2.397756861061     0.888523278669     1.344626308929
    C            0.114206221516     0.283382835417     0.341340032884
    H           -1.268984647341    -0.311003349426    -1.199081630531
    H           -1.481923558963    -1.162738572806     0.304733396066
    C            1.239864621839    -0.669749803072    -0.049108713778
    H            0.320964856223     1.266201761934    -0.076092780053
    H            0.112397949877     0.406777601941     1.422004659656
    C            2.630845710717    -0.226791971668     0.443131886316
    H            1.255611608494    -0.794501268471    -1.127923045276
    H            1.015042857245    -1.656506383465     0.345525711282
    C            3.712175438585    -0.310314557730    -0.630048514908
    H            2.925065109595    -0.819750968455     1.302345385879
    H            2.577824869427     0.799401428111     0.794534080771
    H            3.817664718531    -1.323124135508    -1.005278042487
    H            3.469733718880     0.328382154162    -1.472749518780
    H            4.676126658982     0.000711531646    -0.243360967830

  Mulliken Charges: (a.u.)
   Center  Symbol    Alpha    Beta     Spin     Total
       1     H     0.39760  0.39760  0.00000  0.20481
       2     O     4.19431  4.19431  0.00000 -0.38862
       3     C     2.96319  2.96319  0.00000  0.07361
       4     C     3.08548  3.08548  0.00000 -0.17096
       5     H     0.47491  0.47491  0.00000  0.05018
       6     H     0.47497  0.47497  0.00000  0.05007
       7     C     3.10087  3.10087  0.00000 -0.20175
       8     H     0.45071  0.45071  0.00000  0.09859
       9     H     0.45097  0.45097  0.00000  0.09806
      10     C     3.09192  3.09192  0.00000 -0.18385
      11     H     0.45512  0.45512  0.00000  0.08975
      12     H     0.45401  0.45401  0.00000  0.09199
      13     C     3.08713  3.08713  0.00000 -0.17425
      14     H     0.45324  0.45324  0.00000  0.09353
      15     H     0.45142  0.45142  0.00000  0.09715
      16     C     3.14774  3.14774  0.00000 -0.29548
      17     H     0.45095  0.45095  0.00000  0.09811
      18     H     0.45571  0.45571  0.00000  0.08858
      19     H     0.45439  0.45439  0.00000  0.09122
      20     H     0.45552  0.45552  0.00000  0.08896
      21     H     0.44985  0.44985  0.00000  0.10029

   Total alpha = 29.00000, Total beta = 29.00000, Total charge = -0.00000

*** Psi4 exiting successfully. Buy a developer a beer!
