  ==> Input File <==

--------------------------------------------------------------------------
set {
	reference rhf
	basis cc-pvtz
}

set_num_threads( 4 )
memory 2 gb

molecule MOL {
0 1

H	 0.363380	 -3.210836	 1.616007
O	 0.520628	 -2.538065	 0.970726
C	 -0.493316	 -1.678138	 1.003366
C	 -0.318151	 -0.570512	 0.000144
O	 -1.403338	 -1.806076	 1.747315
C	 -1.454884	 0.441630	 -0.000560
H	 0.633568	 -0.093981	 0.212367
H	 -0.204366	 -1.035859	 -0.973717
C	 -2.822577	 -0.232186	 0.000063
H	 -1.359760	 1.084704	 -0.867077
H	 -1.359641	 1.085996	 0.864983
H	 -2.954352	 -0.858985	 -0.875745
H	 -3.615886	 0.505352	 0.000019
H	 -2.953878	 -0.858359	 0.876394

	symmetry c1
}
set optking {
	frozen_dihedral = ("
		7 4 6 10
	")
}

ee = optimize('scf')
oeprop('DIPOLE', 'QUADRUPOLE', 'MULLIKEN_CHARGES')
f=open( 'psi4out.xyz', 'w' )
f.write( "14  " )
f.write( str(ee) + "\n" )
f.write( MOL.save_string_xyz() )
f.close()
--------------------------------------------------------------------------

    Molecular point group: c1
  Charge       = 0
  Multiplicity = 1
  Basis Set: CC-PVTZ
  Basis Set:
  @DF-RHF Final Energy:  -305.99105597215646
    Total Energy =                       -305.9910559721565164
    Molecular point group: c1
  Basis Set: CC-PVTZ
  Basis Set:
  Basis Set: CC-PVTZ
  Basis Set:
  @DF-RHF Final Energy:  -305.99668053960158
    Total Energy =                       -305.9966805396016412
  Basis Set: CC-PVTZ
  Basis Set:
  Basis Set: CC-PVTZ
  Basis Set:
  @DF-RHF Final Energy:  -305.99762049996104
    Total Energy =                       -305.9976204999609877
  Basis Set: CC-PVTZ
  Basis Set:
  Basis Set: CC-PVTZ
  Basis Set:
  @DF-RHF Final Energy:  -305.99759609358478
    Total Energy =                       -305.9975960935848889
  Basis Set: CC-PVTZ
  Basis Set:
  @DF-RHF Final Energy:  -305.99818359210576
    Total Energy =                       -305.9981835921059883
  @DF-RHF Final Energy:  -305.99848171520347
    Total Energy =                       -305.9984817152036385
  Basis Set: CC-PVTZ
  Basis Set:
  @DF-RHF Final Energy:  -305.99853080709727
    Total Energy =                       -305.9985308070971541
  Basis Set: CC-PVTZ
  Basis Set:
  Basis Set: CC-PVTZ
  Basis Set:
  @DF-RHF Final Energy:  -305.99853938268302
    Total Energy =                       -305.9985393826830773
  Basis Set: CC-PVTZ
  Basis Set:
  Basis Set: CC-PVTZ
  Basis Set:
  @DF-RHF Final Energy:  -305.99854044440440
    Total Energy =                       -305.9985404444042842
  Basis Set: CC-PVTZ
  Basis Set:
  Charge       = 0
  Multiplicity = 1
  Basis Set: CC-PVTZ
  Basis Set:

    Orbital Energies (a.u.)
    -----------------------

    Doubly Occupied:

       1A    -20.605828     2A    -20.539531     3A    -11.374333
       4A    -11.240336     5A    -11.226923     6A    -11.208728
       7A     -1.478714     8A     -1.369366     9A     -1.082582
      10A     -0.977140    11A     -0.863908    12A     -0.789459
      13A     -0.706409    14A     -0.690994    15A     -0.662719
      16A     -0.619442    17A     -0.594031    18A     -0.568850
      19A     -0.558896    20A     -0.500312    21A     -0.490899
      22A     -0.486953    23A     -0.480343    24A     -0.443140

  @DF-RHF Final Energy:  -305.99854057105347

   => Energetics <=

    Nuclear Repulsion Energy =            245.7721092472548037
    One-Electron Energy =                -904.4216294894886232
    Two-Electron Energy =                 352.6509796711802665
    DFT Exchange-Correlation Energy =       0.0000000000000000
    Empirical Dispersion Energy =           0.0000000000000000
    PCM Polarization Energy =               0.0000000000000000
    EFP Energy =                            0.0000000000000000
    Total Energy =                       -305.9985405710535815
    Molecular point group: c1
  Basis Set: CC-PVTZ
  Basis Set:

  -Total Gradient:
     Atom            X                  Y                   Z
    ------   -----------------  -----------------  -----------------
       1        0.000001278728    -0.000000411401    -0.000000587008
       2       -0.000015830531     0.000014730693     0.000011061739
       3        0.000026822383    -0.000018120472    -0.000033955608
       4        0.000365145726     0.000461302848    -0.006422368196
       5       -0.000019743719     0.000005217050     0.000016504998
       6        0.002882202227     0.003501418107     0.004345808455
       7       -0.000718601823    -0.000892981452     0.004725183631
       8       -0.000002927296     0.000003103861     0.000006817456
       9        0.000019331211     0.000013194985     0.000001912069
      10       -0.002542476509    -0.003062941038    -0.002659242556
      11        0.000000289806    -0.000010094568    -0.000004512879
      12        0.000000847963    -0.000002323578     0.000001250014
      13        0.000003993457    -0.000005901026     0.000002232522
      14       -0.000000331619    -0.000006194010     0.000009895369

  **** Optimization is complete! (in 10 steps) ****
    Final optimized geometry and variables:
    Molecular point group: c1

    Geometry (in Angstrom), charge = 0, multiplicity = 1:

    H            1.182578578418    -2.245948283277     0.789738824046
    O            1.218121038474    -1.636026847024     0.067904823308
    C            0.553918637844    -0.538369222852     0.413817011195
    C            0.625671639878     0.530468917513    -0.647191210092
    O            0.020844520706    -0.431778641755     1.464693322951
    C           -0.552864999536     1.503534799327    -0.641489773480
    H            1.542930456211     1.061765599745    -0.406454271414
    H            0.759077685446     0.061878625325    -1.612169743658
    C           -1.919043121823     0.828915457319    -0.759137232807
    H           -0.435250489694     2.152331228228    -1.502971660491
    H           -0.519141685790     2.117227606088     0.248776207386
    H           -1.968589115757     0.203334594925    -1.645355723976
    H           -2.700751363162     1.574676932029    -0.842281885819
    H           -2.136729415941     0.214289336441     0.103045912800

  Mulliken Charges: (a.u.)
   Center  Symbol    Alpha    Beta     Spin     Total
       1     H     0.38113  0.38113  0.00000  0.23773
       2     O     4.15957  4.15957  0.00000 -0.31913
       3     C     2.80286  2.80286  0.00000  0.39428
       4     C     3.11048  3.11048  0.00000 -0.22095
       5     O     4.19687  4.19687  0.00000 -0.39375
       6     C     3.08142  3.08142  0.00000 -0.16284
       7     H     0.43683  0.43683  0.00000  0.12635
       8     H     0.43417  0.43417  0.00000  0.13167
       9     C     3.15731  3.15731  0.00000 -0.31463
      10     H     0.44821  0.44821  0.00000  0.10359
      11     H     0.44598  0.44598  0.00000  0.10804
      12     H     0.45632  0.45632  0.00000  0.08735
      13     H     0.44767  0.44767  0.00000  0.10466
      14     H     0.44118  0.44118  0.00000  0.11764

   Total alpha = 24.00000, Total beta = 24.00000, Total charge = -0.00000
