                              Psi4 1.0.54 Driver

  ==> Input File <==

--------------------------------------------------------------------------
set {
	reference rhf
	basis cc-pvtz
}

set_num_threads( 4 )
memory 2 gb

molecule MOL {
0 1

H	 2.828711	 -0.346904	 0.001083
C	 1.876752	 0.015931	 -0.363450
C	 0.776285	 -0.474665	 0.563092
H	 1.728113	 -0.357244	 -1.367440
H	 1.906171	 1.096574	 -0.386153
N	 -0.540022	 0.017605	 0.071630
H	 0.707111	 -1.548969	 0.573035
H	 0.886169	 -0.084184	 1.560432
O	 -1.382740	 0.212936	 0.881486
O	 -0.664751	 0.153480	 -1.099001

	symmetry c1
}
set optking {
	frozen_dihedral = ("
		9 6 3 2
	")
}

ee,wfn = optimize('scf', return_wfn=True)
oeprop( wfn, 'DIPOLE', 'QUADRUPOLE', 'MULLIKEN_CHARGES')
f=open( 'psi4out.xyz', 'w' )
f.write( "10  " )
f.write( str(ee) + "\n" )
f.write( MOL.save_string_xyz() )
f.close()
--------------------------------------------------------------------------

    Molecular point group: c1
  Charge       = 0
  Multiplicity = 1
  Basis Set: CC-PVTZ
  Basis Set:
  @DF-RHF Final Energy:  -282.81190709892542
    Total Energy =                       -282.8119070989252464
    Molecular point group: c1
  Basis Set: CC-PVTZ
  Basis Set:
  Basis Set: CC-PVTZ
  Basis Set:
  @DF-RHF Final Energy:  -282.81221181047761
    Total Energy =                       -282.8122118104776064
  Basis Set: CC-PVTZ
  Basis Set:
  Basis Set: CC-PVTZ
  Basis Set:
  @DF-RHF Final Energy:  -282.45586648862536
    Total Energy =                       -282.4558664886253609
  Basis Set: CC-PVTZ
  Basis Set:
  Basis Set: CC-PVTZ
  Basis Set:
  @DF-RHF Final Energy:  -282.66741856290628
    Total Energy =                       -282.6674185629063345
  Basis Set: CC-PVTZ
  Basis Set:
  @DF-RHF Final Energy:  -282.78428272245662
    Total Energy =                       -282.7842827224566236
  @DF-RHF Final Energy:  -282.80693549899274
    Total Energy =                       -282.8069354989929707
  @DF-RHF Final Energy:  -282.66212161394537
    Total Energy =                       -282.6621216139454305
  @DF-RHF Final Energy:  -282.79260267175556
    Total Energy =                       -282.7926026717555033
  @DF-RHF Final Energy:  -282.62738550282540
    Total Energy =                       -282.6273855028254047
  @DF-RHF Final Energy:  -282.77541635732791
    Total Energy =                       -282.7754163573280266
  @DF-RHF Final Energy:  -282.54039673497346
    Total Energy =                       -282.5403967349732852
  @DF-RHF Final Energy:  -282.31809664577668
    Total Energy =                       -282.3180966457766203
  @DF-RHF Final Energy:  -282.05228109242535
    Total Energy =                       -282.0522810924252894
  @DF-RHF Final Energy:  -282.38647341271121
    Total Energy =                       -282.3864734127112115
  @DF-RHF Final Energy:  -282.58856129308776
    Total Energy =                       -282.5885612930877642
  @DF-RHF Final Energy:  -282.52030268173678
    Total Energy =                       -282.5203026817367800
  @DF-RHF Final Energy:  -282.66905823999559
    Total Energy =                       -282.6690582399955929
  @DF-RHF Final Energy:  -282.58016769961102
    Total Energy =                       -282.5801676996110814
  @DF-RHF Final Energy:  -282.71113286847378
    Total Energy =                       -282.7111328684737828
  @DF-RHF Final Energy:  -282.78865175706568
    Total Energy =                       -282.7886517570656224
  @DF-RHF Final Energy:  -282.80888894167020
    Total Energy =                       -282.8088889416701477
  @DF-RHF Final Energy:  -282.81246760981696
    Total Energy =                       -282.8124676098169630
  Basis Set: CC-PVTZ
  Basis Set:
  @DF-RHF Final Energy:  -282.81243403693816
    Total Energy =                       -282.8124340369380434
  Basis Set: CC-PVTZ
  Basis Set:
  Basis Set: CC-PVTZ
  Basis Set:
  @DF-RHF Final Energy:  -282.81296938622188
    Total Energy =                       -282.8129693862218801
  Basis Set: CC-PVTZ
  Basis Set:
  Basis Set: CC-PVTZ
  Basis Set:
  @DF-RHF Final Energy:  -282.81297685207221
    Total Energy =                       -282.8129768520720972
  Basis Set: CC-PVTZ
  Basis Set:
  Charge       = 0
  Multiplicity = 1
  Basis Set: CC-PVTZ
  Basis Set:

    Orbital Energies (a.u.)
    -----------------------

    Doubly Occupied:

       1A    -20.592717     2A    -20.591551     3A    -15.839406
       4A    -11.302966     5A    -11.244941     6A     -1.638519
       7A     -1.422757     8A     -1.124307     9A     -0.966985
      10A     -0.836045    11A     -0.764445    12A     -0.748443
      13A     -0.731971    14A     -0.644874    15A     -0.593025
      16A     -0.564012    17A     -0.539414    18A     -0.489907
      19A     -0.479684    20A     -0.455885

  @DF-RHF Final Energy:  -282.81297735538675

   => Energetics <=

    Nuclear Repulsion Energy =            186.5636594269942066
    One-Electron Energy =                -755.6095646381310189
    Two-Electron Energy =                 286.2329278557501766
    DFT Exchange-Correlation Energy =       0.0000000000000000
    Empirical Dispersion Energy =           0.0000000000000000
    PCM Polarization Energy =               0.0000000000000000
    EFP Energy =                            0.0000000000000000
    Total Energy =                       -282.8129773553866926
    Molecular point group: c1
  Basis Set: CC-PVTZ
  Basis Set:

  -Total Gradient:
     Atom            X                  Y                   Z
    ------   -----------------  -----------------  -----------------
       1        0.000000279413    -0.000096726593     0.000014598903
       2        0.000083797177    -0.000092880814    -0.000361774130
       3        0.000013195438     0.000013581207     0.000318572983
       4       -0.000058457061     0.000007112424     0.000064984603
       5       -0.000006891395     0.000074659001     0.000060815474
       6       -0.000262654100     0.000193186443    -0.000097152951
       7       -0.000001076657    -0.000067503920     0.000021207398
       8        0.000015165748     0.000016437085    -0.000047421403
       9        0.000157976290    -0.000076296176    -0.000075613655
      10        0.000058665146     0.000028431346     0.000101782778

  **** Optimization is complete! (in 26 steps) ****
    Final optimized geometry and variables:
    Molecular point group: c1

    Geometry (in Angstrom), charge = 0, multiplicity = 1:

    H            0.525716868372    -2.740805287954     0.698378183242
    C            0.746178016103    -1.680777915113     0.671246394109
    C           -0.362277012828    -0.983425779152    -0.086147074942
    H            1.702102011439    -1.535131952341     0.193398715804
    H            0.809706153317    -1.319855000228     1.689332672723
    N           -0.172070563820     0.496563349412    -0.161963345950
    H           -0.406580938396    -1.299673331417    -1.119150447974
    H           -1.332756145856    -1.119835272652     0.358585496550
    O           -1.154971587185     1.155463491845    -0.216758090668
    O            0.935799331836     0.913634882183    -0.195122666915

  Mulliken Charges: (a.u.)
   Center  Symbol    Alpha    Beta     Spin     Total
       1     H     0.44930  0.44930  0.00000  0.10141
       2     C     3.14000  3.14000  0.00000 -0.28000
       3     C     3.04155  3.04155  0.00000 -0.08309
       4     H     0.43724  0.43724  0.00000  0.12552
       5     H     0.44499  0.44499  0.00000  0.11001
       6     N     3.27701  3.27701  0.00000  0.44598
       7     H     0.43638  0.43638  0.00000  0.12724
       8     H     0.43128  0.43128  0.00000  0.13743
       9     O     4.17091  4.17091  0.00000 -0.34182
      10     O     4.17134  4.17134  0.00000 -0.34268

   Total alpha = 20.00000, Total beta = 20.00000, Total charge = -0.00000

*** Psi4 exiting successfully. Buy a developer a beer!
