  ==> Input File <==

--------------------------------------------------------------------------
set {
	reference rhf
	basis 6-31G*
}

set_num_threads( 4 )
memory 2 gb

molecule MOL {
0 1

O	 -0.291628	 1.323815	 -0.000732
C	 -0.449655	 0.146360	 0.000961
C	 -1.783294	 -0.549321	 -0.000296
O	 0.550821	 -0.724572	 0.000672
H	 -1.863538	 -1.185371	 -0.874187
H	 -2.574672	 0.185258	 -0.002793
H	 -1.866414	 -1.182381	 0.875436
C	 1.851050	 -0.208304	 -0.221034
H	 1.909092	 0.271804	 -1.187203
H	 2.515527	 -1.057352	 -0.184472
H	 2.111930	 0.505333	 0.547085

	symmetry c1
}
set optking {
	frozen_dihedral = ("
		8 4 2 1
	")
}

ee = optimize('scf')
oeprop('DIPOLE', 'QUADRUPOLE', 'MULLIKEN_CHARGES')
f=open( 'psi4out.xyz', 'w' )
f.write( "11  " )
f.write( str(ee) + "\n" )
f.write( MOL.save_string_xyz() )
f.close()
--------------------------------------------------------------------------

    Molecular point group: c1
  Charge       = 0
  Multiplicity = 1
  Basis Set: 6-31G*
  Basis Set:
  @DF-RHF Final Energy:  -266.83576158348035
    Total Energy =                       -266.8357615834803482
    Molecular point group: c1
  Basis Set: 6-31G*
  Basis Set:
  Basis Set: 6-31G*
  Basis Set:
  @DF-RHF Final Energy:  -266.83421405106458
    Total Energy =                       -266.8342140510645777
  Basis Set: 6-31G*
  Basis Set:
  Basis Set: 6-31G*
  Basis Set:
  @DF-RHF Final Energy:  -266.83584745480880
    Total Energy =                       -266.8358474548089703
  Basis Set: 6-31G*
  Basis Set:
  Basis Set: 6-31G*
  Basis Set:
  @DF-RHF Final Energy:  -266.83585453797616
    Total Energy =                       -266.8358545379762745
  Basis Set: 6-31G*
  Basis Set:
  Charge       = 0
  Multiplicity = 1
  Basis Set: 6-31G*
  Basis Set:

    Orbital Energies (a.u.)
    -----------------------

    Doubly Occupied:

       1A    -20.605394     2A    -20.546826     3A    -11.376555
       4A    -11.282435     5A    -11.234789     6A     -1.470919
       7A     -1.364635     8A     -1.035787     9A     -0.953128
      10A     -0.778260    11A     -0.695732    12A     -0.680966
      13A     -0.677112    14A     -0.595556    15A     -0.592091
      16A     -0.561097    17A     -0.526774    18A     -0.521783
      19A     -0.457861    20A     -0.442320

  @DF-RHF Final Energy:  -266.83585527801813

   => Energetics <=

    Nuclear Repulsion Energy =            183.2925096280502828
    One-Electron Energy =                -727.4566926564480127
    Two-Electron Energy =                 277.3283277503795148
    DFT Exchange-Correlation Energy =       0.0000000000000000
    Empirical Dispersion Energy =           0.0000000000000000
    PCM Polarization Energy =               0.0000000000000000
    EFP Energy =                            0.0000000000000000
    Total Energy =                       -266.8358552780181867
    Molecular point group: c1
  Basis Set: 6-31G*
  Basis Set:

  -Total Gradient:
     Atom            X                  Y                   Z
    ------   -----------------  -----------------  -----------------
       1       -0.000050831804     0.000055936830     0.003597648035
       2       -0.000044402833    -0.000318085994    -0.006646842933
       3       -0.000000438094     0.000003407015    -0.000108705426
       4        0.000359430751     0.000673878764     0.005815600101
       5        0.000010528503    -0.000013221488     0.000042076767
       6       -0.000001936526     0.000001170902     0.000013295234
       7       -0.000006931719     0.000015719393     0.000039122159
       8       -0.000274532640    -0.000423793017    -0.002775601968
       9       -0.000005041572    -0.000005008730     0.000014505850
      10        0.000008310984     0.000000786144     0.000003340938
      11        0.000005844948     0.000009210181     0.000005561242

  **** Optimization is complete! (in 5 steps) ****
    Final optimized geometry and variables:
    Molecular point group: c1

    Geometry (in Angstrom), charge = 0, multiplicity = 1:

    O           -0.291557357127     1.326801574612     0.010838698472
    C           -0.448051330071     0.149433955325     0.029758796820
    C           -1.780798061047    -0.547185917254     0.061142481546
    O            0.554142466405    -0.720002685958     0.059468634478
    H           -1.878308330805    -1.190222065835    -0.805913416079
    H           -2.573039713326     0.186334501022     0.069457189689
    H           -1.844723021358    -1.173682928538     0.943273167082
    C            1.856983071614    -0.205270017151    -0.150746526188
    H            1.911803907626     0.306511221853    -1.101049225424
    H            2.515883020621    -1.059441221673    -0.147693946799
    H            2.128716459237     0.480241184547     0.638664950190

  Mulliken Charges: (a.u.)
   Center  Symbol    Alpha    Beta     Spin     Total
       1     O     4.28128  4.28128  0.00000 -0.56256
       2     C     2.62258  2.62258  0.00000  0.75484
       3     C     3.28186  3.28186  0.00000 -0.56371
       4     O     4.29961  4.29961  0.00000 -0.59923
       5     H     0.40062  0.40062  0.00000  0.19875
       6     H     0.39660  0.39660  0.00000  0.20679
       7     H     0.39925  0.39925  0.00000  0.20149
       8     C     3.09252  3.09252  0.00000 -0.18505
       9     H     0.41024  0.41024  0.00000  0.17952
      10     H     0.40824  0.40824  0.00000  0.18352
      11     H     0.40718  0.40718  0.00000  0.18564

   Total alpha = 20.00000, Total beta = 20.00000, Total charge = -0.00000
