                              Psi4 1.0.54 Driver

  ==> Input File <==

--------------------------------------------------------------------------
set {
	reference rhf
	basis cc-pvtz
}

set_num_threads( 4 )
memory 2 gb

molecule MOL {
0 1

H	 -3.144994	 -1.202467	 -0.018751
O	 -2.321472	 -0.864941	 -0.318626
C	 -2.021813	 0.336996	 0.342658
C	 -0.669613	 0.837286	 -0.127252
H	 -2.780861	 1.084746	 0.127159
H	 -2.006390	 0.184138	 1.420053
C	 0.490865	 -0.082543	 0.241244
H	 -0.708709	 0.967192	 -1.204587
H	 -0.507562	 1.822272	 0.303070
C	 1.839800	 0.429565	 -0.255472
H	 0.305636	 -1.070211	 -0.165276
H	 0.527397	 -0.195943	 1.322876
C	 1.809289	 1.900095	 -0.658456
H	 2.585373	 0.285535	 0.521754
H	 2.164580	 -0.168826	 -1.102900
H	 1.521930	 2.528094	 0.178179
H	 2.781096	 2.233727	 -1.004266
H	 1.096843	 2.072026	 -1.458647

	symmetry c1
}
set optking {
	frozen_dihedral = ("
		14 10 7 11
	")
}

ee,wfn = optimize('scf', return_wfn=True)
oeprop( wfn, 'DIPOLE', 'QUADRUPOLE', 'MULLIKEN_CHARGES')
f=open( 'psi4out.xyz', 'w' )
f.write( "18  " )
f.write( str(ee) + "\n" )
f.write( MOL.save_string_xyz() )
f.close()
--------------------------------------------------------------------------

    Molecular point group: c1
  Charge       = 0
  Multiplicity = 1
  Basis Set: CC-PVTZ
  Basis Set:
  @DF-RHF Final Energy:  -271.27446859420684
    Total Energy =                       -271.2744685942067235
    Molecular point group: c1
  Basis Set: CC-PVTZ
  Basis Set:
  Basis Set: CC-PVTZ
  Basis Set:
  @DF-RHF Final Energy:  -271.16838094497353
    Total Energy =                       -271.1683809449735350
  Basis Set: CC-PVTZ
  Basis Set:
  Basis Set: CC-PVTZ
  Basis Set:
  @DF-RHF Final Energy:  -271.25678244821358
    Total Energy =                       -271.2567824482135848
  Basis Set: CC-PVTZ
  Basis Set:
  Basis Set: CC-PVTZ
  Basis Set:
  @DF-RHF Final Energy:  -271.27702759619348
    Total Energy =                       -271.2770275961933066
  Basis Set: CC-PVTZ
  Basis Set:
  Basis Set: CC-PVTZ
  Basis Set:
  @DF-RHF Final Energy:  -271.27812694455628
    Total Energy =                       -271.2781269445561065
  Basis Set: CC-PVTZ
  Basis Set:
  Basis Set: CC-PVTZ
  Basis Set:
  @DF-RHF Final Energy:  -271.27819694002045
    Total Energy =                       -271.2781969400202797
  Basis Set: CC-PVTZ
  Basis Set:
  Basis Set: CC-PVTZ
  Basis Set:
  @DF-RHF Final Energy:  -271.27820271754024
    Total Energy =                       -271.2782027175403528
  Basis Set: CC-PVTZ
  Basis Set:
  Charge       = 0
  Multiplicity = 1
  Basis Set: CC-PVTZ
  Basis Set:

    Orbital Energies (a.u.)
    -----------------------

    Doubly Occupied:

       1A    -20.546157     2A    -11.265599     3A    -11.209755
       4A    -11.209603     5A    -11.205214     6A    -11.203040
       7A     -1.363988     8A     -1.073097     9A     -1.006110
      10A     -0.915822    11A     -0.834012    12A     -0.765494
      13A     -0.708644    14A     -0.637987    15A     -0.626530
      16A     -0.601235    17A     -0.564033    18A     -0.551209
      19A     -0.527963    20A     -0.509229    21A     -0.492794
      22A     -0.463105    23A     -0.451111    24A     -0.447146
      25A     -0.429131

  @DF-RHF Final Energy:  -271.27820305632764

   => Energetics <=

    Nuclear Repulsion Energy =            252.2576981038370718
    One-Electron Energy =                -867.8557887849260624
    Two-Electron Energy =                 344.3198876247616340
    DFT Exchange-Correlation Energy =       0.0000000000000000
    Empirical Dispersion Energy =           0.0000000000000000
    PCM Polarization Energy =               0.0000000000000000
    EFP Energy =                            0.0000000000000000
    Total Energy =                       -271.2782030563272997
    Molecular point group: c1
  Basis Set: CC-PVTZ
  Basis Set:

  -Total Gradient:
     Atom            X                  Y                   Z
    ------   -----------------  -----------------  -----------------
       1       -0.000053611245    -0.000041098977    -0.000011045353
       2        0.000053806023    -0.000018208298     0.000002591718
       3        0.000002557716     0.000063858590    -0.000107295253
       4       -0.000024244042     0.000021592697     0.000152708000
       5        0.000000442275    -0.000013685482     0.000005291828
       6       -0.000012285131    -0.000008785388     0.000045977676
       7        0.000882950794    -0.002524984092     0.005972580514
       8        0.000030144396     0.000021548742    -0.000064241430
       9       -0.000018824681    -0.000000552483     0.000007859710
      10        0.001883356796    -0.004964410911    -0.003766262483
      11       -0.001027572387     0.002878490641    -0.004512626992
      12       -0.000005247763    -0.000006222116     0.000049289681
      13        0.000001075777     0.000002698220    -0.000027993174
      14       -0.001738998392     0.004601044741     0.002277802927
      15        0.000025010192    -0.000032769549    -0.000035009224
      16        0.000006025979     0.000005905070     0.000018762081
      17       -0.000012818626     0.000009840184     0.000001437122
      18        0.000008232319     0.000005738411    -0.000009827349

  **** Optimization is complete! (in 8 steps) ****
    Final optimized geometry and variables:
    Molecular point group: c1

    Geometry (in Angstrom), charge = 0, multiplicity = 1:

    H           -2.727879626822    -1.699348727774    -1.049947313561
    O           -1.886486682245    -1.282699632432    -1.029705998015
    C           -1.912524805680    -0.181772788965    -0.158152780882
    C           -0.532474686773     0.446794766417    -0.106713363606
    H           -2.632880521420     0.554732341764    -0.504993676698
    H           -2.215252774085    -0.494312474511     0.839526456225
    C            0.520849341059    -0.481020521616     0.503665016320
    H           -0.251418262280     0.721163525930    -1.118379407475
    H           -0.610632049905     1.367804701009     0.461258315587
    C            1.972518630184     0.055216996189     0.522353269792
    H            0.495807701259    -1.391073465305    -0.080982620930
    H            0.211720449718    -0.734469514523     1.512913415498
    C            2.143701754385     1.571655161104     0.408937495814
    H            2.427805159901    -0.232009832458     1.464239041009
    H            2.545361615913    -0.417559317101    -0.267024368148
    H            1.631138870118     2.093259767291     1.210109368828
    H            3.194584104132     1.830365650118     0.474225560818
    H            1.770953241320     1.959790938585    -0.530820200973

  Mulliken Charges: (a.u.)
   Center  Symbol    Alpha    Beta     Spin     Total
       1     H     0.39565  0.39565  0.00000  0.20869
       2     O     4.19903  4.19903  0.00000 -0.39805
       3     C     2.97428  2.97428  0.00000  0.05145
       4     C     3.09391  3.09391  0.00000 -0.18783
       5     H     0.46504  0.46504  0.00000  0.06992
       6     H     0.47364  0.47364  0.00000  0.05272
       7     C     3.09720  3.09720  0.00000 -0.19439
       8     H     0.45054  0.45054  0.00000  0.09892
       9     H     0.45173  0.45173  0.00000  0.09653
      10     C     3.08762  3.08762  0.00000 -0.17524
      11     H     0.44184  0.44184  0.00000  0.11632
      12     H     0.45602  0.45602  0.00000  0.08796
      13     C     3.15799  3.15799  0.00000 -0.31599
      14     H     0.45256  0.45256  0.00000  0.09488
      15     H     0.45050  0.45050  0.00000  0.09899
      16     H     0.45478  0.45478  0.00000  0.09043
      17     H     0.44534  0.44534  0.00000  0.10932
      18     H     0.45231  0.45231  0.00000  0.09537

   Total alpha = 25.00000, Total beta = 25.00000, Total charge =  0.00000

*** Psi4 exiting successfully. Buy a developer a beer!
