  ==> Input File <==

--------------------------------------------------------------------------
set {
	reference rhf
	basis cc-pvtz
}

set_num_threads( 4 )
memory 2 gb

molecule MOL {
0 1

H	 -2.698799	 -0.000846	 0.036018
C	 -1.694291	 -0.000483	 0.434279
O	 -0.828718	 -0.000608	 -0.655022
H	 -1.576855	 0.881100	 1.056504
H	 -1.576401	 -0.881658	 1.057001
C	 -1.026136	 -0.944550	 -1.678681
C	 -0.833079	 -2.378484	 -1.198232
C	 -2.352072	 -0.751221	 -2.405844
H	 -0.230411	 -0.720953	 -2.378284
H	 0.098837	 -2.471525	 -0.654233
H	 -0.799092	 -3.049535	 -2.048692
H	 -1.640928	 -2.707587	 -0.555072
H	 -2.473544	 0.284211	 -2.699391
H	 -2.373373	 -1.363200	 -3.300160
H	 -3.200213	 -1.037039	 -1.794691

	symmetry c1
}
set optking {
	frozen_dihedral = ("
		6 3 2 1
	")
}

ee = optimize('scf')
oeprop('DIPOLE', 'QUADRUPOLE', 'MULLIKEN_CHARGES')
f=open( 'psi4out.xyz', 'w' )
f.write( "15  " )
f.write( str(ee) + "\n" )
f.write( MOL.save_string_xyz() )
f.close()
--------------------------------------------------------------------------

    Molecular point group: c1
  Charge       = 0
  Multiplicity = 1
  Basis Set: CC-PVTZ
  Basis Set:
  @DF-RHF Final Energy:  -232.22358813234973
    Total Energy =                       -232.2235881323496756
    Molecular point group: c1
  Basis Set: CC-PVTZ
  Basis Set:
  Basis Set: CC-PVTZ
  Basis Set:
  @DF-RHF Final Energy:  -232.22551580409393
    Total Energy =                       -232.2255158040939023
  Basis Set: CC-PVTZ
  Basis Set:
  Basis Set: CC-PVTZ
  Basis Set:
  @DF-RHF Final Energy:  -232.22603993416678
    Total Energy =                       -232.2260399341668631
  Basis Set: CC-PVTZ
  Basis Set:
  Basis Set: CC-PVTZ
  Basis Set:
  @DF-RHF Final Energy:  -232.22604952010340
    Total Energy =                       -232.2260495201032882
  Basis Set: CC-PVTZ
  Basis Set:
  Basis Set: CC-PVTZ
  Basis Set:
  @DF-RHF Final Energy:  -232.22605624600484
    Total Energy =                       -232.2260562460049869
  Basis Set: CC-PVTZ
  Basis Set:
  Charge       = 0
  Multiplicity = 1
  Basis Set: CC-PVTZ
  Basis Set:

    Orbital Energies (a.u.)
    -----------------------

    Doubly Occupied:

       1A    -20.541646     2A    -11.272691     3A    -11.258662
       4A    -11.209353     5A    -11.208048     6A     -1.373452
       7A     -1.051529     8A     -0.940566     9A     -0.931335
      10A     -0.781534    11A     -0.676034    12A     -0.642262
      13A     -0.634896    14A     -0.573730    15A     -0.564932
      16A     -0.553040    17A     -0.534220    18A     -0.498882
      19A     -0.497422    20A     -0.444885    21A     -0.409004

  @DF-RHF Final Energy:  -232.22605650283856

   => Energetics <=

    Nuclear Repulsion Energy =            199.0549823712340185
    One-Electron Energy =                -709.3658330571255419
    Two-Electron Energy =                 278.0847941830530772
    DFT Exchange-Correlation Energy =       0.0000000000000000
    Empirical Dispersion Energy =           0.0000000000000000
    PCM Polarization Energy =               0.0000000000000000
    EFP Energy =                            0.0000000000000000
    Total Energy =                       -232.2260565028384462
    Molecular point group: c1
  Basis Set: CC-PVTZ
  Basis Set:

  -Total Gradient:
     Atom            X                  Y                   Z
    ------   -----------------  -----------------  -----------------
       1        0.000104489816    -0.000705178219    -0.000036197641
       2       -0.000184514184     0.001147601080    -0.000026025967
       3        0.000515252626    -0.000829263642     0.000365038357
       4       -0.000028787067    -0.000006046618     0.000032035930
       5        0.000000386363    -0.000002384843    -0.000037272262
       6       -0.000388814675     0.000376463905    -0.000305597439
       7       -0.000012968390     0.000022200423     0.000039647827
       8        0.000006168475    -0.000039132527    -0.000031773416
       9        0.000002955480     0.000010308259    -0.000002621326
      10       -0.000004484647     0.000008125476     0.000008008651
      11       -0.000000702876     0.000023803335     0.000005249284
      12       -0.000010935949    -0.000012792735     0.000013032854
      13       -0.000008254790     0.000004357398     0.000011291355
      14       -0.000010476628     0.000009794179    -0.000004184073
      15        0.000020686445    -0.000007855470    -0.000030632132

  **** Optimization is complete! (in 6 steps) ****
    Final optimized geometry and variables:
    Molecular point group: c1

    Geometry (in Angstrom), charge = 0, multiplicity = 1:

    H           -1.373802884638     0.688438045945     1.280535150800
    C           -0.322561317558     0.769066660808     1.537198789161
    O            0.499368537238     0.832076936900     0.416019658105
    H           -0.176759022753     1.686361623214     2.089500628724
    H           -0.064541723145    -0.063376017357     2.184891009723
    C            0.335597709849    -0.127207984045    -0.599197461437
    C            0.513444036898    -1.554773695481    -0.095541600550
    C           -0.968785094550     0.059279110156    -1.366633563007
    H            1.150521583982     0.088023276898    -1.279099847716
    H            1.434828183434    -1.646191557008     0.466707900506
    H            0.558810129625    -2.238186287949    -0.935407269678
    H           -0.308049088776    -1.868659482862     0.538324697943
    H           -1.075189239421     1.090672633748    -1.679017229181
    H           -0.968647157906    -0.566886250615    -2.251563138504
    H           -1.836065972732    -0.211764274482    -0.776157711032

  Mulliken Charges: (a.u.)
   Center  Symbol    Alpha    Beta     Spin     Total
       1     H     0.47100  0.47100  0.00000  0.05800
       2     C     3.03952  3.03952  0.00000 -0.07905
       3     O     4.18343  4.18343  0.00000 -0.36686
       4     H     0.44153  0.44153  0.00000  0.11694
       5     H     0.46809  0.46809  0.00000  0.06382
       6     C     2.93448  2.93448  0.00000  0.13104
       7     C     3.16096  3.16096  0.00000 -0.32193
       8     C     3.15483  3.15483  0.00000 -0.30965
       9     H     0.44699  0.44699  0.00000  0.10603
      10     H     0.44382  0.44382  0.00000  0.11237
      11     H     0.44846  0.44846  0.00000  0.10307
      12     H     0.45522  0.45522  0.00000  0.08955
      13     H     0.44440  0.44440  0.00000  0.11121
      14     H     0.45097  0.45097  0.00000  0.09806
      15     H     0.45630  0.45630  0.00000  0.08739

   Total alpha = 21.00000, Total beta = 21.00000, Total charge =  0.00000
