                              Psi4 1.0.54 Driver

  ==> Input File <==

--------------------------------------------------------------------------
set {
	reference rhf
	basis cc-pvtz
}

set_num_threads( 4 )
memory 2 gb

molecule MOL {
0 1

O	 -0.492727	 0.104136	 0.664066
C	 0.485107	 0.171416	 -0.000134
C	 1.606966	 -0.836201	 0.000174
O	 0.724760	 1.158682	 -0.845390
C	 2.988788	 -0.202529	 -0.000115
H	 1.465110	 -1.474645	 -0.864821
H	 1.465209	 -1.474077	 0.865596
H	 3.131767	 0.419673	 -0.873407
H	 3.750876	 -0.972315	 0.000098
H	 3.131883	 0.420264	 0.872742
C	 -0.248151	 2.188064	 -0.955408
C	 0.251284	 3.188729	 -1.971145
H	 -0.390674	 2.644156	 0.014136
H	 -1.190297	 1.752656	 -1.257242
H	 1.195352	 3.617145	 -1.658788
H	 -0.469743	 3.990334	 -2.079692
H	 0.391117	 2.720611	 -2.937418

	symmetry c1
}
set optking {
	frozen_dihedral = ("
		4 2 3 6
	")
}

ee,wfn = optimize('scf', return_wfn=True)
oeprop( wfn, 'DIPOLE', 'QUADRUPOLE', 'MULLIKEN_CHARGES')
f=open( 'psi4out.xyz', 'w' )
f.write( "17  " )
f.write( str(ee) + "\n" )
f.write( MOL.save_string_xyz() )
f.close()
--------------------------------------------------------------------------

    Molecular point group: c1
  Charge       = 0
  Multiplicity = 1
  Basis Set: CC-PVTZ
  Basis Set:
  @DF-RHF Final Energy:  -345.03831759008045
    Total Energy =                       -345.0383175900802257
    Molecular point group: c1
  Basis Set: CC-PVTZ
  Basis Set:
  Basis Set: CC-PVTZ
  Basis Set:
  @DF-RHF Final Energy:  -345.03842687920456
    Total Energy =                       -345.0384268792043940
  Basis Set: CC-PVTZ
  Basis Set:
  Basis Set: CC-PVTZ
  Basis Set:
  @DF-RHF Final Energy:  -345.03865643434619
    Total Energy =                       -345.0386564343461941
  Basis Set: CC-PVTZ
  Basis Set:
  Basis Set: CC-PVTZ
  Basis Set:
  @DF-RHF Final Energy:  -345.03873966339330
    Total Energy =                       -345.0387396633933577
  Basis Set: CC-PVTZ
  Basis Set:
  Basis Set: CC-PVTZ
  Basis Set:
  @DF-RHF Final Energy:  -345.03874274960793
    Total Energy =                       -345.0387427496082182
  Basis Set: CC-PVTZ
  Basis Set:
  Charge       = 0
  Multiplicity = 1
  Basis Set: CC-PVTZ
  Basis Set:

    Orbital Energies (a.u.)
    -----------------------

    Doubly Occupied:

       1A    -20.594860     2A    -20.530676     3A    -11.363158
       4A    -11.283099     5A    -11.235622     6A    -11.221149
       7A    -11.220978     8A     -1.470797     9A     -1.363581
      10A     -1.073540    11A     -1.031100    12A     -0.907391
      13A     -0.859837    14A     -0.779929    15A     -0.694090
      16A     -0.680326    17A     -0.675549    18A     -0.626101
      19A     -0.586160    20A     -0.574637    21A     -0.553541
      22A     -0.547393    23A     -0.525041    24A     -0.512597
      25A     -0.506036    26A     -0.493851    27A     -0.455767
      28A     -0.434254

  @DF-RHF Final Energy:  -345.03874319039659

   => Energetics <=

    Nuclear Repulsion Energy =            317.8425567851940627
    One-Electron Energy =               -1100.1604826541124567
    Two-Electron Energy =                 437.2791826785221474
    DFT Exchange-Correlation Energy =       0.0000000000000000
    Empirical Dispersion Energy =           0.0000000000000000
    PCM Polarization Energy =               0.0000000000000000
    EFP Energy =                            0.0000000000000000
    Total Energy =                       -345.0387431903961897
    Molecular point group: c1
  Basis Set: CC-PVTZ
  Basis Set:

  -Total Gradient:
     Atom            X                  Y                   Z
    ------   -----------------  -----------------  -----------------
       1       -0.000024681339    -0.000045517235     0.000017262845
       2       -0.000381511517    -0.000421070660    -0.000418821198
       3        0.000454655666     0.000525567712    -0.000256454686
       4        0.000252424090     0.000317673869     0.000346219174
       5        0.000011242059    -0.000005674520    -0.000020988880
       6       -0.000345433409    -0.000381825878     0.000335493037
       7        0.000008089118     0.000010446045    -0.000000341688
       8        0.000002044473     0.000006696990     0.000003944761
       9        0.000010971240     0.000000714853    -0.000001799128
      10        0.000003247576     0.000001044474     0.000005525285
      11       -0.000011821906    -0.000009004938    -0.000023711689
      12        0.000009739138    -0.000000624914     0.000005453030
      13        0.000004728500    -0.000001506517     0.000007377985
      14        0.000000515308     0.000000566181     0.000003721623
      15        0.000007410300     0.000006535574    -0.000002251328
      16       -0.000001840256    -0.000001847615     0.000003300274
      17        0.000000220961    -0.000002173425    -0.000003929419

  **** Optimization is complete! (in 6 steps) ****
    Final optimized geometry and variables:
    Molecular point group: c1

    Geometry (in Angstrom), charge = 0, multiplicity = 1:

    O           -1.246630435872    -0.745088264472     1.098876990056
    C           -0.259717573381    -0.656153346303     0.449718007022
    C            0.853984890675    -1.674646427589     0.464248456912
    O           -0.030173135584     0.339081334143    -0.387596387570
    C            2.263779183287    -1.091178157067     0.449900704008
    H            0.704178296982    -2.308276088006    -0.404855728520
    H            0.693887710170    -2.291469444616     1.336427067811
    H            2.445567697359    -0.518450006627    -0.448253711575
    H            2.992633065604    -1.890623297065     0.498044202273
    H            2.426744365431    -0.441699298457     1.302089213765
    C           -1.027648198137     1.343441551950    -0.512071866231
    C           -0.536501798321     2.360852556048    -1.515096594910
    H           -1.199332726868     1.791089064970     0.456474836344
    H           -1.952158687392     0.884107892277    -0.832132384334
    H            0.389549220101     2.813876083810    -1.183951435303
    H           -1.276951985543     3.142984330888    -1.634213843914
    H           -0.366521732336     1.900595024471    -2.480352677836

  Mulliken Charges: (a.u.)
   Center  Symbol    Alpha    Beta     Spin     Total
       1     O     4.19997  4.19997  0.00000 -0.39993
       2     C     2.81048  2.81048  0.00000  0.37904
       3     C     3.08593  3.08593  0.00000 -0.17185
       4     O     4.15196  4.15196  0.00000 -0.30393
       5     C     3.14612  3.14612  0.00000 -0.29224
       6     H     0.44762  0.44762  0.00000  0.10476
       7     H     0.43557  0.43557  0.00000  0.12886
       8     H     0.44619  0.44619  0.00000  0.10762
       9     H     0.44855  0.44855  0.00000  0.10290
      10     H     0.45160  0.45160  0.00000  0.09679
      11     C     2.97783  2.97783  0.00000  0.04434
      12     C     3.13408  3.13408  0.00000 -0.26816
      13     H     0.45406  0.45406  0.00000  0.09189
      14     H     0.45352  0.45352  0.00000  0.09297
      15     H     0.45128  0.45128  0.00000  0.09743
      16     H     0.45369  0.45369  0.00000  0.09262
      17     H     0.45155  0.45155  0.00000  0.09689

   Total alpha = 28.00000, Total beta = 28.00000, Total charge = -0.00000

*** Psi4 exiting successfully. Buy a developer a beer!
