  ==> Input File <==

--------------------------------------------------------------------------
set {
	reference rhf
	basis 6-31G*
}

set_num_threads( 4 )
memory 2 gb

molecule MOL {
0 1

H	 0.874401	 3.067252	 2.011106
O	 1.581037	 2.669676	 1.520903
C	 1.141151	 1.626604	 0.789003
C	 2.078621	 0.947645	 0.016922
C	 -0.180516	 1.224960	 0.785571
H	 3.099687	 1.279148	 0.036617
C	 1.690113	 -0.128432	 -0.753912
H	 -0.923742	 1.729685	 1.370715
C	 -0.536158	 0.140425	 0.000000
H	 2.420442	 -0.646867	 -1.346957
C	 0.367817	 -0.551465	 -0.774380
N	 -1.935604	 -0.280333	 0.000000
H	 0.051256	 -1.384384	 -1.367204
O	 -2.161694	 -1.452901	 0.000000
O	 -2.770341	 0.571417	 0.000000

	symmetry c1
}
set optking {
	frozen_dihedral = ("
		11 9 12 14
	")
}

ee = optimize('scf')
oeprop('DIPOLE', 'QUADRUPOLE', 'MULLIKEN_CHARGES')
f=open( 'psi4out.xyz', 'w' )
f.write( "15  " )
f.write( str(ee) + "\n" )
f.write( MOL.save_string_xyz() )
f.close()
--------------------------------------------------------------------------

    Molecular point group: c1
  Charge       = 0
  Multiplicity = 1
  Basis Set: 6-31G*
  Basis Set:
  @DF-RHF Final Energy:  -509.02427967088977
    Total Energy =                       -509.0242796708898823
    Molecular point group: c1
  Basis Set: 6-31G*
  Basis Set:
  Basis Set: 6-31G*
  Basis Set:
  @DF-RHF Final Energy:  -509.01802083292569
    Total Energy =                       -509.0180208329257994
  Basis Set: 6-31G*
  Basis Set:
  Basis Set: 6-31G*
  Basis Set:
  @DF-RHF Final Energy:  -509.02448125067178
    Total Energy =                       -509.0244812506714425
  Basis Set: 6-31G*
  Basis Set:
  Basis Set: 6-31G*
  Basis Set:
  @DF-RHF Final Energy:  -509.02468921811612
    Total Energy =                       -509.0246892181162366
  Basis Set: 6-31G*
  Basis Set:
  Charge       = 0
  Multiplicity = 1
  Basis Set: 6-31G*
  Basis Set:

    Orbital Energies (a.u.)
    -----------------------

    Doubly Occupied:

       1A    -20.616768     2A    -20.607347     3A    -20.606739
       4A    -15.858983     5A    -11.331963     6A    -11.313133
       7A    -11.268234     8A    -11.267845     9A    -11.264157
      10A    -11.258717    11A     -1.639108    12A     -1.437610
      13A     -1.422958    14A     -1.201823    15A     -1.095801
      16A     -1.047743    17A     -0.966194    18A     -0.881330
      19A     -0.829279    20A     -0.789935    21A     -0.758103
      22A     -0.734931    23A     -0.720760    24A     -0.710169
      25A     -0.671368    26A     -0.635561    27A     -0.616908
      28A     -0.593987    29A     -0.561345    30A     -0.547002
      31A     -0.523426    32A     -0.490975    33A     -0.489533
      34A     -0.454025    35A     -0.375800    36A     -0.343268

  @DF-RHF Final Energy:  -509.02468976201249

   => Energetics <=

    Nuclear Repulsion Energy =            503.3399830406267483
    One-Electron Energy =               -1692.8636869152671807
    Two-Electron Energy =                 680.4990141126279468
    DFT Exchange-Correlation Energy =       0.0000000000000000
    Empirical Dispersion Energy =           0.0000000000000000
    PCM Polarization Energy =               0.0000000000000000
    EFP Energy =                            0.0000000000000000
    Total Energy =                       -509.0246897620124855
    Molecular point group: c1
  Basis Set: 6-31G*
  Basis Set:

  -Total Gradient:
     Atom            X                  Y                   Z
    ------   -----------------  -----------------  -----------------
       1        0.000003808546    -0.000006607534     0.000020117701
       2       -0.000016988787     0.000030566480    -0.000020005897
       3       -0.000007356303    -0.000030535432    -0.000015452404
       4        0.000006642128    -0.000029127889     0.000053548049
       5       -0.000015383152    -0.000029634650    -0.000010624771
       6       -0.000002467530     0.000001720258    -0.000009526031
       7       -0.000019700887     0.000013967355    -0.000040438948
       8       -0.000007459383     0.000005587262     0.000006415596
       9        0.000936749813    -0.004000545919     0.006488952126
      10       -0.000002128498    -0.000005721001     0.000003389755
      11       -0.000696372935     0.002736928375    -0.003234046966
      12       -0.000397581180     0.001545028055    -0.008090087582
      13        0.000009707510     0.000005451795     0.000009721581
      14        0.000034619323    -0.000295218782     0.004867026880
      15        0.000173911343     0.000058141625    -0.000028989091

  **** Optimization is complete! (in 5 steps) ****
    Final optimized geometry and variables:
    Molecular point group: c1

    Geometry (in Angstrom), charge = 0, multiplicity = 1:

    H            1.014607660656     2.583160046683     1.818878532001
    O            1.722842154683     2.177535436546     1.337742674906
    C            1.283917754510     1.134813945369     0.606198197448
    C            2.220899112436     0.459460155901    -0.170089581928
    C           -0.039189320975     0.734891592219     0.598740715697
    H            3.240258234965     0.796352007090    -0.155418217482
    C            1.833488622114    -0.615206120601    -0.943307000538
    H           -0.789654715862     1.254845328261     1.163187783224
    C           -0.383467660191    -0.365558887094    -0.165654014332
    H            2.561817804352    -1.123027040227    -1.547936151578
    C            0.514358565049    -1.050117333647    -0.950454352462
    N           -1.785392020261    -0.765426974304    -0.196084417523
    H            0.198108270823    -1.891299061720    -1.534129057842
    O           -2.020672226090    -1.934273416081    -0.234218954018
    O           -2.605152441852     0.100986285626    -0.147095183082

  Mulliken Charges: (a.u.)
   Center  Symbol    Alpha    Beta     Spin     Total
       1     H     0.26733  0.26733  0.00000  0.46535
       2     O     4.37497  4.37497  0.00000 -0.74994
       3     C     2.79319  2.79319  0.00000  0.41362
       4     C     3.11110  3.11110  0.00000 -0.22221
       5     C     3.13449  3.13449  0.00000 -0.26898
       6     H     0.38137  0.38137  0.00000  0.23727
       7     C     3.09915  3.09915  0.00000 -0.19830
       8     H     0.37381  0.37381  0.00000  0.25237
       9     C     2.89987  2.89987  0.00000  0.20026
      10     H     0.38655  0.38655  0.00000  0.22689
      11     C     3.09934  3.09934  0.00000 -0.19869
      12     N     3.25400  3.25400  0.00000  0.49200
      13     H     0.37088  0.37088  0.00000  0.25825
      14     O     4.22479  4.22479  0.00000 -0.44957
      15     O     4.22916  4.22916  0.00000 -0.45831

   Total alpha = 36.00000, Total beta = 36.00000, Total charge = -0.00000
