                              Psi4 1.0.54 Driver

  ==> Input File <==

--------------------------------------------------------------------------
set {
	reference rhf
	basis cc-pvtz
}

set_num_threads( 4 )
memory 2 gb

molecule MOL {
0 1

H	 2.614283	 2.028610	 0.296620
O	 3.358864	 1.662087	 -0.142800
C	 3.565468	 0.338079	 0.273842
C	 2.533667	 -0.637565	 -0.272227
H	 4.548038	 0.064914	 -0.086598
H	 3.593945	 0.282242	 1.360360
C	 1.775620	 -1.414934	 0.801511
H	 1.830687	 -0.086905	 -0.890087
H	 3.048640	 -1.336943	 -0.926499
C	 0.772625	 -2.407566	 0.215405
H	 1.256517	 -0.717224	 1.450151
H	 2.486662	 -1.953200	 1.425991
C	 0.037002	 -3.267139	 1.245089
H	 0.045581	 -1.867235	 -0.385990
H	 1.299499	 -3.067109	 -0.468610
C	 -0.923057	 -2.504571	 2.156417
H	 -0.524544	 -4.030256	 0.713256
H	 0.764921	 -3.798684	 1.853981
C	 -1.705257	 -3.417309	 3.097419
H	 -1.622217	 -1.937741	 1.545396
H	 -0.377106	 -1.776518	 2.748767
C	 -2.662014	 -2.658836	 4.011326
H	 -2.265160	 -4.141230	 2.511736
H	 -1.008046	 -3.990535	 3.702704
H	 -3.392852	 -2.100368	 3.435803
H	 -3.202372	 -3.335636	 4.663294
H	 -2.127762	 -1.952507	 4.638245

	symmetry c1
}
set optking {
	frozen_dihedral = ("
		8 4 3 2
	")
}

ee,wfn = optimize('scf', return_wfn=True)
oeprop( wfn, 'DIPOLE', 'QUADRUPOLE', 'MULLIKEN_CHARGES')
f=open( 'psi4out.xyz', 'w' )
f.write( "27  " )
f.write( str(ee) + "\n" )
f.write( MOL.save_string_xyz() )
f.close()
--------------------------------------------------------------------------

    Molecular point group: c1
  Charge       = 0
  Multiplicity = 1
  Basis Set: CC-PVTZ
  Basis Set:
  @DF-RHF Final Energy:  -388.42152507787512
    Total Energy =                       -388.4215250778754580
    Molecular point group: c1
  Basis Set: CC-PVTZ
  Basis Set:
  Basis Set: CC-PVTZ
  Basis Set:
  @DF-RHF Final Energy:  -388.42192701513380
    Total Energy =                       -388.4219270151331784
  Basis Set: CC-PVTZ
  Basis Set:
  Basis Set: CC-PVTZ
  Basis Set:
  @DF-RHF Final Energy:  -388.42201721870271
    Total Energy =                       -388.4220172187026492
  Basis Set: CC-PVTZ
  Basis Set:
  Basis Set: CC-PVTZ
  Basis Set:
  @DF-RHF Final Energy:  -388.42202194693562
    Total Energy =                       -388.4220219469357289
  Basis Set: CC-PVTZ
  Basis Set:
  Charge       = 0
  Multiplicity = 1
  Basis Set: CC-PVTZ
  Basis Set:

    Orbital Energies (a.u.)
    -----------------------

    Doubly Occupied:

       1A    -20.544595     2A    -11.264834     3A    -11.216813
       4A    -11.214484     5A    -11.214111     6A    -11.213471
       7A    -11.213290     8A    -11.212120     9A    -11.207660
      10A     -1.362118    11A     -1.096273    12A     -1.062468
      13A     -1.011228    14A     -0.946348    15A     -0.886091
      16A     -0.824144    17A     -0.804894    18A     -0.779324
      19A     -0.689125    20A     -0.653686    21A     -0.643857
      22A     -0.609101    23A     -0.603874    24A     -0.585970
      25A     -0.575169    26A     -0.554381    27A     -0.544459
      28A     -0.527618    29A     -0.509399    30A     -0.501471
      31A     -0.483456    32A     -0.475168    33A     -0.464734
      34A     -0.460399    35A     -0.451062    36A     -0.442332
      37A     -0.425053

  @DF-RHF Final Energy:  -388.42202173764514

   => Energetics <=

    Nuclear Repulsion Energy =            455.3007973670436854
    One-Electron Energy =               -1428.8964836861132426
    Two-Electron Energy =                 585.1736645814240774
    DFT Exchange-Correlation Energy =       0.0000000000000000
    Empirical Dispersion Energy =           0.0000000000000000
    PCM Polarization Energy =               0.0000000000000000
    EFP Energy =                            0.0000000000000000
    Total Energy =                       -388.4220217376454229
    Molecular point group: c1
  Basis Set: CC-PVTZ
  Basis Set:

  -Total Gradient:
     Atom            X                  Y                   Z
    ------   -----------------  -----------------  -----------------
       1        0.000004421926    -0.000003768559    -0.000030582118
       2        0.000061577246     0.000014856624     0.000148558600
       3        0.000117425306    -0.000126678114    -0.000050008814
       4       -0.000156865650    -0.000033735305     0.000134692501
       5       -0.000017403809     0.000079448243    -0.000051541876
       6       -0.000001647811     0.000101234968    -0.000025932607
       7       -0.000060197311    -0.000003890021    -0.000130616460
       8        0.000006600458    -0.000031216553    -0.000045837302
       9        0.000038144554     0.000002454526     0.000014862497
      10       -0.000016858731     0.000018116435     0.000075986168
      11        0.000025757041     0.000014019929    -0.000063666007
      12        0.000049956278     0.000027069382     0.000003544954
      13        0.000017923975    -0.000011441419     0.000002430500
      14       -0.000003585474     0.000014885346     0.000020709860
      15       -0.000012813302    -0.000004483050    -0.000023546173
      16       -0.000017263421    -0.000010732447     0.000013489255
      17        0.000003524756    -0.000034693295    -0.000005664912
      18        0.000025004019     0.000000636159     0.000019694809
      19       -0.000008232858     0.000000016029    -0.000016974833
      20       -0.000020610320     0.000023704564    -0.000006003716
      21       -0.000027527858    -0.000032743406     0.000013010646
      22       -0.000003168745     0.000002222015    -0.000000127989
      23       -0.000008014504    -0.000015137712    -0.000007854516
      24        0.000014427573    -0.000005831944     0.000000744546
      25       -0.000012618926     0.000007935701    -0.000002823722
      26       -0.000004513462    -0.000005052371     0.000002691789
      27        0.000006559049     0.000012804284     0.000010764927

  **** Optimization is complete! (in 5 steps) ****
    Final optimized geometry and variables:
    Molecular point group: c1

    Geometry (in Angstrom), charge = 0, multiplicity = 1:

    H            1.746183619617     3.516333642706    -1.069955864867
    O            2.568409439126     3.203166652496    -1.400407173537
    C            2.783944892089     1.882623994205    -0.975223727733
    C            1.763465454214     0.878795732955    -1.539655986743
    H            3.782508052019     1.635550991593    -1.305894928648
    H            2.788775623640     1.839783204611     0.110957809815
    C            0.993712685842     0.110618395982    -0.466943768603
    H            1.068139456237     1.423886417007    -2.169635812580
    H            2.265968792636     0.172295857283    -2.192187525448
    C           -0.014540332855    -0.877318788001    -1.049489095247
    H            0.488743106210     0.820990270419     0.181360032643
    H            1.697854480479    -0.427953351308     0.163618053711
    C           -0.746183636934    -1.739077462101    -0.018650250560
    H           -0.744093512644    -0.334699221658    -1.646304279789
    H            0.507159988418    -1.535712787789    -1.738581774021
    C           -1.699234398252    -0.977548291666     0.900832016095
    H           -1.312354603094    -2.499433459266    -0.549500954470
    H           -0.015698088269    -2.273716381280     0.584260021435
    C           -2.478989468271    -1.891554061288     1.842531515760
    H           -2.400498903900    -0.406800095780     0.295645832877
    H           -1.147810712904    -0.253453313835     1.492860612867
    C           -3.428077742622    -1.133866522741     2.765013305357
    H           -3.044444470894    -2.611462142971     1.257236691237
    H           -1.780021528005    -2.469152970868     2.441471161673
    H           -4.161093284843    -0.571483124755     2.196034230862
    H           -3.966247788246    -1.811510776164     3.417850636869
    H           -2.888054372762    -0.431261371435     3.391158403268

  Mulliken Charges: (a.u.)
   Center  Symbol    Alpha    Beta     Spin     Total
       1     H     0.39523  0.39523  0.00000  0.20955
       2     O     4.20167  4.20167  0.00000 -0.40335
       3     C     2.97210  2.97210  0.00000  0.05580
       4     C     3.10529  3.10529  0.00000 -0.21059
       5     H     0.45305  0.45305  0.00000  0.09389
       6     H     0.46978  0.46978  0.00000  0.06044
       7     C     3.09665  3.09665  0.00000 -0.19331
       8     H     0.44900  0.44900  0.00000  0.10200
       9     H     0.45074  0.45074  0.00000  0.09851
      10     C     3.10040  3.10040  0.00000 -0.20081
      11     H     0.45498  0.45498  0.00000  0.09005
      12     H     0.45316  0.45316  0.00000  0.09367
      13     C     3.09785  3.09785  0.00000 -0.19570
      14     H     0.45279  0.45279  0.00000  0.09442
      15     H     0.44729  0.44729  0.00000  0.10542
      16     C     3.08787  3.08787  0.00000 -0.17575
      17     H     0.44807  0.44807  0.00000  0.10386
      18     H     0.45350  0.45350  0.00000  0.09300
      19     C     3.08402  3.08402  0.00000 -0.16804
      20     H     0.45532  0.45532  0.00000  0.08937
      21     H     0.45414  0.45414  0.00000  0.09172
      22     C     3.14975  3.14975  0.00000 -0.29951
      23     H     0.45382  0.45382  0.00000  0.09236
      24     H     0.45445  0.45445  0.00000  0.09110
      25     H     0.45524  0.45524  0.00000  0.08951
      26     H     0.44818  0.44818  0.00000  0.10364
      27     H     0.45564  0.45564  0.00000  0.08873

   Total alpha = 37.00000, Total beta = 37.00000, Total charge = -0.00000

*** Psi4 exiting successfully. Buy a developer a beer!
