  ==> Input File <==

--------------------------------------------------------------------------
set {
	reference rhf
	basis 6-31G*
}

set_num_threads( 4 )
memory 2 gb

molecule MOL {
0 1

O	 1.132453	 -0.350799	 -0.114464
C	 0.028650	 0.075053	 -0.000277
C	 -1.233602	 -0.752807	 0.000328
O	 -0.242044	 1.365693	 0.144208
C	 -2.501530	 0.091881	 0.000126
H	 -1.193807	 -1.406641	 -0.865785
H	 -1.193516	 -1.405779	 0.867015
H	 -2.545121	 0.729328	 -0.874513
H	 -3.377167	 -0.548497	 0.000561
H	 -2.544818	 0.730135	 0.874258
C	 0.859533	 2.255577	 0.159140
H	 1.523769	 2.023878	 0.979212
H	 0.440432	 3.241747	 0.284390
H	 1.408022	 2.196808	 -0.769933

	symmetry c1
}
set optking {
	frozen_dihedral = ("
		4 2 3 6
	")
}

ee = optimize('scf')
oeprop('DIPOLE', 'QUADRUPOLE', 'MULLIKEN_CHARGES')
f=open( 'psi4out.xyz', 'w' )
f.write( "14  " )
f.write( str(ee) + "\n" )
f.write( MOL.save_string_xyz() )
f.close()
--------------------------------------------------------------------------

    Molecular point group: c1
  Charge       = 0
  Multiplicity = 1
  Basis Set: 6-31G*
  Basis Set:
  @DF-RHF Final Energy:  -305.86827818142120
    Total Energy =                       -305.8682781814210330
    Molecular point group: c1
  Basis Set: 6-31G*
  Basis Set:
  Basis Set: 6-31G*
  Basis Set:
  @DF-RHF Final Energy:  -305.86920381833744
    Total Energy =                       -305.8692038183375530
  Basis Set: 6-31G*
  Basis Set:
  Basis Set: 6-31G*
  Basis Set:
  @DF-RHF Final Energy:  -305.86955602134867
    Total Energy =                       -305.8695560213485010
  Basis Set: 6-31G*
  Basis Set:
  Basis Set: 6-31G*
  Basis Set:
  @DF-RHF Final Energy:  -305.86940431056365
    Total Energy =                       -305.8694043105637093
  Basis Set: 6-31G*
  Basis Set:
  Basis Set: 6-31G*
  Basis Set:
  @DF-RHF Final Energy:  -305.86959690370236
    Total Energy =                       -305.8695969037022451
  Basis Set: 6-31G*
  Basis Set:
  Charge       = 0
  Multiplicity = 1
  Basis Set: 6-31G*
  Basis Set:

    Orbital Energies (a.u.)
    -----------------------

    Doubly Occupied:

       1A    -20.607585     2A    -20.541040     3A    -11.373253
       4A    -11.282321     5A    -11.239112     6A    -11.220636
       7A     -1.471204     8A     -1.361752     9A     -1.065982
      10A     -0.975194    11A     -0.887279    12A     -0.775401
      13A     -0.695133    14A     -0.683274    15A     -0.670582
      16A     -0.621736    17A     -0.585814    18A     -0.557318
      19A     -0.547255    20A     -0.522231    21A     -0.516900
      22A     -0.499536    23A     -0.453340    24A     -0.433485

  @DF-RHF Final Energy:  -305.86959805365336

   => Energetics <=

    Nuclear Repulsion Energy =            248.4702239100638224
    One-Electron Energy =                -909.5049140491909156
    Two-Electron Energy =                 355.1650920854736455
    DFT Exchange-Correlation Energy =       0.0000000000000000
    Empirical Dispersion Energy =           0.0000000000000000
    PCM Polarization Energy =               0.0000000000000000
    EFP Energy =                            0.0000000000000000
    Total Energy =                       -305.8695980536534194
    Molecular point group: c1
  Basis Set: 6-31G*
  Basis Set:

  -Total Gradient:
     Atom            X                  Y                   Z
    ------   -----------------  -----------------  -----------------
       1       -0.000013812503     0.000013261417     0.000009002449
       2        0.000055826434    -0.000127956153     0.000175975356
       3        0.000130357621    -0.000125646551     0.000076427393
       4       -0.000014781371     0.000137648841    -0.000152517297
       5       -0.000010595122    -0.000006144961    -0.000003810705
       6       -0.000096656444     0.000136216087    -0.000106609945
       7       -0.000005599604    -0.000010776984     0.000002526203
       8       -0.000003353209    -0.000000384878     0.000010068672
       9       -0.000014915782     0.000008766774     0.000001456987
      10       -0.000002171936    -0.000000808177    -0.000009286961
      11       -0.000025856050    -0.000042008812    -0.000008890058
      12        0.000006449769     0.000008647342     0.000003626739
      13       -0.000012251737    -0.000001790331     0.000001813102
      14        0.000007359930     0.000010976387     0.000000218066

  **** Optimization is complete! (in 6 steps) ****
    Final optimized geometry and variables:
    Molecular point group: c1

    Geometry (in Angstrom), charge = 0, multiplicity = 1:

    O            1.419693796739    -0.834943410375    -0.131756306280
    C            0.329281456732    -0.369705579510    -0.032502361441
    C           -0.931744215745    -1.206782869637    -0.037060684946
    O            0.105691389741     0.927983228931     0.100844588289
    C           -2.255284027265    -0.447608050124    -0.031072842574
    H           -0.858566447957    -1.853624588381    -0.904757701211
    H           -0.859570316765    -1.861300592023     0.826450197818
    H           -2.346954009503     0.195256842995    -0.898558018512
    H           -3.081099155651    -1.151055227272    -0.044495936644
    H           -2.353309954196     0.171670518429     0.851986397701
    C            1.241001555874     1.775109357699     0.123247943325
    H            1.884758454308     1.523397949574     0.953466731950
    H            0.858240249885     2.777460185021     0.235437913208
    H            1.797839809288     1.686232712979    -0.798176045211

  Mulliken Charges: (a.u.)
   Center  Symbol    Alpha    Beta     Spin     Total
       1     O     4.28828  4.28828  0.00000 -0.57656
       2     C     2.60706  2.60706  0.00000  0.78588
       3     C     3.20899  3.20899  0.00000 -0.41799
       4     O     4.30408  4.30408  0.00000 -0.60815
       5     C     3.23777  3.23777  0.00000 -0.47555
       6     H     0.39721  0.39721  0.00000  0.20559
       7     H     0.39776  0.39776  0.00000  0.20448
       8     H     0.41315  0.41315  0.00000  0.17370
       9     H     0.41688  0.41688  0.00000  0.16624
      10     H     0.41148  0.41148  0.00000  0.17704
      11     C     3.09290  3.09290  0.00000 -0.18579
      12     H     0.40805  0.40805  0.00000  0.18390
      13     H     0.40847  0.40847  0.00000  0.18306
      14     H     0.40793  0.40793  0.00000  0.18414

   Total alpha = 24.00000, Total beta = 24.00000, Total charge = -0.00000
