  ==> Input File <==

--------------------------------------------------------------------------
set {
	reference rhf
	basis cc-pvtz
}

set_num_threads( 4 )
memory 2 gb

molecule MOL {
0 1

O	 2.356797	 2.144438	 0.053464
C	 1.265877	 2.601940	 0.156878
C	 0.020950	 1.738252	 0.151131
C	 1.046413	 4.090846	 0.302549
C	 0.288398	 0.247429	 0.000314
H	 -0.522505	 1.941220	 1.071201
H	 -0.622840	 2.097195	 -0.648681
C	 -0.993089	 -0.581367	 -0.000217
H	 0.938696	 -0.080093	 0.803406
H	 0.838409	 0.076067	 -0.917976
C	 -2.258482	 0.271340	 0.000669
H	 -1.002280	 -1.233920	 -0.870484
H	 -1.002061	 -1.235367	 0.868958
C	 -3.544441	 -0.550271	 -0.000253
H	 -2.250545	 0.925250	 -0.867923
H	 -2.250598	 0.923423	 0.870642
C	 -4.804551	 0.308747	 0.000556
H	 -3.553737	 -1.201524	 -0.870151
H	 -3.553831	 -1.203282	 0.868313
H	 -4.842050	 0.949078	 -0.874436
H	 -5.698404	 -0.304480	 -0.000254
H	 -4.842277	 0.947103	 0.876982
H	 0.524148	 4.303123	 1.228954
H	 1.995963	 4.603378	 0.295027
H	 0.426751	 4.458418	 -0.507977

	symmetry c1
}
set optking {
	frozen_dihedral = ("
		9 5 8 12
	")
}

ee = optimize('scf')
oeprop('DIPOLE', 'QUADRUPOLE', 'MULLIKEN_CHARGES')
f=open( 'psi4out.xyz', 'w' )
f.write( "25  " )
f.write( str(ee) + "\n" )
f.write( MOL.save_string_xyz() )
f.close()
--------------------------------------------------------------------------

    Molecular point group: c1
  Charge       = 0
  Multiplicity = 1
  Basis Set: CC-PVTZ
  Basis Set:
  @DF-RHF Final Energy:  -387.25911714492304
    Total Energy =                       -387.2591171449232661
    Molecular point group: c1
  Basis Set: CC-PVTZ
  Basis Set:
  Basis Set: CC-PVTZ
  Basis Set:
  @DF-RHF Final Energy:  -387.25921377537355
    Total Energy =                       -387.2592137753738371
  Basis Set: CC-PVTZ
  Basis Set:
  Basis Set: CC-PVTZ
  Basis Set:
  @DF-RHF Final Energy:  -387.26349638999255
    Total Energy =                       -387.2634963899923832
  Basis Set: CC-PVTZ
  Basis Set:
  Basis Set: CC-PVTZ
  Basis Set:
  @DF-RHF Final Energy:  -387.26425324931495
    Total Energy =                       -387.2642532493149474
  Basis Set: CC-PVTZ
  Basis Set:
  Basis Set: CC-PVTZ
  Basis Set:
  @DF-RHF Final Energy:  -387.26434513746261
    Total Energy =                       -387.2643451374627830
  Basis Set: CC-PVTZ
  Basis Set:
  Basis Set: CC-PVTZ
  Basis Set:
  @DF-RHF Final Energy:  -387.26433322671596
    Total Energy =                       -387.2643332267161895
  Basis Set: CC-PVTZ
  Basis Set:
  Basis Set: CC-PVTZ
  Basis Set:
  @DF-RHF Final Energy:  -387.26437323142926
    Total Energy =                       -387.2643732314286353
  Basis Set: CC-PVTZ
  Basis Set:
  Charge       = 0
  Multiplicity = 1
  Basis Set: CC-PVTZ
  Basis Set:

    Orbital Energies (a.u.)
    -----------------------

    Doubly Occupied:

       1A    -20.538470     2A    -11.320024     3A    -11.229404
       4A    -11.226185     5A    -11.216010     6A    -11.215569
       7A    -11.215263     8A    -11.214845     9A    -11.209370
      10A     -1.398582    11A     -1.093509    12A     -1.056680
      13A     -1.013887    14A     -0.968718    15A     -0.900600
      16A     -0.818313    17A     -0.786773    18A     -0.727558
      19A     -0.662588    20A     -0.656623    21A     -0.633629
      22A     -0.623903    23A     -0.596459    24A     -0.584985
      25A     -0.569389    26A     -0.560569    27A     -0.544013
      28A     -0.526300    29A     -0.524289    30A     -0.494599
      31A     -0.494335    32A     -0.477578    33A     -0.460749
      34A     -0.451065    35A     -0.448401    36A     -0.402553

  @DF-RHF Final Energy:  -387.26437349230088

   => Energetics <=

    Nuclear Repulsion Energy =            446.4713031366815699
    One-Electron Energy =               -1409.7477757041986024
    Two-Electron Energy =                 576.0120990752163834
    DFT Exchange-Correlation Energy =       0.0000000000000000
    Empirical Dispersion Energy =           0.0000000000000000
    PCM Polarization Energy =               0.0000000000000000
    EFP Energy =                            0.0000000000000000
    Total Energy =                       -387.2643734923005923
    Molecular point group: c1
  Basis Set: CC-PVTZ
  Basis Set:

  -Total Gradient:
     Atom            X                  Y                   Z
    ------   -----------------  -----------------  -----------------
       1        0.000019370243    -0.000002168779    -0.000028880719
       2       -0.000011313535    -0.000039358919     0.000091361226
       3        0.000053845703     0.000041556386    -0.000056171096
       4       -0.000008072236     0.000001692225    -0.000032248360
       5        0.000942937580    -0.001322148885    -0.001818349425
       6       -0.000038996598    -0.000015451793     0.000022454374
       7        0.000057908914     0.000004783094     0.000018116300
       8        0.000872871855    -0.001521944559     0.001678861338
       9       -0.000864403153     0.001415217837     0.001270703519
      10       -0.000001213295     0.000030291604     0.000035171265
      11       -0.000044013212    -0.000047305206    -0.000185207705
      12       -0.000965126236     0.001502003252    -0.001077756870
      13       -0.000035160397    -0.000017953511    -0.000037579494
      14        0.000026141818    -0.000007668370     0.000049837690
      15       -0.000055457665    -0.000066999194     0.000001982163
      16        0.000053522236     0.000040386068     0.000027219965
      17        0.000000117696     0.000008709171     0.000025771633
      18        0.000009758816     0.000021159220     0.000007207062
      19       -0.000004163087    -0.000028610274     0.000002627146
      20        0.000002805668    -0.000000070070     0.000000290373
      21       -0.000002008864     0.000001114083     0.000001367518
      22       -0.000008778990     0.000002767926    -0.000001740191
      23        0.000002992753    -0.000004363688     0.000001350168
      24       -0.000001353064    -0.000003834719    -0.000000115935
      25       -0.000002212940     0.000008197103     0.000003728054

  **** Optimization is complete! (in 8 steps) ****
    Final optimized geometry and variables:
    Molecular point group: c1

    Geometry (in Angstrom), charge = 0, multiplicity = 1:

    O            3.185799481241     0.913090449539    -0.020640114392
    C            2.140176672751     1.465466814169     0.086550713410
    C            0.818876814250     0.721707203031     0.083951397276
    C            2.056432193567     2.968503675659     0.233966946557
    C            0.970624167540    -0.788840579432    -0.069857426632
    H            0.307666438125     0.978196265455     1.007419388509
    H            0.214320952159     1.148758836094    -0.710261978263
    C           -0.338256115685    -1.623209947407    -0.070181288445
    H            1.606892451011    -1.128826515167     0.736550591105
    H            1.523559372808    -0.978397916009    -0.979931699265
    C           -1.668209857522    -0.866469614638    -0.079179900857
    H           -0.330975647086    -2.266977792592    -0.943355559392
    H           -0.333854617029    -2.283965763298     0.789970876892
    C           -2.870024959226    -1.808040684236    -0.080190328087
    H           -1.727181417151    -0.224649254505    -0.953935043161
    H           -1.737930227834    -0.213623090831     0.785965426969
    C           -4.206777855780    -1.073904180668    -0.087632999374
    H           -2.813401086615    -2.461220243898    -0.946498447150
    H           -2.819551531467    -2.454819692418     0.791380509020
    H           -4.303276793819    -0.444351145035    -0.966078022864
    H           -5.037270223562    -1.770433563991    -0.088382953922
    H           -4.309899538666    -0.438380728733     0.785756945120
    H            1.556779270380     3.226470902716     1.161203768852
    H            3.048550352450     3.392926086495     0.225790894532
    H            1.471963507279     3.391715973764    -0.575522762466

  Mulliken Charges: (a.u.)
   Center  Symbol    Alpha    Beta     Spin     Total
       1     O     4.17062  4.17062  0.00000 -0.34124
       2     C     2.86335  2.86335  0.00000  0.27330
       3     C     3.11664  3.11664  0.00000 -0.23327
       4     C     3.15108  3.15108  0.00000 -0.30215
       5     C     3.09009  3.09009  0.00000 -0.18018
       6     H     0.44435  0.44435  0.00000  0.11130
       7     H     0.44352  0.44352  0.00000  0.11295
       8     C     3.09941  3.09941  0.00000 -0.19881
       9     H     0.44270  0.44270  0.00000  0.11460
      10     H     0.44257  0.44257  0.00000  0.11487
      11     C     3.09059  3.09059  0.00000 -0.18117
      12     H     0.44939  0.44939  0.00000  0.10122
      13     H     0.44963  0.44963  0.00000  0.10074
      14     C     3.08411  3.08411  0.00000 -0.16821
      15     H     0.45439  0.45439  0.00000  0.09122
      16     H     0.45444  0.45444  0.00000  0.09111
      17     C     3.15006  3.15006  0.00000 -0.30011
      18     H     0.45349  0.45349  0.00000  0.09301
      19     H     0.45389  0.45389  0.00000  0.09221
      20     H     0.45555  0.45555  0.00000  0.08890
      21     H     0.44767  0.44767  0.00000  0.10465
      22     H     0.45574  0.45574  0.00000  0.08851
      23     H     0.45086  0.45086  0.00000  0.09829
      24     H     0.43509  0.43509  0.00000  0.12982
      25     H     0.45078  0.45078  0.00000  0.09844

   Total alpha = 36.00000, Total beta = 36.00000, Total charge = -0.00000
