                              Psi4 1.0.54 Driver

  ==> Input File <==

--------------------------------------------------------------------------
set {
	reference rhf
	basis cc-pvtz
}

set_num_threads( 4 )
memory 2 gb

molecule MOL {
0 1

H	 -0.289801	 -1.183083	 -2.362310
C	 -0.702776	 -0.211163	 -2.112379
O	 -0.775228	 0.000056	 -0.739966
H	 -1.715435	 -0.169608	 -2.487806
H	 -0.122843	 0.552469	 -2.620490
C	 0.406133	 -0.000384	 0.036994
C	 1.526415	 -0.003194	 -0.997339
C	 0.498772	 1.259027	 0.900673
C	 0.495883	 -1.257378	 0.904465
H	 1.452279	 0.872071	 -1.630204
H	 1.451276	 -0.881020	 -1.626529
H	 2.497919	 -0.002741	 -0.517601
H	 0.368981	 2.144239	 0.289753
H	 1.470064	 1.313479	 1.377660
H	 -0.248448	 1.271586	 1.684297
H	 0.363971	 -2.144195	 0.296316
H	 1.467114	 -1.312636	 1.381470
H	 -0.251246	 -1.265768	 1.688235

	symmetry c1
}
set optking {
	frozen_dihedral = ("
		2 3 6 7
	")
}

ee,wfn = optimize('scf', return_wfn=True)
oeprop( wfn, 'DIPOLE', 'QUADRUPOLE', 'MULLIKEN_CHARGES')
f=open( 'psi4out.xyz', 'w' )
f.write( "18  " )
f.write( str(ee) + "\n" )
f.write( MOL.save_string_xyz() )
f.close()
--------------------------------------------------------------------------

    Molecular point group: c1
  Charge       = 0
  Multiplicity = 1
  Basis Set: CC-PVTZ
  Basis Set:
  @DF-RHF Final Energy:  -271.25769566660421
    Total Energy =                       -271.2576956666040928
    Molecular point group: c1
  Basis Set: CC-PVTZ
  Basis Set:
  Basis Set: CC-PVTZ
  Basis Set:
  @DF-RHF Final Energy:  -271.12702133199343
    Total Energy =                       -271.1270213319934328
  Basis Set: CC-PVTZ
  Basis Set:
  Basis Set: CC-PVTZ
  Basis Set:
  @DF-RHF Final Energy:  -271.22994408184326
    Total Energy =                       -271.2299440818429730
  Basis Set: CC-PVTZ
  Basis Set:
  Basis Set: CC-PVTZ
  Basis Set:
  @DF-RHF Final Energy:  -271.26812316968159
    Total Energy =                       -271.2681231696815871
  Basis Set: CC-PVTZ
  Basis Set:
  @DF-RHF Final Energy:  -271.27232124502217
    Total Energy =                       -271.2723212450223400
  @DF-RHF Final Energy:  -271.27248281143494
    Total Energy =                       -271.2724828114348838
  Basis Set: CC-PVTZ
  Basis Set:
  @DF-RHF Final Energy:  -271.27267033060417
    Total Energy =                       -271.2726703306039440
  Basis Set: CC-PVTZ
  Basis Set:
  Basis Set: CC-PVTZ
  Basis Set:
  @DF-RHF Final Energy:  -271.27266958957705
    Total Energy =                       -271.2726695895770490
  Basis Set: CC-PVTZ
  Basis Set:
  Basis Set: CC-PVTZ
  Basis Set:
  @DF-RHF Final Energy:  -271.27267671350370
    Total Energy =                       -271.2726767135036994
  Basis Set: CC-PVTZ
  Basis Set:
  Charge       = 0
  Multiplicity = 1
  Basis Set: CC-PVTZ
  Basis Set:

    Orbital Energies (a.u.)
    -----------------------

    Doubly Occupied:

       1A    -20.537272     2A    -11.280691     3A    -11.259483
       4A    -11.211611     5A    -11.202327     6A    -11.202113
       7A     -1.369558     8A     -1.075543     9A     -0.951499
      10A     -0.935618    11A     -0.912324    12A     -0.752235
      13A     -0.657661    14A     -0.648066    15A     -0.638587
      16A     -0.583007    17A     -0.577942    18A     -0.548912
      19A     -0.542616    20A     -0.526989    21A     -0.515337
      22A     -0.491446    23A     -0.484207    24A     -0.443400
      25A     -0.398989

  @DF-RHF Final Energy:  -271.27267667934518

   => Energetics <=

    Nuclear Repulsion Energy =            272.0648844591303259
    One-Electron Energy =                -907.1802493696513920
    Two-Electron Energy =                 363.8426882311761688
    DFT Exchange-Correlation Energy =       0.0000000000000000
    Empirical Dispersion Energy =           0.0000000000000000
    PCM Polarization Energy =               0.0000000000000000
    EFP Energy =                            0.0000000000000000
    Total Energy =                       -271.2726766793448974
    Molecular point group: c1
  Basis Set: CC-PVTZ
  Basis Set:

  -Total Gradient:
     Atom            X                  Y                   Z
    ------   -----------------  -----------------  -----------------
       1       -0.000011932384     0.000014898467    -0.000000428152
       2        0.000369055389     0.001840910165    -0.000022543936
       3       -0.000611298063    -0.003498879352    -0.000070321025
       4        0.000004109948    -0.000001335394     0.000006875575
       5        0.000005334362     0.000000196402     0.000016655205
       6        0.000347980935     0.003254447652     0.000213380313
       7       -0.000120165644    -0.001607301174    -0.000136709692
       8        0.000007534239    -0.000002244492     0.000008335104
       9        0.000004849465    -0.000003289934     0.000014196552
      10       -0.000008202827    -0.000000627274    -0.000022791274
      11        0.000006152901     0.000002207899     0.000024341092
      12       -0.000006206266     0.000011679962    -0.000009083006
      13       -0.000006518145    -0.000000165898     0.000006535364
      14        0.000002974346     0.000001186691    -0.000009107836
      15        0.000017034360    -0.000008998008    -0.000004211809
      16        0.000004259423     0.000003782684     0.000002035799
      17       -0.000017552101     0.000006673581    -0.000006032809
      18        0.000012590061    -0.000013141977    -0.000011125461

  **** Optimization is complete! (in 10 steps) ****
    Final optimized geometry and variables:
    Molecular point group: c1

    Geometry (in Angstrom), charge = 0, multiplicity = 1:

    H            0.130128617587    -0.928698768503    -2.239935697740
    C           -0.276742755888     0.055334433760    -2.024437071043
    O           -0.765615887941     0.160349500716    -0.728190146456
    H           -1.116866849242     0.221158694684    -2.684053667847
    H            0.480489815803     0.799232711227    -2.248279503467
    C            0.068336304576    -0.010082933213     0.409077921217
    C            1.560910171148    -0.073567001741     0.082979392278
    C           -0.218206387870     1.181541857466     1.317391794466
    C           -0.366044279236    -1.312086092911     1.081633583950
    H            1.908436267394     0.833844251922    -0.394785805785
    H            1.803267123625    -0.913564090844    -0.554735179192
    H            2.116158283470    -0.191523113582     1.004997277347
    H            0.084129708306     2.104416767452     0.836896151008
    H            0.312650480172     1.093513042452     2.258616795643
    H           -1.278978065874     1.242393800165     1.524101162596
    H           -0.189943282293    -2.155940510719     0.424249634182
    H            0.178258277541    -1.480594860820     2.004152494737
    H           -1.424308125690    -1.277585193663     1.306681460184

  Mulliken Charges: (a.u.)
   Center  Symbol    Alpha    Beta     Spin     Total
       1     H     0.46999  0.46999  0.00000  0.06002
       2     C     3.04100  3.04100  0.00000 -0.08200
       3     O     4.19950  4.19950  0.00000 -0.39899
       4     H     0.44264  0.44264  0.00000  0.11473
       5     H     0.46868  0.46868  0.00000  0.06264
       6     C     2.87049  2.87049  0.00000  0.25901
       7     C     3.17684  3.17684  0.00000 -0.35369
       8     C     3.14048  3.14048  0.00000 -0.28096
       9     C     3.14307  3.14307  0.00000 -0.28614
      10     H     0.44510  0.44510  0.00000  0.10979
      11     H     0.44436  0.44436  0.00000  0.11128
      12     H     0.44243  0.44243  0.00000  0.11513
      13     H     0.45222  0.45222  0.00000  0.09557
      14     H     0.45861  0.45861  0.00000  0.08277
      15     H     0.44761  0.44761  0.00000  0.10477
      16     H     0.45189  0.45189  0.00000  0.09622
      17     H     0.45701  0.45701  0.00000  0.08599
      18     H     0.44808  0.44808  0.00000  0.10385

   Total alpha = 25.00000, Total beta = 25.00000, Total charge = -0.00000

*** Psi4 exiting successfully. Buy a developer a beer!
