  ==> Input File <==

--------------------------------------------------------------------------
set {
	reference rhf
	basis cc-pvtz
}

set_num_threads( 4 )
memory 2 gb

molecule MOL {
0 1

O	 0.541902	 0.545780	 -0.958386
C	 0.029490	 0.077183	 0.000078
C	 -1.232113	 -0.748027	 0.000015
O	 0.510371	 0.221619	 1.223648
C	 -2.501422	 0.088592	 -0.000052
H	 -1.188777	 -1.400384	 -0.865133
H	 -1.188857	 -1.400312	 0.865225
H	 -2.548170	 0.725504	 -0.873205
H	 -3.371613	 -0.556398	 -0.000040
H	 -2.548215	 0.725571	 0.873047
C	 1.696146	 0.976732	 1.369887
H	 2.506240	 0.525296	 0.816545
H	 1.920565	 0.977581	 2.424146
H	 1.549976	 1.987540	 1.018964

	symmetry c1
}
set optking {
	frozen_dihedral = ("
		4 2 3 6
	")
}

ee = optimize('scf')
oeprop('DIPOLE', 'QUADRUPOLE', 'MULLIKEN_CHARGES')
f=open( 'psi4out.xyz', 'w' )
f.write( "14  " )
f.write( str(ee) + "\n" )
f.write( MOL.save_string_xyz() )
f.close()
--------------------------------------------------------------------------

    Molecular point group: c1
  Charge       = 0
  Multiplicity = 1
  Basis Set: CC-PVTZ
  Basis Set:
  @DF-RHF Final Energy:  -305.98526756463923
    Total Energy =                       -305.9852675646391731
    Molecular point group: c1
  Basis Set: CC-PVTZ
  Basis Set:
  Basis Set: CC-PVTZ
  Basis Set:
  @DF-RHF Final Energy:  -305.98584527650166
    Total Energy =                       -305.9858452765014363
  Basis Set: CC-PVTZ
  Basis Set:
  Basis Set: CC-PVTZ
  Basis Set:
  @DF-RHF Final Energy:  -305.98439158252268
    Total Energy =                       -305.9843915825227896
  Basis Set: CC-PVTZ
  Basis Set:
  Basis Set: CC-PVTZ
  Basis Set:
  @DF-RHF Final Energy:  -305.98598140098738
    Total Energy =                       -305.9859814009870433
  Basis Set: CC-PVTZ
  Basis Set:
  Basis Set: CC-PVTZ
  Basis Set:
  @DF-RHF Final Energy:  -305.98598716243947
    Total Energy =                       -305.9859871624395282
  Basis Set: CC-PVTZ
  Basis Set:
  Charge       = 0
  Multiplicity = 1
  Basis Set: CC-PVTZ
  Basis Set:

    Orbital Energies (a.u.)
    -----------------------

    Doubly Occupied:

       1A    -20.599150     2A    -20.532312     3A    -11.364413
       4A    -11.279178     5A    -11.235659     6A    -11.224768
       7A     -1.473094     8A     -1.365392     9A     -1.067430
      10A     -0.979499    11A     -0.882808    12A     -0.775762
      13A     -0.700280    14A     -0.683009    15A     -0.676176
      16A     -0.618055    17A     -0.600409    18A     -0.567241
      19A     -0.542623    20A     -0.520859    21A     -0.509553
      22A     -0.505750    23A     -0.459497    24A     -0.438401

  @DF-RHF Final Energy:  -305.98598733746695

   => Energetics <=

    Nuclear Repulsion Energy =            248.2106738878047167
    One-Electron Energy =                -909.1906856792353437
    Two-Electron Energy =                 354.9940244539638456
    DFT Exchange-Correlation Energy =       0.0000000000000000
    Empirical Dispersion Energy =           0.0000000000000000
    PCM Polarization Energy =               0.0000000000000000
    EFP Energy =                            0.0000000000000000
    Total Energy =                       -305.9859873374667245
    Molecular point group: c1
  Basis Set: CC-PVTZ
  Basis Set:

  -Total Gradient:
     Atom            X                  Y                   Z
    ------   -----------------  -----------------  -----------------
       1       -0.000033954827    -0.000020176035     0.000028090879
       2       -0.000141895512     0.000246708652    -0.000029314063
       3       -0.000132713980     0.000179397543    -0.000187999019
       4        0.000158846333    -0.000177969715     0.000043178256
       5        0.000025000970    -0.000008484441     0.000004303476
       6        0.000142140300    -0.000203786530     0.000148089814
       7       -0.000005365704     0.000006161826     0.000001047509
       8       -0.000002646145     0.000000655328    -0.000004100922
       9        0.000004037378    -0.000000524288    -0.000000895849
      10       -0.000004592085     0.000003771554     0.000004971606
      11       -0.000012504878    -0.000038485500    -0.000015319974
      12        0.000011958689     0.000010316009     0.000003665265
      13       -0.000003670136     0.000001528909     0.000003212884
      14       -0.000004640403     0.000000886688     0.000001070139

  **** Optimization is complete! (in 6 steps) ****
    Final optimized geometry and variables:
    Molecular point group: c1

    Geometry (in Angstrom), charge = 0, multiplicity = 1:

    O            0.623311418110     0.363495840768    -1.228970969336
    C            0.162350097318    -0.149413454724    -0.265994493561
    C           -1.089344792817    -0.989169302633    -0.270286152852
    O            0.681787309377    -0.021398138407     0.942666448659
    C           -2.337434949916    -0.103800098946    -0.305656099499
    H           -1.053417558466    -1.612745974741    -1.153154505486
    H           -1.101377930025    -1.624154955656     0.604026907832
    H           -2.332097177989     0.530853599685    -1.182005449534
    H           -3.228798437838    -0.717301091738    -0.334070848148
    H           -2.393121127890     0.526869002992     0.573716762800
    C            1.837986159477     0.782565156490     1.068413598826
    H            2.645223094271     0.383488533149     0.472596341690
    H            2.101181404288     0.763748153845     2.113490106939
    H            1.633962055669     1.794874519229     0.752640104650

  Mulliken Charges: (a.u.)
   Center  Symbol    Alpha    Beta     Spin     Total
       1     O     4.20463  4.20463  0.00000 -0.40926
       2     C     2.79834  2.79834  0.00000  0.40332
       3     C     3.08446  3.08446  0.00000 -0.16891
       4     O     4.14789  4.14789  0.00000 -0.29578
       5     C     3.14919  3.14919  0.00000 -0.29837
       6     H     0.44157  0.44157  0.00000  0.11687
       7     H     0.44275  0.44275  0.00000  0.11449
       8     H     0.44376  0.44376  0.00000  0.11248
       9     H     0.44808  0.44808  0.00000  0.10383
      10     H     0.45123  0.45123  0.00000  0.09754
      11     C     3.03480  3.03480  0.00000 -0.06959
      12     H     0.45348  0.45348  0.00000  0.09305
      13     H     0.44554  0.44554  0.00000  0.10892
      14     H     0.45429  0.45429  0.00000  0.09142

   Total alpha = 24.00000, Total beta = 24.00000, Total charge =  0.00000
