  ==> Input File <==

--------------------------------------------------------------------------
set {
	reference rhf
	basis 6-31G*
}

set_num_threads( 4 )
memory 2 gb

molecule MOL {
0 1

H	 3.329151	 -0.638124	 0.822364
N	 3.092854	 -0.246221	 -0.068770
C	 1.865559	 0.531981	 0.018834
H	 2.976635	 -1.015064	 -0.701386
C	 0.645745	 -0.382037	 -0.029944
H	 1.841966	 1.207024	 -0.831236
H	 1.815756	 1.155410	 0.915079
C	 -0.679275	 0.379305	 0.025956
H	 0.698998	 -0.976915	 -0.937203
H	 0.693479	 -1.083846	 0.802235
C	 -1.903357	 -0.536963	 -0.023547
H	 -0.726309	 1.082987	 -0.803784
H	 -0.717680	 0.977832	 0.934877
C	 -3.225172	 0.228290	 0.028445
H	 -1.867824	 -1.134999	 -0.931459
H	 -1.860449	 -1.239604	 0.805977
H	 -3.313397	 0.915643	 -0.808262
H	 -4.073500	 -0.448134	 -0.008893
H	 -3.306061	 0.809945	 0.942516

	symmetry c1
}
set optking {
	frozen_dihedral = ("
		1 2 3 6
	")
}

ee = optimize('scf')
oeprop('DIPOLE', 'QUADRUPOLE', 'MULLIKEN_CHARGES')
f=open( 'psi4out.xyz', 'w' )
f.write( "19  " )
f.write( str(ee) + "\n" )
f.write( MOL.save_string_xyz() )
f.close()
--------------------------------------------------------------------------

    Molecular point group: c1
  Charge       = 0
  Multiplicity = 1
  Basis Set: 6-31G*
  Basis Set:
  @DF-RHF Final Energy:  -251.34846292411430
    Total Energy =                       -251.3484629241141874
    Molecular point group: c1
  Basis Set: 6-31G*
  Basis Set:
  Basis Set: 6-31G*
  Basis Set:
  @DF-RHF Final Energy:  -251.35069280748976
    Total Energy =                       -251.3506928074893949
  Basis Set: 6-31G*
  Basis Set:
  Basis Set: 6-31G*
  Basis Set:
  @DF-RHF Final Energy:  -251.35095890401516
    Total Energy =                       -251.3509589040149876
  Basis Set: 6-31G*
  Basis Set:
  Basis Set: 6-31G*
  Basis Set:
  @DF-RHF Final Energy:  -251.35096572860385
    Total Energy =                       -251.3509657286040238
  Basis Set: 6-31G*
  Basis Set:
  Basis Set: 6-31G*
  Basis Set:
  @DF-RHF Final Energy:  -251.35096837192305
    Total Energy =                       -251.3509683719231589
  Basis Set: 6-31G*
  Basis Set:
  Basis Set: 6-31G*
  Basis Set:
  @DF-RHF Final Energy:  -251.35096940522379
    Total Energy =                       -251.3509694052237933
  Basis Set: 6-31G*
  Basis Set:
  Charge       = 0
  Multiplicity = 1
  Basis Set: 6-31G*
  Basis Set:

    Orbital Energies (a.u.)
    -----------------------

    Doubly Occupied:

       1A    -15.531242     2A    -11.239437     3A    -11.216856
       4A    -11.215730     5A    -11.213760     6A    -11.209532
       7A     -1.175723     8A     -1.075526     9A     -0.999848
      10A     -0.901283    11A     -0.819407    12A     -0.792817
      13A     -0.677835    14A     -0.638823    15A     -0.600491
      16A     -0.585792    17A     -0.574510    18A     -0.557669
      19A     -0.520533    20A     -0.505337    21A     -0.479771
      22A     -0.471067    23A     -0.467228    24A     -0.463470
      25A     -0.373121

  @DF-RHF Final Energy:  -251.35096953811467

   => Energetics <=

    Nuclear Repulsion Energy =            245.3816971879147104
    One-Electron Energy =                -824.8517155557058231
    Two-Electron Energy =                 328.1190488296763874
    DFT Exchange-Correlation Energy =       0.0000000000000000
    Empirical Dispersion Energy =           0.0000000000000000
    PCM Polarization Energy =               0.0000000000000000
    EFP Energy =                            0.0000000000000000
    Total Energy =                       -251.3509695381147253
    Molecular point group: c1
  Basis Set: 6-31G*
  Basis Set:

  -Total Gradient:
     Atom            X                  Y                   Z
    ------   -----------------  -----------------  -----------------
       1        0.001197222945     0.002214764842     0.000743561215
       2       -0.001249334809    -0.002362255306    -0.000610727993
       3       -0.000874095292    -0.001465396542    -0.001520080191
       4        0.000017152675    -0.000026441043    -0.000015767922
       5       -0.000064824559    -0.000011436346     0.000028598250
       6        0.000963870778     0.001676973301     0.001400534173
       7       -0.000008829072    -0.000008447156    -0.000020089896
       8       -0.000032141799    -0.000000714121    -0.000006928272
       9       -0.000004038241     0.000004737706    -0.000012446087
      10       -0.000013078871    -0.000013070048     0.000009087850
      11        0.000007874093    -0.000023651434     0.000011408276
      12       -0.000002359429     0.000008604438    -0.000006962370
      13        0.000011299856    -0.000005265846     0.000007418267
      14        0.000033656496     0.000022766283    -0.000013102650
      15        0.000000370374    -0.000006971663    -0.000001197350
      16        0.000001954063    -0.000001676297     0.000008541166
      17       -0.000003781948     0.000008599523    -0.000000819638
      18        0.000021542843    -0.000009091642    -0.000005526441
      19       -0.000002460101    -0.000002028650     0.000004499613

  **** Optimization is complete! (in 7 steps) ****
    Final optimized geometry and variables:
    Molecular point group: c1

    Geometry (in Angstrom), charge = 0, multiplicity = 1:

    H            3.374174585500    -0.593556424853     0.845132770007
    N            3.153477174318    -0.180166158861    -0.039132883794
    C            1.870938923760     0.504466533994     0.006447632596
    H            3.159528953589    -0.906726909586    -0.728443589974
    C            0.636532755749    -0.399032362230    -0.025569858804
    H            1.834441447512     1.215065721802    -0.814716413982
    H            1.856873681249     1.104455974816     0.911840982421
    C           -0.680106922268     0.377703936349     0.025006641381
    H            0.664199649009    -1.005628541505    -0.930376416838
    H            0.683689840096    -1.094796970966     0.811123123199
    C           -1.917014560168    -0.521515137227    -0.015899207282
    H           -0.718113706677     1.077044520279    -0.808647178367
    H           -0.707216122323     0.982573855477     0.930094082601
    C           -3.227539261831     0.262964960036     0.034256192479
    H           -1.892625265310    -1.125611978396    -0.920353249856
    H           -1.882168518585    -1.219520170534     0.817871286565
    H           -3.307607680200     0.946755533648    -0.806106113657
    H           -4.085384448070    -0.401625118653     0.002492312358
    H           -3.298106933441     0.850732208261     0.945176198693

  Mulliken Charges: (a.u.)
   Center  Symbol    Alpha    Beta     Spin     Total
       1     H     0.33373  0.33373  0.00000  0.33255
       2     N     3.92189  3.92189  0.00000 -0.84378
       3     C     3.05850  3.05850  0.00000 -0.11700
       4     H     0.33431  0.33431  0.00000  0.33138
       5     C     3.15893  3.15893  0.00000 -0.31785
       6     H     0.41889  0.41889  0.00000  0.16222
       7     H     0.42125  0.42125  0.00000  0.15749
       8     C     3.15498  3.15498  0.00000 -0.30995
       9     H     0.42676  0.42676  0.00000  0.14648
      10     H     0.42634  0.42634  0.00000  0.14732
      11     C     3.15077  3.15077  0.00000 -0.30155
      12     H     0.42261  0.42261  0.00000  0.15479
      13     H     0.42344  0.42344  0.00000  0.15313
      14     C     3.23938  3.23938  0.00000 -0.47876
      15     H     0.42290  0.42290  0.00000  0.15420
      16     H     0.42308  0.42308  0.00000  0.15385
      17     H     0.42146  0.42146  0.00000  0.15709
      18     H     0.41917  0.41917  0.00000  0.16166
      19     H     0.42163  0.42163  0.00000  0.15674

   Total alpha = 25.00000, Total beta = 25.00000, Total charge =  0.00000
