  ==> Input File <==

--------------------------------------------------------------------------
set {
	reference rhf
	basis 6-31G*
}

set_num_threads( 4 )
memory 2 gb

molecule MOL {
0 1

O	 3.225979	 0.970355	 -0.599647
C	 2.701189	 0.057885	 -0.047330
C	 1.245376	 -0.013843	 0.345420
O	 3.347903	 -1.046386	 0.304773
C	 0.455112	 1.231400	 -0.050772
H	 0.838542	 -0.913825	 -0.103701
H	 1.208210	 -0.175333	 1.419774
C	 -0.998893	 1.219485	 0.433193
H	 0.482531	 1.345121	 -1.130325
H	 0.957290	 2.103070	 0.354729
C	 -1.883438	 0.145884	 -0.207175
H	 -1.431207	 2.195402	 0.224832
H	 -1.019646	 1.105716	 1.516076
C	 -3.347647	 0.245583	 0.225435
H	 -1.822183	 0.231698	 -1.291012
H	 -1.510341	 -0.844814	 0.042401
C	 -4.239992	 -0.825570	 -0.404234
H	 -3.732888	 1.230466	 -0.033079
H	 -3.408585	 0.170602	 1.310038
C	 -4.483002	 -2.019040	 0.518954
H	 -5.194701	 -0.382339	 -0.679405
H	 -3.787045	 -1.172871	 -1.330518
H	 -5.118426	 -2.760674	 0.044801
H	 -4.967366	 -1.709371	 1.440742
H	 -3.548769	 -2.505538	 0.785041
C	 4.728119	 -1.109107	 -0.004993
H	 4.882018	 -1.033965	 -1.071845
H	 5.068212	 -2.067527	 0.355250
H	 5.265056	 -0.311663	 0.488280

	symmetry c1
}
set optking {
	frozen_dihedral = ("
		21 17 14 11
	")
}

ee = optimize('scf')
oeprop('DIPOLE', 'QUADRUPOLE', 'MULLIKEN_CHARGES')
f=open( 'psi4out.xyz', 'w' )
f.write( "29  " )
f.write( str(ee) + "\n" )
f.write( MOL.save_string_xyz() )
f.close()
--------------------------------------------------------------------------

    Molecular point group: c1
  Charge       = 0
  Multiplicity = 1
  Basis Set: 6-31G*
  Basis Set:
  @DF-RHF Final Energy:  -501.03972308528887
    Total Energy =                       -501.0397230852898929
    Molecular point group: c1
  Basis Set: 6-31G*
  Basis Set:
  Basis Set: 6-31G*
  Basis Set:
  @DF-RHF Final Energy:  -501.03997168311037
    Total Energy =                       -501.0399716831099113
  Basis Set: 6-31G*
  Basis Set:
  Basis Set: 6-31G*
  Basis Set:
  @DF-RHF Final Energy:  -501.04004638970389
    Total Energy =                       -501.0400463897040026
  Basis Set: 6-31G*
  Basis Set:
  Basis Set: 6-31G*
  Basis Set:
  @DF-RHF Final Energy:  -501.04003981960716
    Total Energy =                       -501.0400398196081824
  Basis Set: 6-31G*
  Basis Set:
  @DF-RHF Final Energy:  -501.04005003207772
    Total Energy =                       -501.0400500320771471
  Basis Set: 6-31G*
  Basis Set:
  @DF-RHF Final Energy:  -501.04005293088426
    Total Energy =                       -501.0400529308834621
  Basis Set: 6-31G*
  Basis Set:
  Basis Set: 6-31G*
  Basis Set:
  @DF-RHF Final Energy:  -501.04003946984687
    Total Energy =                       -501.0400394698463060
  Basis Set: 6-31G*
  Basis Set:
  Basis Set: 6-31G*
  Basis Set:
  @DF-RHF Final Energy:  -501.04005438005890
    Total Energy =                       -501.0400543800589048
  Basis Set: 6-31G*
  Basis Set:
  Charge       = 0
  Multiplicity = 1
  Basis Set: 6-31G*
  Basis Set:

    Orbital Energies (a.u.)
    -----------------------

    Doubly Occupied:

       1A    -20.603393     2A    -20.545219     3A    -11.372030
       4A    -11.280678     5A    -11.234782     6A    -11.219129
       7A    -11.217518     8A    -11.216234     9A    -11.215626
      10A    -11.214302    11A    -11.209849    12A     -1.469083
      13A     -1.362531    14A     -1.097741    15A     -1.065652
      16A     -1.018578    17A     -0.976595    18A     -0.928271
      19A     -0.865265    20A     -0.801242    21A     -0.787012
      22A     -0.764014    23A     -0.700741    24A     -0.682373
      25A     -0.672063    26A     -0.643823    27A     -0.626866
      28A     -0.608942    29A     -0.595586    30A     -0.586789
      31A     -0.561378    32A     -0.553557    33A     -0.532757
      34A     -0.527667    35A     -0.519178    36A     -0.508653
      37A     -0.498295    38A     -0.474917    39A     -0.474339
      40A     -0.463190    41A     -0.456073    42A     -0.451759
      43A     -0.440862    44A     -0.435268

  @DF-RHF Final Energy:  -501.04005441864001

   => Energetics <=

    Nuclear Repulsion Energy =            614.5765378314738427
    One-Electron Energy =               -1900.2735440079541149
    Two-Electron Energy =                 784.6569517578407158
    DFT Exchange-Correlation Energy =       0.0000000000000000
    Empirical Dispersion Energy =           0.0000000000000000
    PCM Polarization Energy =               0.0000000000000000
    EFP Energy =                            0.0000000000000000
    Total Energy =                       -501.0400544186395564
    Molecular point group: c1
  Basis Set: 6-31G*
  Basis Set:

  -Total Gradient:
     Atom            X                  Y                   Z
    ------   -----------------  -----------------  -----------------
       1        0.000010086230     0.000032081710     0.000030556103
       2       -0.000026765348    -0.000046936838    -0.000100766773
       3        0.000009591218     0.000013979631     0.000035455566
       4        0.000007216059     0.000003009791     0.000032393998
       5       -0.000002621406    -0.000007091924     0.000001916861
       6        0.000002837246    -0.000001374448    -0.000005102763
       7       -0.000007989975    -0.000004110853     0.000007698283
       8       -0.000001707220    -0.000000541050     0.000001343174
       9       -0.000004263492    -0.000002607262    -0.000002412239
      10       -0.000000021917     0.000009632880     0.000002082024
      11       -0.000445207885     0.001441715081    -0.001996879820
      12        0.000008919528     0.000008517588    -0.000001368204
      13       -0.000003286637     0.000000068420     0.000000481860
      14        0.000940906079    -0.001871769789     0.002027098312
      15       -0.000005765636    -0.000002945396    -0.000006905706
      16        0.000014094529    -0.000003515118    -0.000001390003
      17       -0.001777654773    -0.000254696830     0.003081302678
      18       -0.000008305615    -0.000005377885    -0.000003822790
      19       -0.000008780080    -0.000003175768     0.000002750507
      20        0.000008803940     0.000004484730     0.000017574104
      21        0.001285026500     0.000682421126    -0.003116719168
      22        0.000004372877     0.000011013649    -0.000009900593
      23        0.000007576760     0.000004022146    -0.000009317103
      24       -0.000009293414    -0.000006156419     0.000003243720
      25        0.000001627289    -0.000001255432     0.000007214091
      26       -0.000001856519     0.000000902811     0.000002371429
      27       -0.000002578333     0.000000783255    -0.000003245285
      28        0.000000719613    -0.000004681193     0.000002386552
      29        0.000004320387     0.000003603390     0.000001961186

  **** Optimization is complete! (in 9 steps) ****
    Final optimized geometry and variables:
    Molecular point group: c1

    Geometry (in Angstrom), charge = 0, multiplicity = 1:

    O            3.112762937910     1.100215707293    -0.630205790169
    C            2.585143358343     0.180287274654    -0.093153320340
    C            1.128452453975     0.105399418152     0.295718455267
    O            3.229148219012    -0.930317012058     0.243666978765
    C            0.341211237345     1.357902980403    -0.083242799566
    H            0.720743652780    -0.786939162278    -0.167667133871
    H            1.088901225617    -0.072168957495     1.367454195607
    C           -1.113642693717     1.341202567598     0.398025993920
    H            0.370670833518     1.487574453486    -1.160945650052
    H            0.844229080678     2.222565169618     0.335981658624
    C           -1.998635064522     0.278482332171    -0.258734998669
    H           -1.544307360281     2.320709311687     0.202669505969
    H           -1.136605846603     1.212408209641     1.479163366375
    C           -3.468429312457     0.388189561624     0.157386588699
    H           -1.930644818371     0.373098203590    -1.341034309570
    H           -1.631286055010    -0.716403382072    -0.015571039983
    C           -4.361861910695    -0.712417817161    -0.446618776713
    H           -3.835710830606     1.364443340017    -0.149927968758
    H           -3.544395835446     0.368544523677     1.242642827993
    C           -4.588090252469    -1.900882422546     0.487348348559
    H           -5.316816699036    -0.290560022645    -0.746988708547
    H           -3.908707314945    -1.069194620245    -1.369277724233
    H           -5.179362861747    -2.673808245009     0.005922033829
    H           -5.112018890598    -1.595194352799     1.388399812040
    H           -3.645499669384    -2.348391813269     0.790681200457
    C            4.609958998615    -0.990813751621    -0.063914607706
    H            4.766393258121    -0.899885498512    -1.129177205043
    H            4.947536923224    -1.955160137382     0.282616037564
    H            5.147162857484    -0.201842649930     0.442531021225

  Mulliken Charges: (a.u.)
   Center  Symbol    Alpha    Beta     Spin     Total
       1     O     4.28596  4.28596  0.00000 -0.57191
       2     C     2.60483  2.60483  0.00000  0.79033
       3     C     3.20971  3.20971  0.00000 -0.41943
       4     O     4.30746  4.30746  0.00000 -0.61493
       5     C     3.15370  3.15370  0.00000 -0.30741
       6     H     0.39888  0.39888  0.00000  0.20224
       7     H     0.40122  0.40122  0.00000  0.19757
       8     C     3.15710  3.15710  0.00000 -0.31421
       9     H     0.41311  0.41311  0.00000  0.17379
      10     H     0.40874  0.40874  0.00000  0.18253
      11     C     3.15630  3.15630  0.00000 -0.31261
      12     H     0.41830  0.41830  0.00000  0.16340
      13     H     0.42370  0.42370  0.00000  0.15259
      14     C     3.15399  3.15399  0.00000 -0.30798
      15     H     0.42198  0.42198  0.00000  0.15604
      16     H     0.42351  0.42351  0.00000  0.15298
      17     C     3.15539  3.15539  0.00000 -0.31078
      18     H     0.42088  0.42088  0.00000  0.15824
      19     H     0.42199  0.42199  0.00000  0.15602
      20     C     3.23947  3.23947  0.00000 -0.47894
      21     H     0.41966  0.41966  0.00000  0.16068
      22     H     0.42182  0.42182  0.00000  0.15637
      23     H     0.41966  0.41966  0.00000  0.16068
      24     H     0.42120  0.42120  0.00000  0.15760
      25     H     0.42231  0.42231  0.00000  0.15537
      26     C     3.09241  3.09241  0.00000 -0.18482
      27     H     0.40909  0.40909  0.00000  0.18182
      28     H     0.40851  0.40851  0.00000  0.18299
      29     H     0.40912  0.40912  0.00000  0.18177

   Total alpha = 44.00000, Total beta = 44.00000, Total charge = -0.00000
