  ==> Input File <==

--------------------------------------------------------------------------
set {
	reference rhf
	basis 6-31G*
}

set_num_threads( 4 )
memory 2 gb

molecule MOL {
0 1

H	 2.497067	 0.748776	 -0.005704
O	 2.064459	 -0.086912	 -0.111827
C	 0.745630	 0.005118	 0.354752
H	 0.739005	 0.037656	 1.444976
C	 -0.064159	 -1.194875	 -0.122754
C	 -0.046302	 1.193543	 -0.190431
H	 0.197384	 -1.376065	 -1.160690
H	 0.162855	 -2.097978	 0.431858
C	 -1.535782	 -0.752177	 0.006642
H	 0.154512	 1.271315	 -1.255561
H	 0.226209	 2.140461	 0.267302
C	 -1.509193	 0.801505	 0.065617
H	 -2.127797	 -1.112194	 -0.826847
H	 -1.986849	 -1.158408	 0.905561
H	 -2.183670	 1.254107	 -0.651985
H	 -1.821727	 1.144320	 1.047089

	symmetry c1
}
set optking {
	frozen_dihedral = ("
		1 2 3 6
	")
}

ee = optimize('scf')
oeprop('DIPOLE', 'QUADRUPOLE', 'MULLIKEN_CHARGES')
f=open( 'psi4out.xyz', 'w' )
f.write( "16  " )
f.write( str(ee) + "\n" )
f.write( MOL.save_string_xyz() )
f.close()
--------------------------------------------------------------------------

    Molecular point group: c1
  Charge       = 0
  Multiplicity = 1
  Basis Set: 6-31G*
  Basis Set:
  @DF-RHF Final Energy:  -270.01410653239054
    Total Energy =                       -270.0141065323906560
    Molecular point group: c1
  Basis Set: 6-31G*
  Basis Set:
  Basis Set: 6-31G*
  Basis Set:
  @DF-RHF Final Energy:  -270.01412366448812
    Total Energy =                       -270.0141236644881246
  Basis Set: 6-31G*
  Basis Set:
  Basis Set: 6-31G*
  Basis Set:
  @DF-RHF Final Energy:  -270.01412735505994
    Total Energy =                       -270.0141273550599408
  Basis Set: 6-31G*
  Basis Set:
  Charge       = 0
  Multiplicity = 1
  Basis Set: 6-31G*
  Basis Set:

    Orbital Energies (a.u.)
    -----------------------

    Doubly Occupied:

       1A    -20.551667     2A    -11.268147     3A    -11.218318
       4A    -11.215757     5A    -11.214466     6A    -11.208403
       7A     -1.360782     8A     -1.114041     9A     -0.967026
      10A     -0.948244    11A     -0.791508    12A     -0.776845
      13A     -0.697032    14A     -0.659245    15A     -0.615627
      16A     -0.592082    17A     -0.570123    18A     -0.524299
      19A     -0.501816    20A     -0.483213    21A     -0.471420
      22A     -0.457483    23A     -0.445651    24A     -0.421763

  @DF-RHF Final Energy:  -270.01412791787061

   => Energetics <=

    Nuclear Repulsion Energy =            255.2052652903207957
    One-Electron Energy =                -872.2888670545178229
    Two-Electron Energy =                 347.0694738463264457
    DFT Exchange-Correlation Energy =       0.0000000000000000
    Empirical Dispersion Energy =           0.0000000000000000
    PCM Polarization Energy =               0.0000000000000000
    EFP Energy =                            0.0000000000000000
    Total Energy =                       -270.0141279178706100
    Molecular point group: c1
  Basis Set: 6-31G*
  Basis Set:

  -Total Gradient:
     Atom            X                  Y                   Z
    ------   -----------------  -----------------  -----------------
       1       -0.000458184331     0.000422414523    -0.001375290786
       2        0.000721617197    -0.000289118641     0.002029975351
       3       -0.000556211609    -0.000684447218    -0.001477561924
       4       -0.000022069541     0.000013959573     0.000000081848
       5        0.000045109611    -0.000009898112     0.000020384231
       6        0.000295430254     0.000534876071     0.000830295005
       7       -0.000008386650    -0.000008594059     0.000011571755
       8       -0.000005278909     0.000003434431     0.000005160683
       9       -0.000019210432     0.000019229842     0.000067334566
      10       -0.000013477951     0.000014630319    -0.000020908184
      11        0.000004918677     0.000004755291     0.000005026052
      12        0.000008638520    -0.000019417451    -0.000077134689
      13        0.000013497908     0.000010467813    -0.000023774470
      14       -0.000015636572    -0.000006032124    -0.000026257233
      15       -0.000019922073    -0.000005597719     0.000017685691
      16        0.000029165900    -0.000000662539     0.000013412104

  **** Optimization is complete! (in 4 steps) ****
    Final optimized geometry and variables:
    Molecular point group: c1

    Geometry (in Angstrom), charge = 0, multiplicity = 1:

    H            2.500363928443     0.748454733475     0.014808524839
    O            2.068853065962    -0.086463229473    -0.101297209416
    C            0.745005904407     0.002465789000     0.351901272976
    H            0.732088628567     0.036995807785     1.442169305387
    C           -0.064533196673    -1.196912130106    -0.125985193828
    C           -0.045534174119     1.192332197572    -0.190699198747
    H            0.190782253435    -1.374462133900    -1.166009268300
    H            0.164819055069    -2.101841329179     0.424697998550
    C           -1.535274854416    -0.753807634415     0.014240083453
    H            0.151445123296     1.274408105436    -1.256798885794
    H            0.227870880184     2.137420587776     0.270649540679
    C           -1.508766590412     0.800214621637     0.066367259504
    H           -2.134599169273    -1.117725268142    -0.812346741681
    H           -1.978353190318    -1.155810778983     0.918957120396
    H           -2.182610139846     1.249811166980    -0.653632336720
    H           -1.821231210851     1.147596003598     1.046065780715

  Mulliken Charges: (a.u.)
   Center  Symbol    Alpha    Beta     Spin     Total
       1     H     0.28171  0.28171  0.00000  0.43659
       2     O     4.37771  4.37771  0.00000 -0.75541
       3     C     2.90316  2.90316  0.00000  0.19368
       4     H     0.43067  0.43067  0.00000  0.13867
       5     C     3.16695  3.16695  0.00000 -0.33390
       6     C     3.18073  3.18073  0.00000 -0.36146
       7     H     0.41177  0.41177  0.00000  0.17647
       8     H     0.41215  0.41215  0.00000  0.17570
       9     C     3.16926  3.16926  0.00000 -0.33852
      10     H     0.41509  0.41509  0.00000  0.16982
      11     H     0.42023  0.42023  0.00000  0.15954
      12     C     3.16834  3.16834  0.00000 -0.33669
      13     H     0.41448  0.41448  0.00000  0.17103
      14     H     0.41658  0.41658  0.00000  0.16685
      15     H     0.41378  0.41378  0.00000  0.17243
      16     H     0.41739  0.41739  0.00000  0.16521

   Total alpha = 24.00000, Total beta = 24.00000, Total charge =  0.00000
