  ==> Input File <==

--------------------------------------------------------------------------
set {
	reference rhf
	basis 6-31G*
}

set_num_threads( 4 )
memory 2 gb

molecule MOL {
0 1

H	 1.216160	 -0.987353	 -0.618767
O	 1.029738	 -0.327089	 -1.272336
C	 0.524085	 0.811613	 -0.638587
C	 -0.793441	 0.596080	 0.058728
H	 0.408079	 1.561955	 -1.412365
H	 1.244855	 1.209633	 0.074922
C	 -1.530462	 -0.493172	 -0.025500
H	 -1.128864	 1.424162	 0.663918
H	 -1.092586	 -1.461565	 -0.186463
H	 -2.602122	 -0.450675	 0.050101

	symmetry c1
}
set optking {
	frozen_dihedral = ("
		3 4 7 9
	")
}

ee = optimize('scf')
oeprop('DIPOLE', 'QUADRUPOLE', 'MULLIKEN_CHARGES')
f=open( 'psi4out.xyz', 'w' )
f.write( "10  " )
f.write( str(ee) + "\n" )
f.write( MOL.save_string_xyz() )
f.close()
--------------------------------------------------------------------------

    Molecular point group: c1
  Charge       = 0
  Multiplicity = 1
  Basis Set: 6-31G*
  Basis Set:
  @DF-RHF Final Energy:  -191.89489868616644
    Total Energy =                       -191.8948986861664991
    Molecular point group: c1
  Basis Set: 6-31G*
  Basis Set:
  Basis Set: 6-31G*
  Basis Set:
  @DF-RHF Final Energy:  -191.90635941903531
    Total Energy =                       -191.9063594190353683
  Basis Set: 6-31G*
  Basis Set:
  Basis Set: 6-31G*
  Basis Set:
  @DF-RHF Final Energy:  -191.90914575386080
    Total Energy =                       -191.9091457538608552
  Basis Set: 6-31G*
  Basis Set:
  Basis Set: 6-31G*
  Basis Set:
  @DF-RHF Final Energy:  -191.90926270503434
    Total Energy =                       -191.9092627050343367
  Basis Set: 6-31G*
  Basis Set:
  Basis Set: 6-31G*
  Basis Set:
  @DF-RHF Final Energy:  -191.90929979806481
    Total Energy =                       -191.9092997980648363
  Basis Set: 6-31G*
  Basis Set:
  Charge       = 0
  Multiplicity = 1
  Basis Set: 6-31G*
  Basis Set:

    Orbital Energies (a.u.)
    -----------------------

    Doubly Occupied:

       1A    -20.560199     2A    -11.279100     3A    -11.231202
       4A    -11.220436     5A     -1.368317     6A     -1.057704
       7A     -0.928390     8A     -0.768476     9A     -0.688283
      10A     -0.657890    11A     -0.613268    12A     -0.570984
      13A     -0.540653    14A     -0.488852    15A     -0.446713
      16A     -0.362003

  @DF-RHF Final Energy:  -191.90930039211443

   => Energetics <=

    Nuclear Repulsion Energy =            118.9866326766267264
    One-Electron Energy =                -496.2269320369215393
    Two-Electron Energy =                 185.3309989681804666
    DFT Exchange-Correlation Energy =       0.0000000000000000
    Empirical Dispersion Energy =           0.0000000000000000
    PCM Polarization Energy =               0.0000000000000000
    EFP Energy =                            0.0000000000000000
    Total Energy =                       -191.9093003921143179
    Molecular point group: c1
  Basis Set: 6-31G*
  Basis Set:

  -Total Gradient:
     Atom            X                  Y                   Z
    ------   -----------------  -----------------  -----------------
       1       -0.000003542413     0.000021060073    -0.000004994122
       2        0.000063210263    -0.000062656231    -0.000103972576
       3       -0.006003670267     0.006833908287    -0.008779463149
       4        0.011076179339    -0.013368752054     0.021761979209
       5        0.000021813343    -0.000073137913     0.000047491632
       6        0.000121587445     0.000056379086    -0.000022689681
       7       -0.006860610590     0.011387598526    -0.029151519021
       8       -0.000131789636     0.000036006470     0.000006181089
       9        0.001846606770    -0.004752040767     0.016240957968
      10       -0.000129784256    -0.000078365479     0.000006028655

  **** Optimization is complete! (in 6 steps) ****
    Final optimized geometry and variables:
    Molecular point group: c1

    Geometry (in Angstrom), charge = 0, multiplicity = 1:

    H            1.455701392161    -1.068145541880    -0.046600661043
    O            1.199037046307    -0.456370077485    -0.722718546073
    C            0.648306718823     0.682745249378    -0.126136943011
    C           -0.657588314844     0.441931704181     0.586341217106
    H            0.461970905861     1.386252143724    -0.928354659766
    H            1.367668758572     1.153732854909     0.543302447212
    C           -1.475519299136    -0.573948370860     0.376171400284
    H           -1.042580845856     1.317785878830     1.088301898333
    H           -1.128387618303    -1.539620601525     0.053731942174
    H           -2.464690749039    -0.564511310176     0.801104953153

  Mulliken Charges: (a.u.)
   Center  Symbol    Alpha    Beta     Spin     Total
       1     H     0.28092  0.28092  0.00000  0.43817
       2     O     4.36657  4.36657  0.00000 -0.73313
       3     C     2.99965  2.99965  0.00000  0.00070
       4     C     3.09864  3.09864  0.00000 -0.19728
       5     H     0.40582  0.40582  0.00000  0.18837
       6     H     0.42697  0.42697  0.00000  0.14607
       7     C     3.18378  3.18378  0.00000 -0.36757
       8     H     0.41347  0.41347  0.00000  0.17306
       9     H     0.41043  0.41043  0.00000  0.17914
      10     H     0.41376  0.41376  0.00000  0.17247

   Total alpha = 16.00000, Total beta = 16.00000, Total charge =  0.00000
