                              Psi4 1.0.54 Driver

  ==> Input File <==

--------------------------------------------------------------------------
set {
	reference rhf
	basis cc-pvtz
}

set_num_threads( 4 )
memory 2 gb

molecule MOL {
0 1

O	 -2.612258	 0.860515	 0.207189
C	 -2.135933	 -0.222646	 0.100851
C	 -0.881910	 -0.448129	 -0.720509
C	 -2.738839	 -1.423910	 0.789500
C	 0.376695	 -0.140025	 0.100361
H	 -0.927863	 0.212695	 -1.576845
H	 -0.846501	 -1.471003	 -1.080147
C	 1.630207	 -0.772146	 -0.501001
H	 0.486632	 0.935267	 0.162725
H	 0.248225	 -0.501310	 1.117842
C	 2.907848	 -0.545876	 0.309149
H	 1.772784	 -0.391628	 -1.509394
H	 1.468529	 -1.842059	 -0.599744
C	 3.373802	 0.906639	 0.372125
H	 3.699140	 -1.146831	 -0.127906
H	 2.764321	 -0.923458	 1.318191
H	 3.519798	 1.311927	 -0.623875
H	 4.316899	 0.983758	 0.900700
H	 2.661122	 1.540651	 0.885346
H	 -3.141778	 -2.099077	 0.041310
H	 -3.528144	 -1.113078	 1.456546
H	 -1.980839	 -1.970698	 1.339088

	symmetry c1
}
set optking {
	frozen_dihedral = ("
		6 3 5 8
	")
}

ee,wfn = optimize('scf', return_wfn=True)
oeprop( wfn, 'DIPOLE', 'QUADRUPOLE', 'MULLIKEN_CHARGES')
f=open( 'psi4out.xyz', 'w' )
f.write( "22  " )
f.write( str(ee) + "\n" )
f.write( MOL.save_string_xyz() )
f.close()
--------------------------------------------------------------------------

    Molecular point group: c1
  Charge       = 0
  Multiplicity = 1
  Basis Set: CC-PVTZ
  Basis Set:
  @DF-RHF Final Energy:  -348.22214026188402
    Total Energy =                       -348.2221402618841921
    Molecular point group: c1
  Basis Set: CC-PVTZ
  Basis Set:
  Basis Set: CC-PVTZ
  Basis Set:
  @DF-RHF Final Energy:  -348.22224814363869
    Total Energy =                       -348.2222481436385806
  Basis Set: CC-PVTZ
  Basis Set:
  Basis Set: CC-PVTZ
  Basis Set:
  @DF-RHF Final Energy:  -348.22146434787419
    Total Energy =                       -348.2214643478744733
  Basis Set: CC-PVTZ
  Basis Set:
  Basis Set: CC-PVTZ
  Basis Set:
  @DF-RHF Final Energy:  -348.22230306054786
    Total Energy =                       -348.2223030605478016
  Basis Set: CC-PVTZ
  Basis Set:
  Basis Set: CC-PVTZ
  Basis Set:
  @DF-RHF Final Energy:  -348.22230447337307
    Total Energy =                       -348.2223044733729012
  Basis Set: CC-PVTZ
  Basis Set:
  Basis Set: CC-PVTZ
  Basis Set:
  @DF-RHF Final Energy:  -348.22231283937754
    Total Energy =                       -348.2223128393773663
  Basis Set: CC-PVTZ
  Basis Set:
  Basis Set: CC-PVTZ
  Basis Set:
  @DF-RHF Final Energy:  -348.22231532081577
    Total Energy =                       -348.2223153208158237
  Basis Set: CC-PVTZ
  Basis Set:
  Charge       = 0
  Multiplicity = 1
  Basis Set: CC-PVTZ
  Basis Set:

    Orbital Energies (a.u.)
    -----------------------

    Doubly Occupied:

       1A    -20.536361     2A    -11.318937     3A    -11.228519
       4A    -11.227511     5A    -11.226797     6A    -11.221494
       7A    -11.219640     8A    -11.210181     9A     -1.396551
      10A     -1.097621    11A     -1.046042    12A     -0.999839
      13A     -0.939846    14A     -0.859087    15A     -0.788220
      16A     -0.733843    17A     -0.663323    18A     -0.647938
      19A     -0.627798    20A     -0.623565    21A     -0.597900
      22A     -0.579927    23A     -0.568521    24A     -0.543224
      25A     -0.537155    26A     -0.517511    27A     -0.499138
      28A     -0.494258    29A     -0.472205    30A     -0.466059
      31A     -0.460891    32A     -0.397919

  @DF-RHF Final Energy:  -348.22231557773586

   => Energetics <=

    Nuclear Repulsion Energy =            373.6639732156972400
    One-Electron Energy =               -1212.2769353270416559
    Two-Electron Energy =                 490.3906465336085603
    DFT Exchange-Correlation Energy =       0.0000000000000000
    Empirical Dispersion Energy =           0.0000000000000000
    PCM Polarization Energy =               0.0000000000000000
    EFP Energy =                            0.0000000000000000
    Total Energy =                       -348.2223155777357988
    Molecular point group: c1
  Basis Set: CC-PVTZ
  Basis Set:

  -Total Gradient:
     Atom            X                  Y                   Z
    ------   -----------------  -----------------  -----------------
       1        0.000037631740    -0.000075765306     0.000014776081
       2       -0.000030729711     0.000031897405     0.000007819798
       3        0.002017367783    -0.003552561049    -0.001921771255
       4       -0.000050894904     0.000024249001    -0.000043373415
       5        0.000140547007     0.003440334757    -0.001279194813
       6       -0.001751930463     0.002198793906     0.001935213482
       7       -0.000006827994     0.000000057720    -0.000003343272
       8       -0.000398209650    -0.002087301389     0.001263628157
       9        0.000003570652     0.000007227691     0.000012888119
      10       -0.000000962205    -0.000006610906    -0.000006508775
      11        0.000012851551    -0.000008411476     0.000008238230
      12       -0.000002221008     0.000003244259     0.000002360958
      13        0.000006526324    -0.000004993830    -0.000003164803
      14       -0.000011363763     0.000008381060     0.000002804240
      15       -0.000020394455     0.000004454353     0.000007722430
      16        0.000006475238     0.000007116949    -0.000018875856
      17       -0.000000057735    -0.000001020559     0.000008736000
      18       -0.000006866552    -0.000004290647    -0.000000211044
      19        0.000011748474    -0.000007694487    -0.000012085797
      20        0.000024539636     0.000009904726     0.000022590439
      21        0.000007484481    -0.000004139278     0.000001581878
      22        0.000011715558     0.000017127098     0.000000169218

  **** Optimization is complete! (in 8 steps) ****
    Final optimized geometry and variables:
    Molecular point group: c1

    Geometry (in Angstrom), charge = 0, multiplicity = 1:

    O           -2.599153578191     1.093262545223     0.117619013479
    C           -2.127736548019     0.007942150972     0.011548378969
    C           -0.879649300743    -0.227259656274    -0.816265503624
    C           -2.732631549031    -1.188798314459     0.706882196373
    C            0.380174389509     0.039341268116     0.023666413708
    H           -0.922500854805     0.467428595807    -1.644832489918
    H           -0.869408077704    -1.241096668097    -1.199835922216
    C            1.637348115935    -0.570603351409    -0.593067442804
    H            0.484135090984     1.108269340207     0.153757771114
    H            0.250989627539    -0.379111796924     1.019190142069
    C            2.917523024218    -0.337566614603     0.210870979440
    H            1.771377471255    -0.182347552036    -1.600261403250
    H            1.483720051690    -1.640711035353    -0.698466448760
    C            3.381968203320     1.115855581647     0.262479513735
    H            3.708136138829    -0.940251135115    -0.224920040318
    H            2.777919045222    -0.708641496074     1.222871693028
    H            3.529775322808     1.512527052826    -0.736721114587
    H            4.323926995934     1.198406819520     0.792178844965
    H            2.667930574856     1.753643042005     0.768997141719
    H           -3.165337739877    -1.849120023894    -0.037948314971
    H           -3.501327450657    -0.870394669889     1.394119749885
    H           -1.972736632527    -1.754583379161     1.233732299840

  Mulliken Charges: (a.u.)
   Center  Symbol    Alpha    Beta     Spin     Total
       1     O     4.17775  4.17775  0.00000 -0.35550
       2     C     2.85872  2.85872  0.00000  0.28257
       3     C     3.09835  3.09835  0.00000 -0.19670
       4     C     3.15547  3.15547  0.00000 -0.31093
       5     C     3.10308  3.10308  0.00000 -0.20615
       6     H     0.43844  0.43844  0.00000  0.12312
       7     H     0.44851  0.44851  0.00000  0.10298
       8     C     3.09781  3.09781  0.00000 -0.19562
       9     H     0.43802  0.43802  0.00000  0.12396
      10     H     0.45179  0.45179  0.00000  0.09642
      11     C     3.09089  3.09089  0.00000 -0.18179
      12     H     0.45133  0.45133  0.00000  0.09734
      13     H     0.44882  0.44882  0.00000  0.10236
      14     C     3.15149  3.15149  0.00000 -0.30297
      15     H     0.44758  0.44758  0.00000  0.10484
      16     H     0.45446  0.45446  0.00000  0.09108
      17     H     0.45417  0.45417  0.00000  0.09166
      18     H     0.44603  0.44603  0.00000  0.10794
      19     H     0.45237  0.45237  0.00000  0.09526
      20     H     0.44808  0.44808  0.00000  0.10384
      21     H     0.43600  0.43600  0.00000  0.12800
      22     H     0.45085  0.45085  0.00000  0.09829

   Total alpha = 32.00000, Total beta = 32.00000, Total charge = -0.00000

*** Psi4 exiting successfully. Buy a developer a beer!
