                              Psi4 1.0.54 Driver

  ==> Input File <==

--------------------------------------------------------------------------
set {
	reference rhf
	basis cc-pvtz
}

set_num_threads( 4 )
memory 2 gb

molecule MOL {
0 1

H	 2.614283	 2.028610	 0.296620
O	 3.358864	 1.662087	 -0.142800
C	 3.565468	 0.338079	 0.273842
C	 2.533667	 -0.637565	 -0.272227
H	 4.548038	 0.064914	 -0.086598
H	 3.593945	 0.282242	 1.360360
C	 1.114816	 -0.402372	 0.240993
H	 2.544552	 -0.580764	 -1.356576
H	 2.850574	 -1.642962	 -0.005497
C	 0.113298	 -1.420414	 -0.302504
H	 0.796373	 0.598427	 -0.031033
H	 1.113377	 -0.446476	 1.328807
C	 0.689817	 -2.423109	 -1.303744
H	 -0.333720	 -1.960151	 0.528813
H	 -0.698420	 -0.882433	 -0.784333
C	 1.702815	 -3.407744	 -0.722304
H	 -0.133267	 -2.987697	 -1.733047
H	 1.146990	 -1.882561	 -2.129550
C	 2.173180	 -4.448627	 -1.735087
H	 1.259150	 -3.915093	 0.131644
H	 2.568176	 -2.872995	 -0.342572
C	 3.187490	 -5.431005	 -1.158892
H	 1.313980	 -4.997545	 -2.110641
H	 2.609053	 -3.943106	 -2.592715
H	 2.770506	 -5.976237	 -0.318603
H	 3.497926	 -6.156598	 -1.902028
H	 4.076106	 -4.916257	 -0.808537

	symmetry c1
}
set optking {
	frozen_dihedral = ("
		14 10 7 4
	")
}

ee,wfn = optimize('scf', return_wfn=True)
oeprop( wfn, 'DIPOLE', 'QUADRUPOLE', 'MULLIKEN_CHARGES')
f=open( 'psi4out.xyz', 'w' )
f.write( "27  " )
f.write( str(ee) + "\n" )
f.write( MOL.save_string_xyz() )
f.close()
--------------------------------------------------------------------------

    Molecular point group: c1
  Charge       = 0
  Multiplicity = 1
  Basis Set: CC-PVTZ
  Basis Set:
  @DF-RHF Final Energy:  -388.39066078017544
    Total Energy =                       -388.3906607801759492
    Molecular point group: c1
  Basis Set: CC-PVTZ
  Basis Set:
  Basis Set: CC-PVTZ
  Basis Set:
  @DF-RHF Final Energy:  -388.40954396286509
    Total Energy =                       -388.4095439628652002
  Basis Set: CC-PVTZ
  Basis Set:
  Basis Set: CC-PVTZ
  Basis Set:
  @DF-RHF Final Energy:  -388.41358624730657
    Total Energy =                       -388.4135862473069665
  Basis Set: CC-PVTZ
  Basis Set:
  Basis Set: CC-PVTZ
  Basis Set:
  @DF-RHF Final Energy:  -388.41453049797900
    Total Energy =                       -388.4145304979788307
  Basis Set: CC-PVTZ
  Basis Set:
  @DF-RHF Final Energy:  -388.41517115569712
    Total Energy =                       -388.4151711556969531
  @DF-RHF Final Energy:  -388.41527677893481
    Total Energy =                       -388.4152767789345262
  @DF-RHF Final Energy:  -388.41540546697598
    Total Energy =                       -388.4154054669752441
  Basis Set: CC-PVTZ
  Basis Set:
  @DF-RHF Final Energy:  -388.41541295875464
    Total Energy =                       -388.4154129587550415
  Basis Set: CC-PVTZ
  Basis Set:
  Basis Set: CC-PVTZ
  Basis Set:
  @DF-RHF Final Energy:  -388.41541615164573
    Total Energy =                       -388.4154161516455588
  Basis Set: CC-PVTZ
  Basis Set:
  Basis Set: CC-PVTZ
  Basis Set:
  @DF-RHF Final Energy:  -388.41541737368294
    Total Energy =                       -388.4154173736831126
  Basis Set: CC-PVTZ
  Basis Set:
  Charge       = 0
  Multiplicity = 1
  Basis Set: CC-PVTZ
  Basis Set:

    Orbital Energies (a.u.)
    -----------------------

    Doubly Occupied:

       1A    -20.545389     2A    -11.265168     3A    -11.218166
       4A    -11.215369     5A    -11.213095     6A    -11.212987
       7A    -11.212150     8A    -11.210971     9A    -11.206917
      10A     -1.363361    11A     -1.092475    12A     -1.059366
      13A     -1.010173    14A     -0.951400    15A     -0.887697
      16A     -0.834270    17A     -0.796418    18A     -0.766280
      19A     -0.698224    20A     -0.652800    21A     -0.638005
      22A     -0.615091    23A     -0.602978    24A     -0.586515
      25A     -0.569571    26A     -0.554991    27A     -0.550289
      28A     -0.522106    29A     -0.516298    30A     -0.496153
      31A     -0.483225    32A     -0.476051    33A     -0.467624
      34A     -0.455465    35A     -0.447403    36A     -0.435676
      37A     -0.427447

  @DF-RHF Final Energy:  -388.41541753782735

   => Energetics <=

    Nuclear Repulsion Energy =            467.8007979625256212
    One-Electron Energy =               -1453.9173023736871073
    Two-Electron Energy =                 597.7010868733335656
    DFT Exchange-Correlation Energy =       0.0000000000000000
    Empirical Dispersion Energy =           0.0000000000000000
    PCM Polarization Energy =               0.0000000000000000
    EFP Energy =                            0.0000000000000000
    Total Energy =                       -388.4154175378279206
    Molecular point group: c1
  Basis Set: CC-PVTZ
  Basis Set:

  -Total Gradient:
     Atom            X                  Y                   Z
    ------   -----------------  -----------------  -----------------
       1       -0.000014686524     0.000011331081    -0.000003749503
       2       -0.000003095062     0.000000211729     0.000017009517
       3        0.000013917555    -0.000028996398    -0.000022229899
       4        0.000265237734    -0.000404496731     0.000650344275
       5       -0.000001023928    -0.000008238607     0.000001933131
       6       -0.000000663711     0.000006176703     0.000006103742
       7       -0.000177068344     0.000466161366    -0.000955702654
       8        0.000001302904    -0.000006321067    -0.000007960884
       9        0.000001187969     0.000001696240    -0.000002733386
      10       -0.000877224999     0.000649932434     0.000422072979
      11       -0.000008577922     0.000000187857     0.000002584213
      12       -0.000007165576     0.000006581668    -0.000004006356
      13       -0.000008523299    -0.000007266130    -0.000024439400
      14        0.000804564372    -0.000688854632    -0.000091590741
      15        0.000000344365    -0.000011249072    -0.000006217793
      16        0.000007922141     0.000020562699     0.000017725258
      17       -0.000006308165     0.000014547349     0.000003649419
      18        0.000000581413    -0.000009457578     0.000006919299
      19        0.000004326285    -0.000013322764    -0.000003856826
      20        0.000013021235     0.000003025648    -0.000004972801
      21        0.000001086995     0.000007669472     0.000000890322
      22       -0.000006270245    -0.000004978490    -0.000005171529
      23        0.000002066968     0.000001008184     0.000000232524
      24       -0.000003639679     0.000003259524     0.000002395619
      25        0.000000491889    -0.000004414884     0.000001512475
      26        0.000004443246    -0.000005206624     0.000001569601
      27       -0.000006247614     0.000000451034    -0.000002310603

  **** Optimization is complete! (in 11 steps) ****
    Final optimized geometry and variables:
    Molecular point group: c1

    Geometry (in Angstrom), charge = 0, multiplicity = 1:

    H            0.366161462252     4.062808514325     0.595113478366
    O            1.136636317336     3.787350196516     0.134783431347
    C            1.562194751641     2.535032096822     0.602996999109
    C            0.683909791193     1.379524702164     0.141792372370
    H            2.563504371727     2.400547005484     0.216498533632
    H            1.634021437908     2.540259773061     1.688854220636
    C           -0.730990887273     1.437007616768     0.719864138022
    H            0.653789832080     1.393587687944    -0.941713284173
    H            1.178138075964     0.460553303076     0.435664428975
    C           -1.729962251627     0.301173187626     0.354186058367
    H           -1.176878495148     2.377148363848     0.413893142006
    H           -0.647450368221     1.487674356525     1.801787583765
    C           -1.286525488417    -0.791597048072    -0.630520599373
    H           -2.044188039528    -0.192520572768     1.267904901183
    H           -2.621954498039     0.766423667657    -0.048084209284
    C           -0.505262572634    -1.943930131591     0.001183948619
    H           -2.180613648535    -1.209106795880    -1.084441589530
    H           -0.716576801908    -0.362712802894    -1.447196641452
    C           -0.063308038981    -2.996226462051    -1.012057888415
    H           -1.130143944854    -2.415933085156     0.755941283845
    H            0.367238382494    -1.570299770936     0.526923804656
    C            0.680949652759    -4.166247592961    -0.377148827791
    H           -0.934168389008    -3.369842533522    -1.543910891705
    H            0.571704754190    -2.529334439002    -1.760048078830
    H            0.058992113701    -4.677463564621     0.350203355792
    H            0.981320649827    -4.892770475759    -1.123439572146
    H            1.576385935859    -3.829387887467     0.134777592134

  Mulliken Charges: (a.u.)
   Center  Symbol    Alpha    Beta     Spin     Total
       1     H     0.39246  0.39246  0.00000  0.21509
       2     O     4.20581  4.20581  0.00000 -0.41161
       3     C     2.97748  2.97748  0.00000  0.04504
       4     C     3.09881  3.09881  0.00000 -0.19763
       5     H     0.44823  0.44823  0.00000  0.10355
       6     H     0.46919  0.46919  0.00000  0.06162
       7     C     3.10597  3.10597  0.00000 -0.21194
       8     H     0.44873  0.44873  0.00000  0.10254
       9     H     0.45282  0.45282  0.00000  0.09436
      10     C     3.10600  3.10600  0.00000 -0.21201
      11     H     0.45427  0.45427  0.00000  0.09145
      12     H     0.44976  0.44976  0.00000  0.10048
      13     C     3.10836  3.10836  0.00000 -0.21671
      14     H     0.45162  0.45162  0.00000  0.09675
      15     H     0.44345  0.44345  0.00000  0.11309
      16     C     3.08746  3.08746  0.00000 -0.17491
      17     H     0.44306  0.44306  0.00000  0.11387
      18     H     0.44822  0.44822  0.00000  0.10356
      19     C     3.08515  3.08515  0.00000 -0.17031
      20     H     0.45250  0.45250  0.00000  0.09500
      21     H     0.45390  0.45390  0.00000  0.09220
      22     C     3.14993  3.14993  0.00000 -0.29986
      23     H     0.45412  0.45412  0.00000  0.09176
      24     H     0.45392  0.45392  0.00000  0.09215
      25     H     0.45517  0.45517  0.00000  0.08966
      26     H     0.44809  0.44809  0.00000  0.10383
      27     H     0.45551  0.45551  0.00000  0.08898

   Total alpha = 37.00000, Total beta = 37.00000, Total charge = -0.00000

*** Psi4 exiting successfully. Buy a developer a beer!
