                              Psi4 1.0.54 Driver

  ==> Input File <==

--------------------------------------------------------------------------
set {
	reference rhf
	basis cc-pvtz
}

set_num_threads( 4 )
memory 2 gb

molecule MOL {
0 1

O	 -0.988175	 -1.402891	 0.050086
C	 -0.675048	 -0.248293	 -0.009686
C	 -1.742492	 0.826599	 -0.011538
N	 0.622280	 0.144970	 -0.099307
H	 -1.692153	 1.431066	 -0.908439
H	 -2.698310	 0.331559	 0.031353
H	 -1.642148	 1.483784	 0.843455
C	 1.159902	 0.490420	 -1.398374
C	 1.603552	 -0.069592	 0.937430
H	 1.829187	 1.336235	 -1.298991
H	 0.356951	 0.747376	 -2.065025
H	 1.718086	 -0.337661	 -1.827728
H	 2.319348	 0.742241	 0.923304
H	 1.152843	 -0.088854	 1.914868
H	 2.150787	 -0.998349	 0.792562

	symmetry c1
}
set optking {
	frozen_dihedral = ("
		8 4 2 3
	")
}

ee,wfn = optimize('scf', return_wfn=True)
oeprop( wfn, 'DIPOLE', 'QUADRUPOLE', 'MULLIKEN_CHARGES')
f=open( 'psi4out.xyz', 'w' )
f.write( "15  " )
f.write( str(ee) + "\n" )
f.write( MOL.save_string_xyz() )
f.close()
--------------------------------------------------------------------------

    Molecular point group: c1
  Charge       = 0
  Multiplicity = 1
  Basis Set: CC-PVTZ
  Basis Set:
  @DF-RHF Final Energy:  -286.10378213638791
    Total Energy =                       -286.1037821363880767
    Molecular point group: c1
  Basis Set: CC-PVTZ
  Basis Set:
  Basis Set: CC-PVTZ
  Basis Set:
  @DF-RHF Final Energy:  -286.11167004117090
    Total Energy =                       -286.1116700411713509
  Basis Set: CC-PVTZ
  Basis Set:
  Basis Set: CC-PVTZ
  Basis Set:
  @DF-RHF Final Energy:  -286.11696380385240
    Total Energy =                       -286.1169638038524567
  Basis Set: CC-PVTZ
  Basis Set:
  Basis Set: CC-PVTZ
  Basis Set:
  @DF-RHF Final Energy:  -286.11177541943584
    Total Energy =                       -286.1117754194358440
  Basis Set: CC-PVTZ
  Basis Set:
  @DF-RHF Final Energy:  -286.12027671334965
    Total Energy =                       -286.1202767133496536
  @DF-RHF Final Energy:  -286.12159646628140
    Total Energy =                       -286.1215964662816305
  @DF-RHF Final Energy:  -286.12244653800053
    Total Energy =                       -286.1224465380006450
  @DF-RHF Final Energy:  -286.12261020340361
    Total Energy =                       -286.1226102034036103
  Basis Set: CC-PVTZ
  Basis Set:
  @DF-RHF Final Energy:  -286.12264957567402
    Total Energy =                       -286.1226495756740178
  Basis Set: CC-PVTZ
  Basis Set:
  Basis Set: CC-PVTZ
  Basis Set:
  @DF-RHF Final Energy:  -286.12272390416535
    Total Energy =                       -286.1227239041656389
  Basis Set: CC-PVTZ
  Basis Set:
  Basis Set: CC-PVTZ
  Basis Set:
  @DF-RHF Final Energy:  -286.12273520904040
    Total Energy =                       -286.1227352090404565
  Basis Set: CC-PVTZ
  Basis Set:
  Charge       = 0
  Multiplicity = 1
  Basis Set: CC-PVTZ
  Basis Set:

    Orbital Energies (a.u.)
    -----------------------

    Doubly Occupied:

       1A    -20.532894     2A    -15.566786     3A    -11.341400
       4A    -11.259728     5A    -11.242365     6A    -11.227027
       7A     -1.408904     8A     -1.238503     9A     -1.013883
      10A     -0.965646    11A     -0.904331    12A     -0.737722
      13A     -0.682800    14A     -0.659952    15A     -0.647260
      16A     -0.604470    17A     -0.583178    18A     -0.569470
      19A     -0.557344    20A     -0.538814    21A     -0.523373
      22A     -0.498215    23A     -0.427483    24A     -0.384025

  @DF-RHF Final Energy:  -286.12273576850703

   => Energetics <=

    Nuclear Repulsion Energy =            253.1256214172763066
    One-Electron Energy =                -890.2655669151456550
    Two-Electron Energy =                 351.0172097293622642
    DFT Exchange-Correlation Energy =       0.0000000000000000
    Empirical Dispersion Energy =           0.0000000000000000
    PCM Polarization Energy =               0.0000000000000000
    EFP Energy =                            0.0000000000000000
    Total Energy =                       -286.1227357685070842
    Molecular point group: c1
  Basis Set: CC-PVTZ
  Basis Set:

  -Total Gradient:
     Atom            X                  Y                   Z
    ------   -----------------  -----------------  -----------------
       1       -0.000038271909    -0.000046649458     0.000023097911
       2        0.002451716324    -0.003517594440    -0.010270439962
       3       -0.001180001903     0.000414935377     0.006871688562
       4       -0.002802529166     0.010129142959     0.003894137517
       5       -0.000010639087     0.000009247454     0.000004783116
       6        0.000020961625     0.000010935479     0.000010735647
       7        0.000003080032     0.000008778716    -0.000000142215
       8        0.001578192421    -0.007000673725    -0.000497153367
       9       -0.000011060786    -0.000007816033    -0.000002576685
      10       -0.000003404581     0.000000584693    -0.000001426360
      11       -0.000012204863     0.000017165296    -0.000010048114
      12       -0.000004005559    -0.000004014691    -0.000003502206
      13        0.000006730266     0.000005198123     0.000000324538
      14       -0.000002682089    -0.000004682140    -0.000013686281
      15        0.000004119274    -0.000014557608    -0.000005792101

  **** Optimization is complete! (in 12 steps) ****
    Final optimized geometry and variables:
    Molecular point group: c1

    Geometry (in Angstrom), charge = 0, multiplicity = 1:

    O           -1.160795348620    -1.111811683102     0.137587729835
    C           -0.700262183401    -0.029022220414    -0.019095303111
    C           -1.582777305964     1.173659829120    -0.248068861794
    N            0.657484761906     0.258170900645     0.194100468870
    H           -1.089551915502     1.968056858898    -0.788447307313
    H           -2.491052319397     0.880291826607    -0.752046156144
    H           -1.834791776155     1.553732464890     0.735438142587
    C            1.397640943059     0.519768936933    -1.034084179850
    C            1.335826059226    -0.750933874000     0.994583995483
    H            2.373827334585     0.912751853292    -0.785938416763
    H            0.889341925438     1.254187143497    -1.643045269330
    H            1.528843743339    -0.384429723547    -1.624762397263
    H            2.318693581342    -0.377056738042     1.249651401719
    H            0.785684181159    -0.928178529884     1.905904189751
    H            1.443182987445    -1.697776454108     0.474128663773

  Mulliken Charges: (a.u.)
   Center  Symbol    Alpha    Beta     Spin     Total
       1     O     4.18568  4.18568  0.00000 -0.37136
       2     C     2.84088  2.84088  0.00000  0.31825
       3     C     3.13494  3.13494  0.00000 -0.26988
       4     N     3.60804  3.60804  0.00000 -0.21607
       5     H     0.45046  0.45046  0.00000  0.09908
       6     H     0.44074  0.44074  0.00000  0.11852
       7     H     0.44427  0.44427  0.00000  0.11147
       8     C     3.09243  3.09243  0.00000 -0.18485
       9     C     3.09090  3.09090  0.00000 -0.18180
      10     H     0.44950  0.44950  0.00000  0.10099
      11     H     0.44943  0.44943  0.00000  0.10113
      12     H     0.45787  0.45787  0.00000  0.08426
      13     H     0.45382  0.45382  0.00000  0.09236
      14     H     0.44425  0.44425  0.00000  0.11151
      15     H     0.45680  0.45680  0.00000  0.08640

   Total alpha = 24.00000, Total beta = 24.00000, Total charge =  0.00000

*** Psi4 exiting successfully. Buy a developer a beer!
