                              Psi4 1.0.54 Driver

  ==> Input File <==

--------------------------------------------------------------------------
set {
	reference rhf
	basis cc-pvtz
}

set_num_threads( 4 )
memory 2 gb

molecule MOL {
0 1

H	 -2.271061	 -1.051911	 -0.463258
O	 -2.346257	 -0.289210	 0.080372
C	 -1.183935	 0.486039	 -0.009831
C	 0.062853	 -0.375310	 0.027457
H	 -1.178881	 1.094526	 -0.908634
H	 -1.184406	 1.155156	 0.838676
O	 1.172093	 0.457955	 -0.054438
H	 0.052476	 -1.081302	 -0.804627
H	 0.076323	 -0.955658	 0.947560
C	 2.395478	 -0.199028	 -0.000366
H	 2.505946	 -0.901710	 -0.823354
H	 3.174616	 0.545641	 -0.071768
H	 2.513730	 -0.742241	 0.934223

	symmetry c1
}
set optking {
	frozen_dihedral = ("
		1 2 3 5
	")
}

ee,wfn = optimize('scf', return_wfn=True)
oeprop( wfn, 'DIPOLE', 'QUADRUPOLE', 'MULLIKEN_CHARGES')
f=open( 'psi4out.xyz', 'w' )
f.write( "13  " )
f.write( str(ee) + "\n" )
f.write( MOL.save_string_xyz() )
f.close()
--------------------------------------------------------------------------

    Molecular point group: c1
  Charge       = 0
  Multiplicity = 1
  Basis Set: CC-PVTZ
  Basis Set:
  @DF-RHF Final Energy:  -268.06110935867275
    Total Energy =                       -268.0611093586728657
    Molecular point group: c1
  Basis Set: CC-PVTZ
  Basis Set:
  Basis Set: CC-PVTZ
  Basis Set:
  @DF-RHF Final Energy:  -268.06115049417053
    Total Energy =                       -268.0611504941705903
  Basis Set: CC-PVTZ
  Basis Set:
  Charge       = 0
  Multiplicity = 1
  Basis Set: CC-PVTZ
  Basis Set:

    Orbital Energies (a.u.)
    -----------------------

    Doubly Occupied:

       1A    -20.559221     2A    -20.552189     3A    -11.274608
       4A    -11.270132     5A    -11.267120     6A     -1.395333
       7A     -1.368799     8A     -1.021506     9A     -0.915547
      10A     -0.848899    11A     -0.705483    12A     -0.680549
      13A     -0.669828    14A     -0.634098    15A     -0.600648
      16A     -0.580020    17A     -0.546213    18A     -0.497301
      19A     -0.477163    20A     -0.443275    21A     -0.427932

  @DF-RHF Final Energy:  -268.06115738632337

   => Energetics <=

    Nuclear Repulsion Energy =            190.6374594092637835
    One-Electron Energy =                -743.9255024629071613
    Two-Electron Energy =                 285.2268856673200617
    DFT Exchange-Correlation Energy =       0.0000000000000000
    Empirical Dispersion Energy =           0.0000000000000000
    PCM Polarization Energy =               0.0000000000000000
    EFP Energy =                            0.0000000000000000
    Total Energy =                       -268.0611573863233161
    Molecular point group: c1
  Basis Set: CC-PVTZ
  Basis Set:

  -Total Gradient:
     Atom            X                  Y                   Z
    ------   -----------------  -----------------  -----------------
       1        0.000959324400    -0.001290504083     0.001848817456
       2       -0.001473384002     0.002037067844    -0.001989989298
       3        0.001611791213    -0.002239322798    -0.000947870619
       4        0.000033595464    -0.000177200302    -0.000047918388
       5       -0.001001973870     0.001546835374     0.001109981769
       6       -0.000050876482    -0.000011131719    -0.000008996018
       7        0.000040336195     0.000072274402     0.000037904675
       8       -0.000030222271    -0.000002532888    -0.000036447458
       9        0.000028631046     0.000078529337     0.000018996941
      10       -0.000118791191    -0.000012074899     0.000022399550
      11        0.000000406621    -0.000004699042    -0.000010315679
      12       -0.000015303815     0.000010794012    -0.000002792081
      13        0.000016466692    -0.000008035238     0.000006229149

  **** Optimization is complete! (in 3 steps) ****
    Final optimized geometry and variables:
    Molecular point group: c1

    Geometry (in Angstrom), charge = 0, multiplicity = 1:

    H           -2.290566453249    -1.042274836082    -0.482436522294
    O           -2.354641387710    -0.282887450594     0.067978088812
    C           -1.185842810288     0.483662813393    -0.015905074520
    C            0.063390531385    -0.372087114180     0.029654579783
    H           -1.183145242549     1.098629467382    -0.910392512883
    H           -1.190693921782     1.153124927999     0.832853066162
    O            1.169402890932     0.462445924014    -0.055623590801
    H            0.058005035474    -1.082777846201    -0.800017651253
    H            0.078955703359    -0.947234705834     0.953629799280
    C            2.394514331409    -0.191863278580     0.000347697437
    H            2.506330602057    -0.896603939898    -0.820616802002
    H            3.171194605393     0.554856249977    -0.073747245515
    H            2.514289787342    -0.731472139940     0.936800042154

  Mulliken Charges: (a.u.)
   Center  Symbol    Alpha    Beta     Spin     Total
       1     H     0.39450  0.39450  0.00000  0.21100
       2     O     4.20196  4.20196  0.00000 -0.40392
       3     C     2.96195  2.96195  0.00000  0.07610
       4     C     2.97195  2.97195  0.00000  0.05610
       5     H     0.46898  0.46898  0.00000  0.06204
       6     H     0.45664  0.45664  0.00000  0.08672
       7     O     4.17330  4.17330  0.00000 -0.34659
       8     H     0.48356  0.48356  0.00000  0.03288
       9     H     0.46860  0.46860  0.00000  0.06280
      10     C     3.03256  3.03256  0.00000 -0.06513
      11     H     0.47100  0.47100  0.00000  0.05799
      12     H     0.44520  0.44520  0.00000  0.10961
      13     H     0.46979  0.46979  0.00000  0.06041

   Total alpha = 21.00000, Total beta = 21.00000, Total charge = -0.00000

*** Psi4 exiting successfully. Buy a developer a beer!
