  ==> Input File <==

--------------------------------------------------------------------------
set {
	reference rhf
	basis cc-pvtz
}

set_num_threads( 4 )
memory 2 gb

molecule MOL {
0 1

H	 2.254577	 2.525334	 0.162148
N	 1.460542	 1.927213	 0.076254
C	 1.860978	 0.530248	 0.016256
H	 0.978269	 2.195700	 -0.756018
C	 0.644130	 -0.381765	 -0.031064
H	 2.436972	 0.312046	 0.909299
H	 2.507427	 0.310389	 -0.834462
C	 -0.678115	 0.376691	 0.025731
H	 0.693998	 -0.977147	 -0.936845
H	 0.693309	 -1.082142	 0.800523
C	 -1.900706	 -0.535531	 -0.022488
H	 -0.725296	 1.079516	 -0.802982
H	 -0.715474	 0.974884	 0.933278
C	 -3.220513	 0.226854	 0.028039
H	 -1.865036	 -1.134397	 -0.928236
H	 -1.857948	 -1.236381	 0.806820
H	 -3.309098	 0.911849	 -0.808725
H	 -4.066838	 -0.449485	 -0.008086
H	 -3.301685	 0.809374	 0.939860

	symmetry c1
}
set optking {
	frozen_dihedral = ("
		6 3 5 9
	")
}

ee = optimize('scf')
oeprop('DIPOLE', 'QUADRUPOLE', 'MULLIKEN_CHARGES')
f=open( 'psi4out.xyz', 'w' )
f.write( "19  " )
f.write( str(ee) + "\n" )
f.write( MOL.save_string_xyz() )
f.close()
--------------------------------------------------------------------------

    Molecular point group: c1
  Charge       = 0
  Multiplicity = 1
  Basis Set: CC-PVTZ
  Basis Set:
  @DF-RHF Final Energy:  -251.43506298025329
    Total Energy =                       -251.4350629802534627
    Molecular point group: c1
  Basis Set: CC-PVTZ
  Basis Set:
  Basis Set: CC-PVTZ
  Basis Set:
  @DF-RHF Final Energy:  -251.43558199693490
    Total Energy =                       -251.4355819969350705
  Basis Set: CC-PVTZ
  Basis Set:
  Basis Set: CC-PVTZ
  Basis Set:
  @DF-RHF Final Energy:  -251.43817935812771
    Total Energy =                       -251.4381793581275133
  Basis Set: CC-PVTZ
  Basis Set:
  Basis Set: CC-PVTZ
  Basis Set:
  @DF-RHF Final Energy:  -251.43842334426876
    Total Energy =                       -251.4384233442685854
  Basis Set: CC-PVTZ
  Basis Set:
  Basis Set: CC-PVTZ
  Basis Set:
  @DF-RHF Final Energy:  -251.43843658994217
    Total Energy =                       -251.4384365899420573
  Basis Set: CC-PVTZ
  Basis Set:
  Basis Set: CC-PVTZ
  Basis Set:
  @DF-RHF Final Energy:  -251.43844597854013
    Total Energy =                       -251.4384459785400736
  Basis Set: CC-PVTZ
  Basis Set:
  Basis Set: CC-PVTZ
  Basis Set:
  @DF-RHF Final Energy:  -251.43844816561850
    Total Energy =                       -251.4384481656185244
  Basis Set: CC-PVTZ
  Basis Set:
  Charge       = 0
  Multiplicity = 1
  Basis Set: CC-PVTZ
  Basis Set:

    Orbital Energies (a.u.)
    -----------------------

    Doubly Occupied:

       1A    -15.526757     2A    -11.239314     3A    -11.208158
       4A    -11.207810     5A    -11.203619     6A    -11.202006
       7A     -1.177259     8A     -1.067822     9A     -0.993269
      10A     -0.905372    11A     -0.813345    12A     -0.776521
      13A     -0.668274    14A     -0.640103    15A     -0.615338
      16A     -0.582860    17A     -0.565540    18A     -0.549237
      19A     -0.526869    20A     -0.498008    21A     -0.477517
      22A     -0.462233    23A     -0.455943    24A     -0.445108
      25A     -0.379968

  @DF-RHF Final Energy:  -251.43844829759934

   => Energetics <=

    Nuclear Repulsion Energy =            249.7657242695957507
    One-Electron Energy =                -834.0318515727983595
    Two-Electron Energy =                 332.8276790056032723
    DFT Exchange-Correlation Energy =       0.0000000000000000
    Empirical Dispersion Energy =           0.0000000000000000
    PCM Polarization Energy =               0.0000000000000000
    EFP Energy =                            0.0000000000000000
    Total Energy =                       -251.4384482975993933
    Molecular point group: c1
  Basis Set: CC-PVTZ
  Basis Set:

  -Total Gradient:
     Atom            X                  Y                   Z
    ------   -----------------  -----------------  -----------------
       1        0.000002860343     0.000005070483    -0.000003868270
       2        0.000001966662     0.000005807278     0.000011477181
       3       -0.000778726583     0.001034998429     0.001085433423
       4       -0.000000606138    -0.000004558809     0.000000350487
       5       -0.000690999103     0.001097745462    -0.001074628198
       6        0.000759755891    -0.001048151688    -0.000751460424
       7        0.000002780352    -0.000003891037     0.000000716004
       8       -0.000001757158     0.000003367430    -0.000019149933
       9        0.000702448916    -0.001086002381     0.000745612825
      10        0.000007091420    -0.000003763992     0.000001420432
      11       -0.000001733788    -0.000000017167     0.000002967572
      12       -0.000007995210     0.000008800421    -0.000003819239
      13        0.000002233868    -0.000012143211    -0.000002358494
      14        0.000000507711     0.000000960188     0.000007122124
      15        0.000008575829     0.000001848316     0.000000585831
      16       -0.000005985901     0.000000037319     0.000000234479
      17        0.000002046113    -0.000002083035    -0.000000078025
      18       -0.000000014544    -0.000000035334    -0.000000337564
      19       -0.000002448685     0.000002011325    -0.000000220211

  **** Optimization is complete! (in 8 steps) ****
    Final optimized geometry and variables:
    Molecular point group: c1

    Geometry (in Angstrom), charge = 0, multiplicity = 1:

    H            2.749471614929     2.084911980312     0.226611074029
    N            1.903968541109     1.584756776673     0.052070885167
    C            2.165312317146     0.152442475794     0.013475152948
    H            1.546775288203     1.913368998597    -0.819928795257
    C            0.889745913855    -0.724155657967    -0.055736732182
    H            2.713527563835    -0.095477608439     0.913714102425
    H            2.817561840937    -0.121003167948    -0.814459219770
    C           -0.449740631049     0.007076430202     0.009460302680
    H            0.920802300067    -1.322321555340    -0.961235800672
    H            0.922856012098    -1.439566573897     0.760011283614
    C           -1.635138644974    -0.954409666690    -0.018266490826
    H           -0.539881232907     0.698082729634    -0.824099631409
    H           -0.492245672031     0.612803002056     0.906700817679
    C           -2.982642878443    -0.242142413566     0.037092124617
    H           -1.587550621997    -1.563629356933    -0.917208945831
    H           -1.558899506328    -1.643052665929     0.818987051857
    H           -3.106618433119     0.427345213829    -0.807784984202
    H           -3.803358966372    -0.950365151632     0.020135400411
    H           -3.074782828570     0.349912115453     0.941472113947

  Mulliken Charges: (a.u.)
   Center  Symbol    Alpha    Beta     Spin     Total
       1     H     0.42929  0.42929  0.00000  0.14143
       2     N     3.68484  3.68484  0.00000 -0.36967
       3     C     3.03414  3.03414  0.00000 -0.06829
       4     H     0.43148  0.43148  0.00000  0.13704
       5     C     3.10352  3.10352  0.00000 -0.20703
       6     H     0.45599  0.45599  0.00000  0.08801
       7     H     0.46131  0.46131  0.00000  0.07738
       8     C     3.08088  3.08088  0.00000 -0.16175
       9     H     0.45265  0.45265  0.00000  0.09470
      10     H     0.45354  0.45354  0.00000  0.09293
      11     C     3.08445  3.08445  0.00000 -0.16890
      12     H     0.46067  0.46067  0.00000  0.07866
      13     H     0.44458  0.44458  0.00000  0.11083
      14     C     3.15015  3.15015  0.00000 -0.30029
      15     H     0.45680  0.45680  0.00000  0.08641
      16     H     0.45545  0.45545  0.00000  0.08911
      17     H     0.45616  0.45616  0.00000  0.08767
      18     H     0.44953  0.44953  0.00000  0.10093
      19     H     0.45458  0.45458  0.00000  0.09084

   Total alpha = 25.00000, Total beta = 25.00000, Total charge =  0.00000
