  ==> Input File <==

--------------------------------------------------------------------------
set {
	reference rhf
	basis 6-31G*
}

set_num_threads( 1 )
memory 2 gb

molecule MOL {
0 1

H	 -4.236494	 0.538104	 0.039757
O	 -3.517110	 -0.026191	 -0.205115
C	 -2.306886	 0.532354	 0.237577
C	 -1.177863	 -0.397191	 -0.171080
H	 -2.156308	 1.517575	 -0.201710
H	 -2.315015	 0.655684	 1.319734
C	 0.198102	 0.111031	 0.262842
H	 -1.208843	 -0.518759	 -1.250427
H	 -1.368741	 -1.376554	 0.258909
C	 1.331804	 -0.827780	 -0.158768
H	 0.361943	 1.100838	 -0.156218
H	 0.217265	 0.229072	 1.345532
C	 2.723619	 -0.410569	 0.329459
H	 1.342964	 -0.912588	 -1.244120
H	 1.116806	 -1.824343	 0.220779
C	 3.605323	 0.236707	 -0.740105
H	 3.231655	 -1.292066	 0.712798
H	 2.620011	 0.269567	 1.172576
H	 3.716431	 -0.416296	 -1.601662
H	 3.195640	 1.178616	 -1.089594
H	 4.598119	 0.439233	 -0.350113

	symmetry c1
}
set optking {
	frozen_dihedral = ("
		2 3 4 8,
		8 4 7 10,
		4 7 10 14,
		1 2 3 5
	")
}

ee = energy('scf')
oeprop('DIPOLE', 'QUADRUPOLE', 'MULLIKEN_CHARGES')
f=open( 'psi4out.xyz', 'w' )
f.write( "21  " )
f.write( str(ee) + "\n" )
f.write( MOL.save_string_xyz() )
f.close()
--------------------------------------------------------------------------

    Molecular point group: c1

    Geometry (in Angstrom), charge = 0, multiplicity = 1:

       Center              X                  Y                   Z               Mass
    ------------   -----------------  -----------------  -----------------  -----------------
           H         -4.289577627580     0.635058027093     0.108234924527     1.007825032070
           O         -3.570193627580     0.070763027093    -0.136637075473    15.994914619560
           C         -2.359969627580     0.629308027093     0.306054924527    12.000000000000
           C         -1.230946627580    -0.300236972907    -0.102602075473    12.000000000000
           H         -2.209391627580     1.614529027093    -0.133232075473     1.007825032070
           H         -2.368098627580     0.752638027093     1.388211924527     1.007825032070
           C          0.145018372420     0.207985027093     0.331319924527    12.000000000000
           H         -1.261926627580    -0.421804972907    -1.181949075473     1.007825032070
           H         -1.421824627580    -1.279599972907     0.327386924527     1.007825032070
           C          1.278720372420    -0.730825972907    -0.090290075473    12.000000000000
           H          0.308859372420     1.197792027093    -0.087740075473     1.007825032070
           H          0.164181372420     0.326026027093     1.414009924527     1.007825032070
           C          2.670535372420    -0.313614972907     0.397936924527    12.000000000000
           H          1.289880372420    -0.815633972907    -1.175642075473     1.007825032070
           H          1.063722372420    -1.727388972907     0.289256924527     1.007825032070
           C          3.552239372420     0.333661027093    -0.671627075473    12.000000000000
           H          3.178571372420    -1.195111972907     0.781275924527     1.007825032070
           H          2.566927372420     0.366521027093     1.241053924527     1.007825032070
           H          3.663347372420    -0.319341972907    -1.533184075473     1.007825032070
           H          3.142556372420     1.275570027093    -1.021116075473     1.007825032070
           H          4.545035372420     0.536187027093    -0.281635075473     1.007825032070

  Charge       = 0
  Multiplicity = 1
  Basis Set: 6-31G*
  Basis Set:

    Orbital Energies (a.u.)
    -----------------------

    Doubly Occupied:

       1A    -20.551808     2A    -11.267045     3A    -11.216359
       4A    -11.213815     5A    -11.212330     6A    -11.210421
       7A    -11.208357     8A     -1.358635     9A     -1.085537
      10A     -1.033671    11A     -0.955794    12A     -0.871345
      13A     -0.804542    14A     -0.785793    15A     -0.692441
      16A     -0.661074    17A     -0.618886    18A     -0.609616
      19A     -0.586539    20A     -0.564939    21A     -0.538468
      22A     -0.523158    23A     -0.508324    24A     -0.486458
      25A     -0.478874    26A     -0.462786    27A     -0.452873
      28A     -0.442067    29A     -0.433943

  @DF-RHF Final Energy:  -310.20920232091908

   => Energetics <=

    Nuclear Repulsion Energy =            310.3444319353068295
    One-Electron Energy =               -1035.4358155332720344
    Two-Electron Energy =                 414.8821812770456745
    DFT Exchange-Correlation Energy =       0.0000000000000000
    Empirical Dispersion Energy =           0.0000000000000000
    PCM Polarization Energy =               0.0000000000000000
    EFP Energy =                            0.0000000000000000
    Total Energy =                       -310.2092023209195304

  Mulliken Charges: (a.u.)
   Center  Symbol    Alpha    Beta     Spin     Total
       1     H     0.28119  0.28119  0.00000  0.43762
       2     O     4.37175  4.37175  0.00000 -0.74349
       3     C     2.98980  2.98980  0.00000  0.02041
       4     C     3.15980  3.15980  0.00000 -0.31959
       5     H     0.43295  0.43295  0.00000  0.13410
       6     H     0.43289  0.43289  0.00000  0.13422
       7     C     3.16117  3.16117  0.00000 -0.32234
       8     H     0.41472  0.41472  0.00000  0.17056
       9     H     0.41468  0.41468  0.00000  0.17063
      10     C     3.15371  3.15371  0.00000 -0.30743
      11     H     0.42318  0.42318  0.00000  0.15365
      12     H     0.42330  0.42330  0.00000  0.15340
      13     C     3.15478  3.15478  0.00000 -0.30957
      14     H     0.42067  0.42067  0.00000  0.15867
      15     H     0.42038  0.42038  0.00000  0.15924
      16     C     3.23959  3.23959  0.00000 -0.47918
      17     H     0.42039  0.42039  0.00000  0.15922
      18     H     0.42162  0.42162  0.00000  0.15677
      19     H     0.42132  0.42132  0.00000  0.15735
      20     H     0.42184  0.42184  0.00000  0.15632
      21     H     0.42028  0.42028  0.00000  0.15944

   Total alpha = 29.00000, Total beta = 29.00000, Total charge =  0.00000
