                              Psi4 1.0.54 Driver

  ==> Input File <==

--------------------------------------------------------------------------
set {
	reference rhf
	basis cc-pvtz
}

set_num_threads( 4 )
memory 2 gb

molecule MOL {
0 1

H	 2.134874	 -1.383112	 0.448530
O	 1.544505	 -0.819082	 -0.015570
C	 0.983707	 0.121790	 0.863225
C	 0.027642	 1.012027	 0.090274
H	 1.762801	 0.737646	 1.305381
H	 0.466411	 -0.380021	 1.676276
C	 -1.138737	 0.285728	 -0.581921
H	 0.598809	 1.538300	 -0.667560
H	 -0.354980	 1.764999	 0.774999
C	 -1.933983	 -0.631436	 0.343653
H	 -0.763151	 -0.285569	 -1.422081
H	 -1.808359	 1.035291	 -0.992333
H	 -2.789188	 -1.049673	 -0.174718
H	 -1.335629	 -1.461368	 0.700418
H	 -2.305435	 -0.092167	 1.209725

	symmetry c1
}
set optking {
	frozen_dihedral = ("
		8 4 7 11
	")
}

ee,wfn = optimize('scf', return_wfn=True)
oeprop( wfn, 'DIPOLE', 'QUADRUPOLE', 'MULLIKEN_CHARGES')
f=open( 'psi4out.xyz', 'w' )
f.write( "15  " )
f.write( str(ee) + "\n" )
f.write( MOL.save_string_xyz() )
f.close()
--------------------------------------------------------------------------

    Molecular point group: c1
  Charge       = 0
  Multiplicity = 1
  Basis Set: CC-PVTZ
  Basis Set:
  @DF-RHF Final Energy:  -232.23707414694854
    Total Energy =                       -232.2370741469484301
    Molecular point group: c1
  Basis Set: CC-PVTZ
  Basis Set:
  Basis Set: CC-PVTZ
  Basis Set:
  @DF-RHF Final Energy:  -232.23708144295577
    Total Energy =                       -232.2370814429557413
  Basis Set: CC-PVTZ
  Basis Set:
  Basis Set: CC-PVTZ
  Basis Set:
  @DF-RHF Final Energy:  -232.23718517311067
    Total Energy =                       -232.2371851731106176
  Basis Set: CC-PVTZ
  Basis Set:
  Basis Set: CC-PVTZ
  Basis Set:
  @DF-RHF Final Energy:  -232.23718784768747
    Total Energy =                       -232.2371878476872666
  Basis Set: CC-PVTZ
  Basis Set:
  Charge       = 0
  Multiplicity = 1
  Basis Set: CC-PVTZ
  Basis Set:

    Orbital Energies (a.u.)
    -----------------------

    Doubly Occupied:

       1A    -20.546708     2A    -11.265017     3A    -11.211039
       4A    -11.207609     5A    -11.202349     6A     -1.364394
       7A     -1.064989     8A     -0.971135     9A     -0.870671
      10A     -0.773203    11A     -0.707517    12A     -0.650472
      13A     -0.609614    14A     -0.574241    15A     -0.565133
      16A     -0.532419    17A     -0.513056    18A     -0.475666
      19A     -0.465445    20A     -0.452432    21A     -0.434254

  @DF-RHF Final Energy:  -232.23718808313711

   => Energetics <=

    Nuclear Repulsion Energy =            192.7074628653540742
    One-Electron Energy =                -696.9745723097455539
    Two-Electron Energy =                 272.0299213612545373
    DFT Exchange-Correlation Energy =       0.0000000000000000
    Empirical Dispersion Energy =           0.0000000000000000
    PCM Polarization Energy =               0.0000000000000000
    EFP Energy =                            0.0000000000000000
    Total Energy =                       -232.2371880831369708
    Molecular point group: c1
  Basis Set: CC-PVTZ
  Basis Set:

  -Total Gradient:
     Atom            X                  Y                   Z
    ------   -----------------  -----------------  -----------------
       1        0.000000530729    -0.000001535403    -0.000000447816
       2       -0.000010342762     0.000008632625     0.000001966310
       3       -0.000019179648    -0.000021620649     0.000031395630
       4       -0.001652512592     0.002600995625     0.000008487089
       5       -0.000006073276    -0.000014152954    -0.000011795830
       6        0.000011005731     0.000012267437    -0.000001700233
       7        0.000694571054    -0.002558860963     0.001591009928
       8        0.001281063059    -0.001773184726    -0.000266750508
       9        0.000004558810     0.000002596300    -0.000005673175
      10        0.000029179618    -0.000021760333     0.000004053226
      11       -0.000327925815     0.001740551522    -0.001338945859
      12       -0.000007185298     0.000003188865     0.000002331924
      13        0.000017245455     0.000007705092     0.000012344570
      14       -0.000018919346     0.000020436480    -0.000014855973
      15        0.000003984284    -0.000005258918    -0.000011419284

  **** Optimization is complete! (in 5 steps) ****
    Final optimized geometry and variables:
    Molecular point group: c1

    Geometry (in Angstrom), charge = 0, multiplicity = 1:

    H            2.202998551693    -1.332736948249     0.285849364802
    O            1.598614306014    -0.776766741479    -0.169755568836
    C            1.057247697912     0.173697753088     0.710939444236
    C            0.086507142665     1.056592980604    -0.052605620880
    H            1.845646751962     0.793308015388     1.130853519631
    H            0.556034062661    -0.318798121706     1.539386349162
    C           -1.071294068585     0.318386252594    -0.729781749940
    H            0.654839866462     1.583212087011    -0.812294187145
    H           -0.300768859599     1.800740659191     0.638178409311
    C           -1.887061857655    -0.587199608488     0.187420595673
    H           -0.687664123077    -0.253055545167    -1.566198430674
    H           -1.730820199003     1.067167958909    -1.159244233457
    H           -2.747241978250    -0.985537635214    -0.338112211470
    H           -1.304100466473    -1.428823181395     0.540539011248
    H           -2.253948472403    -0.045771836449     1.054319771761

  Mulliken Charges: (a.u.)
   Center  Symbol    Alpha    Beta     Spin     Total
       1     H     0.39547  0.39547  0.00000  0.20906
       2     O     4.20039  4.20039  0.00000 -0.40077
       3     C     2.97933  2.97933  0.00000  0.04134
       4     C     3.09632  3.09632  0.00000 -0.19264
       5     H     0.46102  0.46102  0.00000  0.07797
       6     H     0.47034  0.47034  0.00000  0.05933
       7     C     3.08291  3.08291  0.00000 -0.16582
       8     H     0.44931  0.44931  0.00000  0.10139
       9     H     0.45304  0.45304  0.00000  0.09391
      10     C     3.15777  3.15777  0.00000 -0.31555
      11     H     0.44771  0.44771  0.00000  0.10459
      12     H     0.45181  0.45181  0.00000  0.09637
      13     H     0.44636  0.44636  0.00000  0.10728
      14     H     0.45154  0.45154  0.00000  0.09692
      15     H     0.45669  0.45669  0.00000  0.08661

   Total alpha = 21.00000, Total beta = 21.00000, Total charge = -0.00000

*** Psi4 exiting successfully. Buy a developer a beer!
