  ==> Input File <==

--------------------------------------------------------------------------
set {
	reference rhf
	basis cc-pvtz
}

set_num_threads( 4 )
memory 2 gb

molecule MOL {
0 1

H	 -1.390988	 -0.782287	 0.755258
N	 -1.173824	 -0.310545	 -0.096857
C	 -0.022588	 0.563366	 0.065815
H	 -0.993940	 -1.011929	 -0.784836
C	 1.270420	 -0.230572	 -0.014245
H	 -0.045354	 1.293678	 -0.735129
H	 -0.043155	 1.123061	 1.001180
H	 1.336273	 -0.754933	 -0.959364
H	 2.130728	 0.422015	 0.082222
H	 1.323344	 -0.967006	 0.781773

	symmetry c1
}
set optking {
	frozen_dihedral = ("
		1 2 3 6
	")
}

ee = optimize('scf')
oeprop('DIPOLE', 'QUADRUPOLE', 'MULLIKEN_CHARGES')
f=open( 'psi4out.xyz', 'w' )
f.write( "10  " )
f.write( str(ee) + "\n" )
f.write( MOL.save_string_xyz() )
f.close()
--------------------------------------------------------------------------

    Molecular point group: c1
  Charge       = 0
  Multiplicity = 1
  Basis Set: CC-PVTZ
  Basis Set:
  @DF-RHF Final Energy:  -134.30178933411497
    Total Energy =                       -134.3017893341149147
    Molecular point group: c1
  Basis Set: CC-PVTZ
  Basis Set:
  Basis Set: CC-PVTZ
  Basis Set:
  @DF-RHF Final Energy:  -134.30373652088485
    Total Energy =                       -134.3037365208849110
  Basis Set: CC-PVTZ
  Basis Set:
  Basis Set: CC-PVTZ
  Basis Set:
  @DF-RHF Final Energy:  -134.30395790648322
    Total Energy =                       -134.3039579064833049
  Basis Set: CC-PVTZ
  Basis Set:
  Basis Set: CC-PVTZ
  Basis Set:
  @DF-RHF Final Energy:  -134.30396361508605
    Total Energy =                       -134.3039636150860758
  Basis Set: CC-PVTZ
  Basis Set:
  Charge       = 0
  Multiplicity = 1
  Basis Set: CC-PVTZ
  Basis Set:

    Orbital Energies (a.u.)
    -----------------------

    Doubly Occupied:

       1A    -15.525895     2A    -11.241055     3A    -11.208355
       4A     -1.177432     5A     -0.988397     6A     -0.832281
       7A     -0.675354     8A     -0.600998     9A     -0.578858
      10A     -0.556793    11A     -0.507807    12A     -0.482747
      13A     -0.381814

  @DF-RHF Final Energy:  -134.30396405128027

   => Energetics <=

    Nuclear Repulsion Energy =             83.3182468635921936
    One-Electron Energy =                -345.7288504238848077
    Two-Electron Energy =                 128.1066395090122114
    DFT Exchange-Correlation Energy =       0.0000000000000000
    Empirical Dispersion Energy =           0.0000000000000000
    PCM Polarization Energy =               0.0000000000000000
    EFP Energy =                            0.0000000000000000
    Total Energy =                       -134.3039640512803885
    Molecular point group: c1
  Basis Set: CC-PVTZ
  Basis Set:

  -Total Gradient:
     Atom            X                  Y                   Z
    ------   -----------------  -----------------  -----------------
       1       -0.001272270528     0.001765645180     0.000701621684
       2        0.001323809073    -0.001909093490    -0.000624697343
       3        0.001000489023    -0.001179570175    -0.001379461722
       4        0.000011179014     0.000015069467     0.000018826947
       5       -0.000045582174     0.000003334230     0.000006318996
       6       -0.001033453223     0.001265449128     0.001267194475
       7        0.000000519577     0.000022046391     0.000016600026
       8       -0.000001367536     0.000003315732     0.000015539357
       9        0.000014686271     0.000008693706    -0.000001738101
      10        0.000001990502     0.000005109832    -0.000020204320

  **** Optimization is complete! (in 5 steps) ****
    Final optimized geometry and variables:
    Molecular point group: c1

    Geometry (in Angstrom), charge = 0, multiplicity = 1:

    H           -1.422700859139    -0.753004529797     0.784744584996
    N           -1.227654932529    -0.267575225762    -0.064072780621
    C           -0.035083418746     0.553579038539     0.053828946803
    H           -1.144964361596    -0.940725427442    -0.795840979388
    C            1.287858706995    -0.201557403127     0.002698601629
    H           -0.060695949370     1.308199336667    -0.725004866478
    H           -0.105364593451     1.097165561084     0.989494187985
    H            1.393200570608    -0.734966569788    -0.936914758788
    H            2.129210637670     0.477460210419     0.094316419426
    H            1.352201460127    -0.927805977071     0.806391233780

  Mulliken Charges: (a.u.)
   Center  Symbol    Alpha    Beta     Spin     Total
       1     H     0.42937  0.42937  0.00000  0.14127
       2     N     3.69118  3.69118  0.00000 -0.38235
       3     C     3.02584  3.02584  0.00000 -0.05168
       4     H     0.43023  0.43023  0.00000  0.13954
       5     C     3.13779  3.13779  0.00000 -0.27558
       6     H     0.45522  0.45522  0.00000  0.08955
       7     H     0.45605  0.45605  0.00000  0.08791
       8     H     0.45931  0.45931  0.00000  0.08138
       9     H     0.45596  0.45596  0.00000  0.08807
      10     H     0.45905  0.45905  0.00000  0.08190

   Total alpha = 13.00000, Total beta = 13.00000, Total charge = -0.00000
