  ==> Input File <==

--------------------------------------------------------------------------
set {
	reference rhf
	basis 6-31G*
}

set_num_threads( 4 )
memory 2 gb

molecule MOL {
0 1

H	 -1.748661	 -2.220942	 -0.005015
C	 -1.343207	 -1.225221	 -0.013879
N	 -0.055091	 -1.100174	 -0.261126
C	 -2.150779	 -0.125890	 0.222726
C	 0.449969	 0.122615	 -0.277109
H	 -3.200618	 -0.238980	 0.422496
N	 -1.660212	 1.097703	 0.209594
C	 -0.371804	 1.219904	 -0.038265
C	 1.928147	 0.267347	 -0.541394
H	 0.029131	 2.217482	 -0.051283
C	 2.246522	 0.386109	 -2.035565
H	 2.280984	 1.154174	 -0.025733
H	 2.456423	 -0.581262	 -0.118355
H	 3.313157	 0.516073	 -2.188524
H	 1.734546	 1.238212	 -2.467168
H	 1.935820	 -0.503964	 -2.573659

	symmetry c1
}
set optking {
	frozen_dihedral = ("
		12 9 5 3
	")
}

ee = optimize('scf')
oeprop('DIPOLE', 'QUADRUPOLE', 'MULLIKEN_CHARGES')
f=open( 'psi4out.xyz', 'w' )
f.write( "16  " )
f.write( str(ee) + "\n" )
f.write( MOL.save_string_xyz() )
f.close()
--------------------------------------------------------------------------

    Molecular point group: c1
  Charge       = 0
  Multiplicity = 1
  Basis Set: 6-31G*
  Basis Set:
  @DF-RHF Final Energy:  -340.75792628308204
    Total Energy =                       -340.7579262830817584
    Molecular point group: c1
  Basis Set: 6-31G*
  Basis Set:
  Basis Set: 6-31G*
  Basis Set:
  @DF-RHF Final Energy:  -340.75811148710125
    Total Energy =                       -340.7581114871012460
  Basis Set: 6-31G*
  Basis Set:
  Basis Set: 6-31G*
  Basis Set:
  @DF-RHF Final Energy:  -340.75818595263928
    Total Energy =                       -340.7581859526392236
  Basis Set: 6-31G*
  Basis Set:
  Basis Set: 6-31G*
  Basis Set:
  @DF-RHF Final Energy:  -340.75820077381019
    Total Energy =                       -340.7582007738099037
  Basis Set: 6-31G*
  Basis Set:
  Basis Set: 6-31G*
  Basis Set:
  @DF-RHF Final Energy:  -340.75820241675177
    Total Energy =                       -340.7582024167518853
  Basis Set: 6-31G*
  Basis Set:
  Charge       = 0
  Multiplicity = 1
  Basis Set: 6-31G*
  Basis Set:

    Orbital Energies (a.u.)
    -----------------------

    Doubly Occupied:

       1A    -15.586916     2A    -15.582418     3A    -11.281199
       4A    -11.275914     5A    -11.272467     6A    -11.271897
       7A    -11.232599     8A    -11.220400     9A     -1.313366
      10A     -1.221972    11A     -1.084995    12A     -1.014359
      13A     -0.903953    14A     -0.894483    15A     -0.828971
      16A     -0.715620    17A     -0.710387    18A     -0.658881
      19A     -0.610225    20A     -0.604523    21A     -0.582842
      22A     -0.561539    23A     -0.522472    24A     -0.507437
      25A     -0.501637    26A     -0.484963    27A     -0.429055
      28A     -0.395094    29A     -0.345078

  @DF-RHF Final Energy:  -340.75820814799408

   => Energetics <=

    Nuclear Repulsion Energy =            349.7506271159745665
    One-Electron Energy =               -1153.7863428281177676
    Two-Electron Energy =                 463.2775075641489479
    DFT Exchange-Correlation Energy =       0.0000000000000000
    Empirical Dispersion Energy =           0.0000000000000000
    PCM Polarization Energy =               0.0000000000000000
    EFP Energy =                            0.0000000000000000
    Total Energy =                       -340.7582081479942531
    Molecular point group: c1
  Basis Set: 6-31G*
  Basis Set:

  -Total Gradient:
     Atom            X                  Y                   Z
    ------   -----------------  -----------------  -----------------
       1       -0.000023782401     0.000001170480    -0.000002040174
       2        0.000237962961    -0.000103962590    -0.000037456145
       3       -0.000075069881    -0.000200604892     0.000633940313
       4       -0.000010991809     0.000260530539     0.000069600492
       5       -0.000168403691     0.000326582323    -0.000676306815
       6       -0.000007893249    -0.000022552914    -0.000031216551
       7       -0.000221179608    -0.000170530992     0.000042222470
       8        0.000250129305    -0.000084853874    -0.000106101914
       9       -0.000151070500     0.000462348353    -0.000502325275
      10       -0.000008286758    -0.000006985761     0.000004290017
      11        0.000004451132    -0.000014943390     0.000002938482
      12        0.000127952746    -0.000437056754     0.000608812471
      13        0.000042299558    -0.000007166487    -0.000003926847
      14        0.000003423961     0.000005491645    -0.000004262000
      15        0.000002638422    -0.000005532001     0.000011310514
      16       -0.000002180187    -0.000001933684    -0.000009479037

  **** Optimization is complete! (in 6 steps) ****
    Final optimized geometry and variables:
    Molecular point group: c1

    Geometry (in Angstrom), charge = 0, multiplicity = 1:

    H           -1.663351998269    -2.311475759528     0.359601920734
    C           -1.262485744503    -1.313909743210     0.350120368981
    N            0.031298639372    -1.185645829009     0.125648265659
    C           -2.076897342703    -0.218032167328     0.569007308754
    C            0.531385125391     0.037671553069     0.115155758772
    H           -3.129563187478    -0.333713861516     0.751553509246
    N           -1.589362060554     1.008510915340     0.564583994370
    C           -0.298552208197     1.133744924096     0.340703379586
    C            2.004405437177     0.197037888676    -0.168171430325
    H            0.102120493857     2.131949765020     0.341735314185
    C            2.303080673529     0.297415601805    -1.668487849757
    H            2.381021215907     1.077427098903     0.343832593344
    H            2.519504641110    -0.661029674532     0.247093897479
    H            3.370699926925     0.389264155076    -1.839957419882
    H            1.816737237459     1.161820694139    -2.109845854387
    H            1.951772078736    -0.587726314229    -2.187287811375

  Mulliken Charges: (a.u.)
   Center  Symbol    Alpha    Beta     Spin     Total
       1     H     0.39380  0.39380  0.00000  0.21241
       2     C     2.99086  2.99086  0.00000  0.01827
       3     N     3.75295  3.75295  0.00000 -0.50590
       4     C     2.99798  2.99798  0.00000  0.00405
       5     C     2.87749  2.87749  0.00000  0.24502
       6     H     0.39426  0.39426  0.00000  0.21149
       7     N     3.72929  3.72929  0.00000 -0.45858
       8     C     2.99625  2.99625  0.00000  0.00751
       9     C     3.17001  3.17001  0.00000 -0.34002
      10     H     0.39520  0.39520  0.00000  0.20959
      11     C     3.24208  3.24208  0.00000 -0.48417
      12     H     0.41414  0.41414  0.00000  0.17171
      13     H     0.40176  0.40176  0.00000  0.19648
      14     H     0.41589  0.41589  0.00000  0.16821
      15     H     0.41845  0.41845  0.00000  0.16311
      16     H     0.40958  0.40958  0.00000  0.18083

   Total alpha = 29.00000, Total beta = 29.00000, Total charge =  0.00000
