  ==> Input File <==

--------------------------------------------------------------------------
set {
	reference rhf
	basis 6-31G*
}

set_num_threads( 4 )
memory 2 gb

molecule MOL {
0 1

H	 -3.602505	 1.714041	 1.560708
C	 -3.648431	 0.866886	 0.865121
C	 -2.660244	 0.921717	 -0.272021
O	 -4.436981	 -0.005081	 1.037204
C	 -1.220012	 1.144545	 0.209990
H	 -2.750857	 0.008278	 -0.848326
H	 -2.955815	 1.751538	 -0.912872
C	 -0.252658	 0.041456	 -0.226725
H	 -0.873521	 2.100229	 -0.171974
H	 -1.211708	 1.231594	 1.295398
C	 1.180775	 0.282413	 0.250794
H	 -0.266029	 -0.034465	 -1.312038
H	 -0.597733	 -0.921000	 0.146291
C	 2.148627	 -0.814315	 -0.201312
H	 1.516199	 1.249228	 -0.115937
H	 1.192670	 0.346017	 1.338083
C	 3.580890	 -0.659131	 0.322722
H	 2.166869	 -0.852443	 -1.289387
H	 1.762857	 -1.776509	 0.128956
C	 4.324889	 0.564933	 -0.213704
H	 4.142010	 -1.551473	 0.056605
H	 3.564836	 -0.624694	 1.410140
H	 4.342616	 0.565491	 -1.300421
H	 3.866655	 1.493402	 0.110242
H	 5.353900	 0.572371	 0.132816

	symmetry c1
}
set optking {
	frozen_dihedral = ("
		6 3 5 8
	")
}

ee = optimize('scf')
oeprop('DIPOLE', 'QUADRUPOLE', 'MULLIKEN_CHARGES')
f=open( 'psi4out.xyz', 'w' )
f.write( "25  " )
f.write( str(ee) + "\n" )
f.write( MOL.save_string_xyz() )
f.close()
--------------------------------------------------------------------------

    Molecular point group: c1
  Charge       = 0
  Multiplicity = 1
  Basis Set: 6-31G*
  Basis Set:
  @DF-RHF Final Energy:  -387.11713584118837
    Total Energy =                       -387.1171358411884285
    Molecular point group: c1
  Basis Set: 6-31G*
  Basis Set:
  Basis Set: 6-31G*
  Basis Set:
  @DF-RHF Final Energy:  -387.11740253846034
    Total Energy =                       -387.1174025384602828
  Basis Set: 6-31G*
  Basis Set:
  Basis Set: 6-31G*
  Basis Set:
  @DF-RHF Final Energy:  -387.11589881576475
    Total Energy =                       -387.1158988157644671
  Basis Set: 6-31G*
  Basis Set:
  Basis Set: 6-31G*
  Basis Set:
  @DF-RHF Final Energy:  -387.11747911362062
    Total Energy =                       -387.1174791136206750
  Basis Set: 6-31G*
  Basis Set:
  @DF-RHF Final Energy:  -387.11748213554984
    Total Energy =                       -387.1174821355504037
  @DF-RHF Final Energy:  -387.11749482666210
    Total Energy =                       -387.1174948266625506
  Basis Set: 6-31G*
  Basis Set:
  @DF-RHF Final Energy:  -387.11749919311785
    Total Energy =                       -387.1174991931181921
  Basis Set: 6-31G*
  Basis Set:
  Basis Set: 6-31G*
  Basis Set:
  @DF-RHF Final Energy:  -387.11749289632235
    Total Energy =                       -387.1174928963226876
  Basis Set: 6-31G*
  Basis Set:
  Basis Set: 6-31G*
  Basis Set:
  @DF-RHF Final Energy:  -387.11750063393629
    Total Energy =                       -387.1175006339360607
  Basis Set: 6-31G*
  Basis Set:
  Charge       = 0
  Multiplicity = 1
  Basis Set: 6-31G*
  Basis Set:

    Orbital Energies (a.u.)
    -----------------------

    Doubly Occupied:

       1A    -20.561684     2A    -11.326383     3A    -11.235456
       4A    -11.234369     5A    -11.224899     6A    -11.219889
       7A    -11.218574     8A    -11.217700     9A    -11.211212
      10A     -1.401922    11A     -1.102751    12A     -1.068654
      13A     -1.013815    14A     -0.944270    15A     -0.874986
      16A     -0.813527    17A     -0.795708    18A     -0.780880
      19A     -0.671485    20A     -0.656514    21A     -0.632828
      22A     -0.624298    23A     -0.610525    24A     -0.587196
      25A     -0.569202    26A     -0.558083    27A     -0.527332
      28A     -0.523659    29A     -0.515470    30A     -0.493153
      31A     -0.488265    32A     -0.479809    33A     -0.465181
      34A     -0.459376    35A     -0.444193    36A     -0.408856

  @DF-RHF Final Energy:  -387.11750087279688

   => Energetics <=

    Nuclear Repulsion Energy =            433.5020945738242517
    One-Electron Energy =               -1383.3149758137392382
    Two-Electron Energy =                 562.6953803671175365
    DFT Exchange-Correlation Energy =       0.0000000000000000
    Empirical Dispersion Energy =           0.0000000000000000
    PCM Polarization Energy =               0.0000000000000000
    EFP Energy =                            0.0000000000000000
    Total Energy =                       -387.1175008727974500
    Molecular point group: c1
  Basis Set: 6-31G*
  Basis Set:

  -Total Gradient:
     Atom            X                  Y                   Z
    ------   -----------------  -----------------  -----------------
       1       -0.000005006112     0.000002255840    -0.000003262315
       2        0.000025696954     0.000008461111    -0.000010004283
       3       -0.000018930246     0.000085379781    -0.000185057107
       4       -0.000003100608    -0.000013902531     0.000014907523
       5       -0.000009948529    -0.000073754703     0.000148005820
       6       -0.000018283264    -0.000057196859     0.000101215170
       7        0.000017966644     0.000006250759     0.000010319398
       8        0.000019768412     0.000031527185    -0.000064299560
       9       -0.000002816244    -0.000001524821    -0.000002270302
      10       -0.000000954173     0.000000132135    -0.000001165217
      11       -0.000002272151     0.000003153399    -0.000009697565
      12       -0.000000642688     0.000004874011     0.000003128396
      13       -0.000002524708    -0.000001154318    -0.000001228493
      14       -0.000003035586     0.000002229515     0.000003518813
      15       -0.000003796156    -0.000002991048    -0.000004039710
      16        0.000005432183     0.000002727212    -0.000001901245
      17       -0.000003396864    -0.000002166231     0.000008066538
      18        0.000004586012     0.000006608898     0.000000181020
      19       -0.000004344028    -0.000000970028    -0.000004882210
      20        0.000001142905     0.000002656241    -0.000001173288
      21       -0.000004320082    -0.000002185327     0.000000834485
      22        0.000002858362     0.000000798575     0.000001273365
      23        0.000002991121     0.000000102628    -0.000001555772
      24        0.000004238885    -0.000001779220    -0.000002303056
      25       -0.000001310045     0.000000467796     0.000001389593

  **** Optimization is complete! (in 10 steps) ****
    Final optimized geometry and variables:
    Molecular point group: c1

    Geometry (in Angstrom), charge = 0, multiplicity = 1:

    H           -3.479582702462     1.413782983546     1.392975519092
    C           -3.540726023004     0.586762804199     0.675291106891
    C           -2.559925463878     0.654903327669    -0.468156539719
    O           -4.341446463711    -0.277678273523     0.827289354117
    C           -1.106824223196     0.904969774937     0.003276787623
    H           -2.646952249357    -0.267425033051    -1.029687036327
    H           -2.887609374109     1.461513309540    -1.120474277850
    C           -0.141626758174    -0.200761427515    -0.431081646730
    H           -0.753446018639     1.858638801211    -0.376072542194
    H           -1.076807021872     0.989363224240     1.088063314419
    C            1.293279466128     0.035962581975     0.042524856338
    H           -0.156051173081    -0.280928352059    -1.516295730023
    H           -0.498060286394    -1.155396085021    -0.049550890802
    C            2.254287443564    -1.070063774430    -0.401930843081
    H            1.634682396520     0.998226869810    -0.330745496310
    H            1.306156533272     0.106495318828     1.129228609334
    C            3.685379713221    -0.925501659463     0.128210996207
    H            2.277899221509    -1.110677507969    -1.489809813214
    H            1.858989492210    -2.028252163272    -0.071347053663
    C            4.441120589333     0.292853455330    -0.405383864868
    H            4.240855819128    -1.822422866434    -0.134185066007
    H            3.663957010082    -0.890039264144     1.215526133123
    H            4.468074077253     0.290287169751    -1.491819855908
    H            3.986050644268     1.225169570708    -0.087745681398
    H            5.467135251079     0.295125190239    -0.050623794602

  Mulliken Charges: (a.u.)
   Center  Symbol    Alpha    Beta     Spin     Total
       1     H     0.43167  0.43167  0.00000  0.13667
       2     C     2.83293  2.83293  0.00000  0.33415
       3     C     3.21092  3.21092  0.00000 -0.42184
       4     O     4.23756  4.23756  0.00000 -0.47512
       5     C     3.16726  3.16726  0.00000 -0.33453
       6     H     0.39679  0.39679  0.00000  0.20642
       7     H     0.40503  0.40503  0.00000  0.18994
       8     C     3.15323  3.15323  0.00000 -0.30646
       9     H     0.41461  0.41461  0.00000  0.17078
      10     H     0.41703  0.41703  0.00000  0.16593
      11     C     3.15532  3.15532  0.00000 -0.31063
      12     H     0.42006  0.42006  0.00000  0.15988
      13     H     0.41770  0.41770  0.00000  0.16461
      14     C     3.15302  3.15302  0.00000 -0.30604
      15     H     0.42111  0.42111  0.00000  0.15779
      16     H     0.42301  0.42301  0.00000  0.15399
      17     C     3.15269  3.15269  0.00000 -0.30538
      18     H     0.42365  0.42365  0.00000  0.15269
      19     H     0.42089  0.42089  0.00000  0.15822
      20     C     3.24137  3.24137  0.00000 -0.48274
      21     H     0.42007  0.42007  0.00000  0.15986
      22     H     0.42288  0.42288  0.00000  0.15423
      23     H     0.42210  0.42210  0.00000  0.15580
      24     H     0.42056  0.42056  0.00000  0.15887
      25     H     0.41853  0.41853  0.00000  0.16293

   Total alpha = 36.00000, Total beta = 36.00000, Total charge =  0.00000
