                              Psi4 1.0.54 Driver

  ==> Input File <==

--------------------------------------------------------------------------
set {
	reference rhf
	basis cc-pvtz
}

set_num_threads( 4 )
memory 2 gb

molecule MOL {
0 1

H	 -3.162190	 0.493205	 -0.000107
C	 -2.363908	 -0.234727	 0.000005
O	 -1.158738	 0.454634	 -0.000087
H	 -2.464314	 -0.863616	 -0.882153
H	 -2.464327	 -0.863359	 0.882345
C	 -1.135785	 1.576024	 0.825912
C	 0.226094	 2.234496	 0.735941
H	 -1.345671	 1.286165	 1.855751
H	 -1.913344	 2.278325	 0.524554
C	 0.332214	 3.475286	 1.615446
H	 0.980036	 1.509031	 1.020892
H	 0.416844	 2.493345	 -0.299705
H	 0.168495	 3.234312	 2.660537
H	 1.313975	 3.924981	 1.532136
H	 -0.398248	 4.225314	 1.330928

	symmetry c1
}
set optking {
	frozen_dihedral = ("
		6 3 2 4
	")
}

ee,wfn = optimize('scf', return_wfn=True)
oeprop( wfn, 'DIPOLE', 'QUADRUPOLE', 'MULLIKEN_CHARGES')
f=open( 'psi4out.xyz', 'w' )
f.write( "15  " )
f.write( str(ee) + "\n" )
f.write( MOL.save_string_xyz() )
f.close()
--------------------------------------------------------------------------

    Molecular point group: c1
  Charge       = 0
  Multiplicity = 1
  Basis Set: CC-PVTZ
  Basis Set:
  @DF-RHF Final Energy:  -232.22633879659298
    Total Energy =                       -232.2263387965928132
    Molecular point group: c1
  Basis Set: CC-PVTZ
  Basis Set:
  Basis Set: CC-PVTZ
  Basis Set:
  @DF-RHF Final Energy:  -232.22712795597292
    Total Energy =                       -232.2271279559728328
  Basis Set: CC-PVTZ
  Basis Set:
  Basis Set: CC-PVTZ
  Basis Set:
  @DF-RHF Final Energy:  -232.22733716754294
    Total Energy =                       -232.2273371675428848
  Basis Set: CC-PVTZ
  Basis Set:
  Charge       = 0
  Multiplicity = 1
  Basis Set: CC-PVTZ
  Basis Set:

    Orbital Energies (a.u.)
    -----------------------

    Doubly Occupied:

       1A    -20.546728     2A    -11.264538     3A    -11.261624
       4A    -11.212638     5A    -11.210666     6A     -1.380783
       7A     -1.058385     8A     -0.956145     9A     -0.877366
      10A     -0.809505    11A     -0.676418    12A     -0.655427
      13A     -0.631913    14A     -0.608815    15A     -0.564628
      16A     -0.542424    17A     -0.503517    18A     -0.489630
      19A     -0.478627    20A     -0.462715    21A     -0.415656

  @DF-RHF Final Energy:  -232.22733804914844

   => Energetics <=

    Nuclear Repulsion Energy =            189.9387271423399284
    One-Electron Energy =                -691.1158347924665577
    Two-Electron Energy =                 268.9497696009781293
    DFT Exchange-Correlation Energy =       0.0000000000000000
    Empirical Dispersion Energy =           0.0000000000000000
    PCM Polarization Energy =               0.0000000000000000
    EFP Energy =                            0.0000000000000000
    Total Energy =                       -232.2273380491485000
    Molecular point group: c1
  Basis Set: CC-PVTZ
  Basis Set:

  -Total Gradient:
     Atom            X                  Y                   Z
    ------   -----------------  -----------------  -----------------
       1        0.000008259741     0.000023412476     0.000006150153
       2        0.001083389486    -0.001675089082     0.000844451218
       3        0.000663494714    -0.001172010351     0.001780268367
       4       -0.001021008480     0.001836819187    -0.001148109770
       5        0.000033059385     0.000004089706     0.000009773404
       6       -0.000750632786     0.001107694821    -0.001365927744
       7        0.000024172279    -0.000058538024    -0.000069392620
       8       -0.000005931128    -0.000015638528    -0.000007159393
       9       -0.000006123418    -0.000025654278    -0.000029909156
      10       -0.000047616350    -0.000021214581     0.000004571415
      11        0.000005342960    -0.000001131544    -0.000001637262
      12        0.000020457716     0.000009880929    -0.000009742181
      13       -0.000000651165     0.000000127767     0.000000626317
      14       -0.000005001160    -0.000020228862    -0.000015107335
      15       -0.000001211792     0.000007480362     0.000001144587

  **** Optimization is complete! (in 4 steps) ****
    Final optimized geometry and variables:
    Molecular point group: c1

    Geometry (in Angstrom), charge = 0, multiplicity = 1:

    H           -2.361655769992    -1.063619123257    -0.647426036814
    C           -1.501754607635    -1.729767729936    -0.643977871644
    O           -0.308056645387    -1.018557376260    -0.641511981374
    H           -1.537724979383    -2.322042611336    -1.547431879552
    H           -1.579159727586    -2.384169422687     0.220813406415
    C           -0.290474906262     0.093910353522     0.196824769160
    C            1.068584130907     0.758920238502     0.112534629671
    H           -0.498074466744    -0.204240389081     1.225077936552
    H           -1.071123575991     0.794338219597    -0.099211475046
    C            1.166308914537     1.997131827205     0.996731117918
    H            1.825753690894     0.036430058730     0.396636433384
    H            1.260328732175     1.022314347787    -0.921882771425
    H            1.001139942450     1.751677676999     2.040596004400
    H            2.146078394397     2.452039161498     0.917485408892
    H            0.432801438613     2.744550534090     0.712941816810

  Mulliken Charges: (a.u.)
   Center  Symbol    Alpha    Beta     Spin     Total
       1     H     0.47489  0.47489  0.00000  0.05022
       2     C     3.03227  3.03227  0.00000 -0.06454
       3     O     4.17275  4.17275  0.00000 -0.34550
       4     H     0.44875  0.44875  0.00000  0.10249
       5     H     0.46721  0.46721  0.00000  0.06558
       6     C     2.95606  2.95606  0.00000  0.08787
       7     C     3.08071  3.08071  0.00000 -0.16141
       8     H     0.47693  0.47693  0.00000  0.04613
       9     H     0.47442  0.47442  0.00000  0.05116
      10     C     3.15582  3.15582  0.00000 -0.31163
      11     H     0.45100  0.45100  0.00000  0.09801
      12     H     0.45119  0.45119  0.00000  0.09763
      13     H     0.45583  0.45583  0.00000  0.08834
      14     H     0.44627  0.44627  0.00000  0.10746
      15     H     0.45591  0.45591  0.00000  0.08819

   Total alpha = 21.00000, Total beta = 21.00000, Total charge =  0.00000

*** Psi4 exiting successfully. Buy a developer a beer!
