  ==> Input File <==

--------------------------------------------------------------------------
set {
	reference rhf
	basis 6-31G*
}

set_num_threads( 4 )
memory 2 gb

molecule MOL {
0 1

H	 -1.186468	 2.073113	 -0.318322
C	 -0.639051	 1.506674	 0.427883
N	 -0.528168	 0.128977	 -0.000000
H	 -1.197795	 1.556359	 1.355447
H	 0.323909	 2.001354	 0.580409
C	 0.248044	 -0.037491	 -1.209632
H	 -0.131877	 -0.422515	 0.734737
H	 0.998722	 0.743888	 -1.266824
H	 -0.398417	 0.061950	 -2.074060
H	 0.763621	 -0.999315	 -1.275517

	symmetry c1
}
set optking {
	frozen_dihedral = ("
		2 3 6 8
	")
}

ee = optimize('scf')
oeprop('DIPOLE', 'QUADRUPOLE', 'MULLIKEN_CHARGES')
f=open( 'psi4out.xyz', 'w' )
f.write( "10  " )
f.write( str(ee) + "\n" )
f.write( MOL.save_string_xyz() )
f.close()
--------------------------------------------------------------------------

    Molecular point group: c1
  Charge       = 0
  Multiplicity = 1
  Basis Set: 6-31G*
  Basis Set:
  @DF-RHF Final Energy:  -134.23549647943275
    Total Energy =                       -134.2354964794328112
    Molecular point group: c1
  Basis Set: 6-31G*
  Basis Set:
  Basis Set: 6-31G*
  Basis Set:
  @DF-RHF Final Energy:  -134.23645251016711
    Total Energy =                       -134.2364525101671404
  Basis Set: 6-31G*
  Basis Set:
  Basis Set: 6-31G*
  Basis Set:
  @DF-RHF Final Energy:  -134.23661976784030
    Total Energy =                       -134.2366197678402955
  Basis Set: 6-31G*
  Basis Set:
  Charge       = 0
  Multiplicity = 1
  Basis Set: 6-31G*
  Basis Set:

    Orbital Energies (a.u.)
    -----------------------

    Doubly Occupied:

       1A    -15.537844     2A    -11.236151     3A    -11.235947
       4A     -1.198420     5A     -0.947888     6A     -0.854200
       7A     -0.660625     8A     -0.612837     9A     -0.590876
      10A     -0.541100    11A     -0.509041    12A     -0.505880
      13A     -0.361538

  @DF-RHF Final Energy:  -134.23662163880709

   => Energetics <=

    Nuclear Repulsion Energy =             84.5581903058816948
    One-Electron Energy =                -348.0049327765354974
    Two-Electron Energy =                 129.2101208318466945
    DFT Exchange-Correlation Energy =       0.0000000000000000
    Empirical Dispersion Energy =           0.0000000000000000
    PCM Polarization Energy =               0.0000000000000000
    EFP Energy =                            0.0000000000000000
    Total Energy =                       -134.2366216388071223
    Molecular point group: c1
  Basis Set: 6-31G*
  Basis Set:

  -Total Gradient:
     Atom            X                  Y                   Z
    ------   -----------------  -----------------  -----------------
       1       -0.000016818607     0.000009808060    -0.000004805304
       2        0.002705284063    -0.000455865715     0.001626526111
       3       -0.004439405494     0.001279289924    -0.003028467022
       4        0.000014164741    -0.000068927453    -0.000015062147
       5        0.000012817138     0.000012282876     0.000018801880
       6        0.004439695855    -0.003239590251     0.003470475388
       7       -0.000035619069     0.000005973104    -0.000023530247
       8       -0.002690600575     0.002473251746    -0.002078961252
       9        0.000011629938    -0.000018587517    -0.000009303918
      10       -0.000001147991     0.000002365226     0.000044326511

  **** Optimization is complete! (in 4 steps) ****
    Final optimized geometry and variables:
    Molecular point group: c1

    Geometry (in Angstrom), charge = 0, multiplicity = 1:

    H           -0.907744383012     1.532477990084    -0.045559535446
    C           -0.361430840650     0.958360131820     0.695923577894
    N           -0.240314182363    -0.414839140234     0.255312642675
    H           -0.925899369267     0.994893747095     1.620625833597
    H            0.599169459285     1.453723486293     0.857518788928
    C            0.544460048843    -0.572430975040    -0.955977705909
    H            0.167728684455    -0.956018124341     0.990464616640
    H            1.319286789462     0.188055096040    -1.068005060757
    H           -0.099380757745    -0.492466577973    -1.827266568211
    H            1.006551574958    -1.551937651599    -0.978761409244

  Mulliken Charges: (a.u.)
   Center  Symbol    Alpha    Beta     Spin     Total
       1     H     0.41787  0.41787  0.00000  0.16426
       2     C     3.14604  3.14604  0.00000 -0.29207
       3     N     3.83890  3.83890  0.00000 -0.67781
       4     H     0.41696  0.41696  0.00000  0.16608
       5     H     0.43404  0.43404  0.00000  0.13193
       6     C     3.14534  3.14534  0.00000 -0.29069
       7     H     0.33227  0.33227  0.00000  0.33547
       8     H     0.43187  0.43187  0.00000  0.13626
       9     H     0.41713  0.41713  0.00000  0.16574
      10     H     0.41958  0.41958  0.00000  0.16083

   Total alpha = 13.00000, Total beta = 13.00000, Total charge = -0.00000
