  ==> Input File <==

--------------------------------------------------------------------------
set {
	reference rhf
	basis 6-31G*
}

set_num_threads( 4 )
memory 2 gb

molecule MOL {
0 1

H	 -0.367348	 2.047014	 -0.308205
C	 0.352277	 1.337084	 0.083769
N	 -0.000016	 0.000074	 -0.335546
H	 1.328359	 1.600444	 -0.307950
H	 0.381933	 1.450534	 1.172486
C	 0.615837	 -0.350634	 -1.594910
C	 0.275887	 -0.978382	 0.691420
H	 0.273296	 -1.329192	 -1.911835
H	 0.329600	 0.365974	 -2.356491
H	 1.709387	 -0.373871	 -1.545008
H	 -0.258527	 -0.720184	 1.598674
H	 -0.065741	 -1.955720	 0.369646
H	 1.340602	 -1.054595	 0.935350

	symmetry c1
}
set optking {
	frozen_dihedral = ("
		6 3 2 1
	")
}

ee = optimize('scf')
oeprop('DIPOLE', 'QUADRUPOLE', 'MULLIKEN_CHARGES')
f=open( 'psi4out.xyz', 'w' )
f.write( "13  " )
f.write( str(ee) + "\n" )
f.write( MOL.save_string_xyz() )
f.close()
--------------------------------------------------------------------------

    Molecular point group: c1
  Charge       = 0
  Multiplicity = 1
  Basis Set: 6-31G*
  Basis Set:
  @DF-RHF Final Energy:  -173.26413118563275
    Total Energy =                       -173.2641311856327775
    Molecular point group: c1
  Basis Set: 6-31G*
  Basis Set:
  Basis Set: 6-31G*
  Basis Set:
  @DF-RHF Final Energy:  -173.26520368915374
    Total Energy =                       -173.2652036891537648
  Basis Set: 6-31G*
  Basis Set:
  Basis Set: 6-31G*
  Basis Set:
  @DF-RHF Final Energy:  -173.26534569840618
    Total Energy =                       -173.2653456984062075
  Basis Set: 6-31G*
  Basis Set:
  Basis Set: 6-31G*
  Basis Set:
  @DF-RHF Final Energy:  -173.26535154748939
    Total Energy =                       -173.2653515474893879
  Basis Set: 6-31G*
  Basis Set:
  Charge       = 0
  Multiplicity = 1
  Basis Set: 6-31G*
  Basis Set:

    Orbital Energies (a.u.)
    -----------------------

    Doubly Occupied:

       1A    -15.543115     2A    -11.235546     3A    -11.235376
       4A    -11.235346     5A     -1.222578     6A     -0.951339
       7A     -0.949943     8A     -0.807446     9A     -0.640456
      10A     -0.629512    11A     -0.626419    12A     -0.551467
      13A     -0.544072    14A     -0.514275    15A     -0.500348
      16A     -0.497048    17A     -0.346611

  @DF-RHF Final Energy:  -173.26535206197497

   => Energetics <=

    Nuclear Repulsion Energy =            139.0992573663339158
    One-Electron Energy =                -508.6674271927186055
    Two-Electron Energy =                 196.3028177644097525
    DFT Exchange-Correlation Energy =       0.0000000000000000
    Empirical Dispersion Energy =           0.0000000000000000
    PCM Polarization Energy =               0.0000000000000000
    EFP Energy =                            0.0000000000000000
    Total Energy =                       -173.2653520619749372
    Molecular point group: c1
  Basis Set: 6-31G*
  Basis Set:

  -Total Gradient:
     Atom            X                  Y                   Z
    ------   -----------------  -----------------  -----------------
       1       -0.003115773102    -0.000544040070     0.004679782525
       2        0.005179631737     0.000073501062    -0.005188432913
       3       -0.005386296659     0.001953999845    -0.001620988046
       4       -0.000011113597     0.000001285371     0.000007505016
       5       -0.000005885543     0.000008813205     0.000030967875
       6        0.003335627167    -0.001499456399     0.002112069330
       7       -0.000044650948     0.000041799568    -0.000037099644
       8        0.000001306020    -0.000004360319    -0.000004349380
       9        0.000010483060    -0.000004447421    -0.000019643540
      10        0.000015095630    -0.000001798648     0.000004565879
      11        0.000004748069    -0.000012923810     0.000020504347
      12        0.000003600292    -0.000010711192     0.000011448966
      13        0.000013227875    -0.000001661193     0.000003669584

  **** Optimization is complete! (in 5 steps) ****
    Final optimized geometry and variables:
    Molecular point group: c1

    Geometry (in Angstrom), charge = 0, multiplicity = 1:

    H           -0.684834701056     2.067151088253    -0.038129295668
    C            0.027031384680     1.348368713128     0.355220626694
    N           -0.340120572693    -0.000050507106    -0.043704313232
    H            1.034975398292     1.627272590046     0.046242684478
    H           -0.019424058657     1.437283383739     1.434639086144
    C            0.269583456274    -0.365543932250    -1.303391460754
    C           -0.040883708164    -0.982085087724     0.977642945008
    H           -0.095620806081    -1.334302627109    -1.625215620634
    H            0.004361224021     0.359037312573    -2.065756951917
    H            1.361551729955    -0.412649437584    -1.247267167488
    H           -0.569737931943    -0.738650630566     1.891647956470
    H           -0.377114686419    -1.959683820473     0.650866125090
    H            1.026651415145    -1.053563495130     1.209296843809

  Mulliken Charges: (a.u.)
   Center  Symbol    Alpha    Beta     Spin     Total
       1     H     0.41486  0.41486  0.00000  0.17028
       2     C     3.14468  3.14468  0.00000 -0.28935
       3     N     3.76635  3.76635  0.00000 -0.53269
       4     H     0.42974  0.42974  0.00000  0.14053
       5     H     0.41968  0.41968  0.00000  0.16063
       6     C     3.14426  3.14426  0.00000 -0.28852
       7     C     3.14346  3.14346  0.00000 -0.28693
       8     H     0.41691  0.41691  0.00000  0.16618
       9     H     0.41629  0.41629  0.00000  0.16743
      10     H     0.43476  0.43476  0.00000  0.13048
      11     H     0.41623  0.41623  0.00000  0.16755
      12     H     0.41745  0.41745  0.00000  0.16509
      13     H     0.43533  0.43533  0.00000  0.12933

   Total alpha = 17.00000, Total beta = 17.00000, Total charge =  0.00000
