                              Psi4 1.0.54 Driver

  ==> Input File <==

--------------------------------------------------------------------------
set {
	reference rhf
	basis cc-pvtz
}

set_num_threads( 4 )
memory 2 gb

molecule MOL {
0 1

H	 -3.268214	 -0.875720	 0.463107
C	 -2.806015	 0.000007	 0.024886
N	 -1.391133	 0.000016	 0.301321
H	 -3.029448	 0.000055	 -1.045738
H	 -3.268126	 0.875758	 0.463150
C	 -0.594339	 0.000087	 -0.906443
C	 -1.001135	 -1.085181	 1.175267
H	 -0.774744	 -0.898844	 -1.503292
H	 -0.873465	 0.855165	 -1.510607
C	 0.883679	 0.083729	 -0.574055
H	 -1.577230	 -1.022393	 2.090833
H	 -1.209268	 -2.058092	 0.720326
C	 0.476882	 -1.001538	 1.507655
H	 1.459774	 0.020942	 -1.489622
H	 1.091811	 1.056641	 -0.119114
N	 1.273677	 -1.001468	 0.299891
H	 0.756009	 -1.856617	 2.111819
H	 0.657288	 -0.102608	 2.104503
C	 2.688559	 -1.001459	 0.576326
H	 3.246095	 -1.064337	 -0.349829
H	 2.947015	 -1.862168	 1.180429
H	 3.017211	 -0.104202	 1.108374

	symmetry c1
}
set optking {
	frozen_dihedral = ("
		6 3 2 4
	")
}

ee,wfn = optimize('scf', return_wfn=True)
oeprop( wfn, 'DIPOLE', 'QUADRUPOLE', 'MULLIKEN_CHARGES')
f=open( 'psi4out.xyz', 'w' )
f.write( "22  " )
f.write( str(ee) + "\n" )
f.write( MOL.save_string_xyz() )
f.close()
--------------------------------------------------------------------------

    Molecular point group: c1
  Charge       = 0
  Multiplicity = 1
  Basis Set: CC-PVTZ
  Basis Set:
  @DF-RHF Final Energy:  -344.34386578727049
    Total Energy =                       -344.3438657872710564
    Molecular point group: c1
  Basis Set: CC-PVTZ
  Basis Set:
  Basis Set: CC-PVTZ
  Basis Set:
  @DF-RHF Final Energy:  -344.34452116265919
    Total Energy =                       -344.3445211626592481
  Basis Set: CC-PVTZ
  Basis Set:
  Basis Set: CC-PVTZ
  Basis Set:
  @DF-RHF Final Energy:  -344.34465316341425
    Total Energy =                       -344.3446531634140229
  Basis Set: CC-PVTZ
  Basis Set:
  Basis Set: CC-PVTZ
  Basis Set:
  @DF-RHF Final Energy:  -344.34466254963866
    Total Energy =                       -344.3446625496383149
  Basis Set: CC-PVTZ
  Basis Set:
  Charge       = 0
  Multiplicity = 1
  Basis Set: CC-PVTZ
  Basis Set:

    Orbital Energies (a.u.)
    -----------------------

    Doubly Occupied:

       1A    -15.537077     2A    -15.533682     3A    -11.237292
       4A    -11.237255     5A    -11.236266     6A    -11.236244
       7A    -11.234037     8A    -11.233858     9A     -1.254989
      10A     -1.203130    11A     -1.025557    12A     -0.991760
      13A     -0.912699    14A     -0.867696    15A     -0.836589
      16A     -0.754225    17A     -0.665865    18A     -0.636100
      19A     -0.631593    20A     -0.624758    21A     -0.620848
      22A     -0.580392    23A     -0.552162    24A     -0.549914
      25A     -0.542594    26A     -0.519875    27A     -0.497814
      28A     -0.487504    29A     -0.466169    30A     -0.456504
      31A     -0.350924    32A     -0.341391

  @DF-RHF Final Energy:  -344.34466351185461

   => Energetics <=

    Nuclear Repulsion Energy =            421.3779336618293883
    One-Electron Energy =               -1301.7316620482044982
    Two-Electron Energy =                 536.0090648745205044
    DFT Exchange-Correlation Energy =       0.0000000000000000
    Empirical Dispersion Energy =           0.0000000000000000
    PCM Polarization Energy =               0.0000000000000000
    EFP Energy =                            0.0000000000000000
    Total Energy =                       -344.3446635118546055
    Molecular point group: c1
  Basis Set: CC-PVTZ
  Basis Set:

  -Total Gradient:
     Atom            X                  Y                   Z
    ------   -----------------  -----------------  -----------------
       1        0.000000903679    -0.000002258690    -0.000001369001
       2       -0.000041495320     0.002113089505     0.000020579279
       3        0.000016592658    -0.001734292170    -0.000031166478
       4       -0.000027744386    -0.001328818837    -0.000033776825
       5        0.000036093669    -0.000034172123     0.000006568579
       6        0.000013503969     0.000993429895    -0.000005196236
       7       -0.000013101842     0.000004329976     0.000025201073
       8       -0.000008072800     0.000002400125     0.000006688769
       9        0.000006788758    -0.000001697131     0.000003047118
      10        0.000010032267     0.000008554318     0.000010769082
      11        0.000004877145    -0.000004200713     0.000000282660
      12        0.000007027791     0.000008428970     0.000002296944
      13        0.000001002756    -0.000029872243     0.000005185169
      14        0.000003209191    -0.000001129563     0.000000106783
      15       -0.000002556942     0.000008007948    -0.000004161848
      16       -0.000016799289     0.000011574413    -0.000000072929
      17        0.000013093526    -0.000002691851     0.000006588676
      18       -0.000014431862    -0.000004545002    -0.000003426756
      19        0.000002903693    -0.000009773240    -0.000009716794
      20        0.000006551731     0.000001104786     0.000002322592
      21        0.000004083632     0.000001912351     0.000000031036
      22       -0.000002462032     0.000000619276    -0.000000780890

  **** Optimization is complete! (in 5 steps) ****
    Final optimized geometry and variables:
    Molecular point group: c1

    Geometry (in Angstrom), charge = 0, multiplicity = 1:

    H           -3.272010186832    -0.358481034026     0.053321237700
    C           -2.759523410870     0.520926119137    -0.325985842486
    N           -1.334419215199     0.467729099580    -0.051858945633
    H           -2.952946469872     0.555292885391    -1.392058592287
    H           -3.217277743786     1.392821404986     0.128422169656
    C           -0.505401239710     0.472249788021    -1.236124745264
    C           -0.956383228129    -0.586678046125     0.861245080879
    H           -0.655126949056    -0.428763038135    -1.838797931768
    H           -0.772568620892     1.324249378444    -1.849429590792
    C            0.961484108946     0.574817182196    -0.861508579537
    H           -1.551065730509    -0.501440910236     1.763051860152
    H           -1.145977953641    -1.575930719770     0.433831436373
    C            0.512611475638    -0.480587106607     1.225887637428
    H            1.564611028084     0.506891809194    -1.759300081961
    H            1.146003935688     1.555635005732    -0.412944381661
    N            1.337700318937    -0.494458992025     0.037540166606
    H            0.786416049166    -1.320871047641     1.853086792811
    H            0.669491199694     0.431826926926     1.809048977346
    C            2.745417326365    -0.480129130879     0.347458057778
    H            3.325458118615    -0.553500197797    -0.564056097687
    H            2.995324620214    -1.329334401112     0.971225553798
    H            3.055452272122     0.427731975255     0.872911713192

  Mulliken Charges: (a.u.)
   Center  Symbol    Alpha    Beta     Spin     Total
       1     H     0.46231  0.46231  0.00000  0.07538
       2     C     3.09208  3.09208  0.00000 -0.18416
       3     N     3.61539  3.61539  0.00000 -0.23078
       4     H     0.45997  0.45997  0.00000  0.08006
       5     H     0.44996  0.44996  0.00000  0.10008
       6     C     3.03551  3.03551  0.00000 -0.07102
       7     C     3.03552  3.03552  0.00000 -0.07103
       8     H     0.46860  0.46860  0.00000  0.06279
       9     H     0.45344  0.45344  0.00000  0.09313
      10     C     3.03703  3.03703  0.00000 -0.07405
      11     H     0.45335  0.45335  0.00000  0.09330
      12     H     0.46848  0.46848  0.00000  0.06303
      13     C     3.03727  3.03727  0.00000 -0.07454
      14     H     0.45412  0.45412  0.00000  0.09176
      15     H     0.46876  0.46876  0.00000  0.06248
      16     N     3.61295  3.61295  0.00000 -0.22590
      17     H     0.45412  0.45412  0.00000  0.09176
      18     H     0.46872  0.46872  0.00000  0.06255
      19     C     3.09824  3.09824  0.00000 -0.19648
      20     H     0.45198  0.45198  0.00000  0.09603
      21     H     0.45198  0.45198  0.00000  0.09604
      22     H     0.47021  0.47021  0.00000  0.05958

   Total alpha = 32.00000, Total beta = 32.00000, Total charge = -0.00000

*** Psi4 exiting successfully. Buy a developer a beer!
