  ==> Input File <==

--------------------------------------------------------------------------
set {
	reference rhf
	basis cc-pvtz
}

set_num_threads( 4 )
memory 2 gb

molecule MOL {
0 1

H	 -2.517776	 0.339230	 0.919669
C	 -1.527938	 -0.096746	 0.953092
C	 -0.600949	 0.658697	 -0.000002
H	 -1.602668	 -1.139170	 0.674069
H	 -1.163547	 -0.042832	 1.970145
C	 0.763408	 0.112229	 -0.000006
H	 -0.973425	 0.613447	 -1.014963
H	 -0.536778	 1.703610	 0.273812
N	 1.806008	 -0.317179	 0.000007

	symmetry c1
}
set optking {
	frozen_dihedral = ("
		7 3 6 9
	")
}

ee = optimize('scf')
oeprop('DIPOLE', 'QUADRUPOLE', 'MULLIKEN_CHARGES')
f=open( 'psi4out.xyz', 'w' )
f.write( "9  " )
f.write( str(ee) + "\n" )
f.write( MOL.save_string_xyz() )
f.close()
--------------------------------------------------------------------------

    Molecular point group: c1
  Charge       = 0
  Multiplicity = 1
  Basis Set: CC-PVTZ
  Basis Set:
  @DF-RHF Final Energy:  -171.02345923340459
    Total Energy =                       -171.0234592334045374
    Molecular point group: c1
  Basis Set: CC-PVTZ
  Basis Set:
  Basis Set: CC-PVTZ
  Basis Set:
  @DF-RHF Final Energy:  -170.67294545510347
    Total Energy =                       -170.6729454551034451
  Basis Set: CC-PVTZ
  Basis Set:
  Basis Set: CC-PVTZ
  Basis Set:
  @DF-RHF Final Energy:  -170.70579345056262
    Total Energy =                       -170.7057934505626520
  Basis Set: CC-PVTZ
  Basis Set:
  Basis Set: CC-PVTZ
  Basis Set:
  @DF-RHF Final Energy:  -170.70051702390066
    Total Energy =                       -170.7005170239006020
  Basis Set: CC-PVTZ
  Basis Set:
  @DF-RHF Final Energy:  -170.85619175858653
    Total Energy =                       -170.8561917585864762
  @DF-RHF Final Energy:  -170.95801720969803
    Total Energy =                       -170.9580172096979993
  @DF-RHF Final Energy:  -170.97758281165520
    Total Energy =                       -170.9775828116552248
  @DF-RHF Final Energy:  -171.02196267804686
    Total Energy =                       -171.0219626780468047
  @DF-RHF Final Energy:  -171.02145038029346
    Total Energy =                       -171.0214503802934871
  @DF-RHF Final Energy:  -171.01783606963252
    Total Energy =                       -171.0178360696325512
  @DF-RHF Final Energy:  -171.02335939532907
    Total Energy =                       -171.0233593953290665
  @DF-RHF Final Energy:  -171.02275804747052
    Total Energy =                       -171.0227580474704894
  @DF-RHF Final Energy:  -171.02336442979046
    Total Energy =                       -171.0233644297906039
  @DF-RHF Final Energy:  -171.01713247707062
    Total Energy =                       -171.0171324770706747
  @DF-RHF Final Energy:  -171.02038934652722
    Total Energy =                       -171.0203893465273381
  @DF-RHF Final Energy:  -171.02129868617089
    Total Energy =                       -171.0212986861708941
  @DF-RHF Final Energy:  -171.02222125037144
    Total Energy =                       -171.0222212503716150
  @DF-RHF Final Energy:  -171.02252294963867
    Total Energy =                       -171.0225229496385282
  @DF-RHF Final Energy:  -171.02313772450503
    Total Energy =                       -171.0231377245050908
  @DF-RHF Final Energy:  -171.02282509159758
    Total Energy =                       -171.0228250915976105
  @DF-RHF Final Energy:  -171.02333004179542
    Total Energy =                       -171.0233300417954467
  @DF-RHF Final Energy:  -171.02335529087020
    Total Energy =                       -171.0233552908702279
  @DF-RHF Final Energy:  -171.02336540865309
    Total Energy =                       -171.0233654086531203
  @DF-RHF Final Energy:  -171.02338603547213
    Total Energy =                       -171.0233860354720434
  @DF-RHF Final Energy:  -171.02336090600875
    Total Energy =                       -171.0233609060087474
  @DF-RHF Final Energy:  -171.02335007732637
    Total Energy =                       -171.0233500773263984
  @DF-RHF Final Energy:  -171.02338111715187
    Total Energy =                       -171.0233811171518710
  @DF-RHF Final Energy:  -171.02337344184701
    Total Energy =                       -171.0233734418470135
  @DF-RHF Final Energy:  -171.02327294700365
    Total Energy =                       -171.0232729470036759
  @DF-RHF Final Energy:  -171.02335072050374
    Total Energy =                       -171.0233507205036858
  @DF-RHF Final Energy:  -171.02340463965317
    Total Energy =                       -171.0234046396532506
  @DF-RHF Final Energy:  -171.02341823472312
    Total Energy =                       -171.0234182347231240
  @DF-RHF Final Energy:  -171.02345555321779
    Total Energy =                       -171.0234555532177865
  @DF-RHF Final Energy:  -171.02344730203953
    Total Energy =                       -171.0234473020395853
  @DF-RHF Final Energy:  -171.02058762509628
    Total Energy =                       -171.0205876250963115
  @DF-RHF Final Energy:  -171.02065359701572
    Total Energy =                       -171.0206535970157802
  Basis Set: CC-PVTZ
  Basis Set:
  @DF-RHF Final Energy:  -171.02207889604205
    Total Energy =                       -171.0220788960419895
  Basis Set: CC-PVTZ
  Basis Set:
  Basis Set: CC-PVTZ
  Basis Set:
  @DF-RHF Final Energy:  -171.02291737193181
    Total Energy =                       -171.0229173719318396
  Basis Set: CC-PVTZ
  Basis Set:
  Basis Set: CC-PVTZ
  Basis Set:
  @DF-RHF Final Energy:  -171.02335868486895
    Total Energy =                       -171.0233586848689811
  Basis Set: CC-PVTZ
  Basis Set:
  Charge       = 0
  Multiplicity = 1
  Basis Set: CC-PVTZ
  Basis Set:

    Orbital Energies (a.u.)
    -----------------------

    Doubly Occupied:

       1A    -15.556451     2A    -11.282403     3A    -11.261024
       4A    -11.244567     5A     -1.229112     6A     -1.084650
       7A     -0.913643     8A     -0.700127     9A     -0.661572
      10A     -0.590102    11A     -0.563223    12A     -0.545582
      13A     -0.540051    14A     -0.464012    15A     -0.463738

  @DF-RHF Final Energy:  -171.02341048134497

   => Energetics <=

    Nuclear Repulsion Energy =            103.6947919533038629
    One-Electron Energy =                -435.2358897647770846
    Two-Electron Energy =                 160.5176873301282114
    DFT Exchange-Correlation Energy =       0.0000000000000000
    Empirical Dispersion Energy =           0.0000000000000000
    PCM Polarization Energy =               0.0000000000000000
    EFP Energy =                            0.0000000000000000
    Total Energy =                       -171.0234104813449960
    Molecular point group: c1
  Basis Set: CC-PVTZ
  Basis Set:

  -Total Gradient:
     Atom            X                  Y                   Z
    ------   -----------------  -----------------  -----------------
       1        0.000075675805     0.000111176699    -0.000047274755
       2       -0.000022810646     0.000175101088    -0.000368680377
       3       -0.000067417384     0.000821561080    -0.000007602567
       4        0.000060587927    -0.000038471234     0.000022938074
       5        0.000035668946    -0.000021599269    -0.000032861259
       6       -0.000367296269    -0.001508847233     0.001492023082
       7       -0.000152981294    -0.000107688450    -0.000077840548
       8        0.000391549944    -0.000593045175    -0.000128089854
       9        0.000047022968     0.001161812496    -0.000852611796

    Molecular point group: c1

    Geometry (in Angstrom), charge = 0, multiplicity = 1:

    H           -2.555520536698     0.234554543657     0.670551302742
    C           -1.565149722867    -0.199755049627     0.704749913049
    C           -0.644604958211     0.552825678191    -0.253979904955
    H           -1.637686883455    -1.244067277212     0.432174165361
    H           -1.199143192052    -0.139599065941     1.720937539199
    C            0.725355249966     0.020965597411    -0.258070778351
    H           -1.019717094869     0.497932433084    -1.267827524858
    H           -0.582536711278     1.598734729807     0.011864990665
    N            1.775476626568    -0.388729269326    -0.277964576577

  Mulliken Charges: (a.u.)
   Center  Symbol    Alpha    Beta     Spin     Total
       1     H     0.44604  0.44604  0.00000  0.10792
       2     C     3.13582  3.13582  0.00000 -0.27163
       3     C     3.07932  3.07932  0.00000 -0.15864
       4     H     0.44496  0.44496  0.00000  0.11009
       5     H     0.44494  0.44494  0.00000  0.11012
       6     C     3.04260  3.04260  0.00000 -0.08521
       7     H     0.43198  0.43198  0.00000  0.13605
       8     H     0.43177  0.43177  0.00000  0.13646
       9     N     3.54258  3.54258  0.00000 -0.08517

   Total alpha = 15.00000, Total beta = 15.00000, Total charge = -0.00000
