  ==> Input File <==

--------------------------------------------------------------------------
set {
	reference rhf
	basis 6-31G*
}

set_num_threads( 4 )
memory 2 gb

molecule MOL {
0 1

H	 1.290398	 -2.203849	 -0.518554
C	 0.336188	 -1.713757	 -0.625084
O	 0.464886	 -0.454746	 -0.000158
H	 -0.428876	 -2.311158	 -0.143613
H	 0.105533	 -1.604179	 -1.678105
C	 -0.590998	 0.343045	 0.000118
O	 -1.699443	 -0.054298	 0.000227
H	 -0.340329	 1.404368	 0.000207

	symmetry c1
}
set optking {
	frozen_dihedral = ("
		2 3 6 7
	")
}

ee = optimize('scf')
oeprop('DIPOLE', 'QUADRUPOLE', 'MULLIKEN_CHARGES')
f=open( 'psi4out.xyz', 'w' )
f.write( "8  " )
f.write( str(ee) + "\n" )
f.write( MOL.save_string_xyz() )
f.close()
--------------------------------------------------------------------------

    Molecular point group: c1
  Charge       = 0
  Multiplicity = 1
  Basis Set: 6-31G*
  Basis Set:
  @DF-RHF Final Energy:  -227.78253875307519
    Total Energy =                       -227.7825387530753574
    Molecular point group: c1
  Basis Set: 6-31G*
  Basis Set:
  Basis Set: 6-31G*
  Basis Set:
  @DF-RHF Final Energy:  -227.77763002043173
    Total Energy =                       -227.7776300204318431
  Basis Set: 6-31G*
  Basis Set:
  Basis Set: 6-31G*
  Basis Set:
  @DF-RHF Final Energy:  -227.78311390780902
    Total Energy =                       -227.7831139078090246
  Basis Set: 6-31G*
  Basis Set:
  Basis Set: 6-31G*
  Basis Set:
  @DF-RHF Final Energy:  -227.78390375076611
    Total Energy =                       -227.7839037507660862
  Basis Set: 6-31G*
  Basis Set:
  Basis Set: 6-31G*
  Basis Set:
  @DF-RHF Final Energy:  -227.78391213639713
    Total Energy =                       -227.7839121363972765
  Basis Set: 6-31G*
  Basis Set:
  Basis Set: 6-31G*
  Basis Set:
  @DF-RHF Final Energy:  -227.78391339499476
    Total Energy =                       -227.7839133949949257
  Basis Set: 6-31G*
  Basis Set:
  Charge       = 0
  Multiplicity = 1
  Basis Set: 6-31G*
  Basis Set:

    Orbital Energies (a.u.)
    -----------------------

    Doubly Occupied:

       1A    -20.612274     2A    -20.562383     3A    -11.381119
       4A    -11.291123     5A     -1.476382     6A     -1.377270
       7A     -0.996091     8A     -0.821262     9A     -0.742916
      10A     -0.681625    11A     -0.677036    12A     -0.606034
      13A     -0.558735    14A     -0.529757    15A     -0.466350
      16A     -0.456649

  @DF-RHF Final Energy:  -227.78391344693466

   => Energetics <=

    Nuclear Repulsion Energy =            123.3050956917707737
    One-Electron Energy =                -555.7040038433857490
    Two-Electron Energy =                 204.6149947046802708
    DFT Exchange-Correlation Energy =       0.0000000000000000
    Empirical Dispersion Energy =           0.0000000000000000
    PCM Polarization Energy =               0.0000000000000000
    EFP Energy =                            0.0000000000000000
    Total Energy =                       -227.7839134469347186
    Molecular point group: c1
  Basis Set: 6-31G*
  Basis Set:

  -Total Gradient:
     Atom            X                  Y                   Z
    ------   -----------------  -----------------  -----------------
       1        0.000000951052     0.000008455553     0.000003309399
       2        0.002525699253     0.002917095218    -0.006373185380
       3       -0.004004072428    -0.004335397928     0.014599491345
       4        0.000002307489     0.000001329568     0.000001252129
       5        0.000003306620    -0.000002621174    -0.000001739564
       6        0.001909902598     0.001339127696    -0.018028140121
       7       -0.000442413317     0.000065334778     0.009793893548
       8        0.000004318735     0.000006676289     0.000005118644

  **** Optimization is complete! (in 7 steps) ****
    Final optimized geometry and variables:
    Molecular point group: c1

    Geometry (in Angstrom), charge = 0, multiplicity = 1:

    H            1.701550645675    -1.688014108348    -0.373100173223
    C            0.720967028204    -1.242911247934    -0.426452110282
    O            0.833319780829     0.024513148364     0.203373858809
    H           -0.000087658119    -1.863926480567     0.084215119544
    H            0.424339654371    -1.119745467777    -1.459069170387
    C           -0.220415227287     0.820794027580     0.149545012051
    O           -1.348164279575     0.469482382572     0.099192527038
    H            0.085168625801     1.857695924206     0.243091493601

  Mulliken Charges: (a.u.)
   Center  Symbol    Alpha    Beta     Spin     Total
       1     H     0.40499  0.40499  0.00000  0.19002
       2     C     3.09534  3.09534  0.00000 -0.19068
       3     O     4.28780  4.28780  0.00000 -0.57560
       4     H     0.40355  0.40355  0.00000  0.19290
       5     H     0.41181  0.41181  0.00000  0.17638
       6     C     2.72956  2.72956  0.00000  0.54087
       7     O     4.25493  4.25493  0.00000 -0.50985
       8     H     0.41202  0.41202  0.00000  0.17596

   Total alpha = 16.00000, Total beta = 16.00000, Total charge =  0.00000
