                              Psi4 1.0.54 Driver

  ==> Input File <==

--------------------------------------------------------------------------
set {
	reference rhf
	basis cc-pvtz
}

set_num_threads( 4 )
memory 2 gb

molecule MOL {
0 1

H	 1.105628	 1.292357	 -3.490888
O	 1.972697	 0.953548	 -3.614294
C	 2.606439	 0.777885	 -2.374622
C	 2.063387	 -0.398485	 -1.577168
H	 3.651644	 0.611824	 -2.598117
H	 2.544299	 1.689933	 -1.784066
C	 0.613078	 -0.235553	 -1.127827
H	 2.161378	 -1.297700	 -2.177973
H	 2.697664	 -0.531446	 -0.704006
C	 0.113298	 -1.420414	 -0.302504
H	 -0.020408	 -0.109573	 -1.999508
H	 0.518835	 0.674791	 -0.538183
C	 -1.311023	 -1.277304	 0.237018
H	 0.181119	 -2.325900	 -0.900604
H	 0.786113	 -1.563255	 0.538558
C	 -2.041121	 -0.006551	 -0.194127
H	 -1.888548	 -2.136293	 -0.093331
H	 -1.289731	 -1.328757	 1.323321
C	 -3.489218	 0.042606	 0.286507
H	 -2.022185	 0.066287	 -1.279394
H	 -1.518764	 0.869305	 0.178730
C	 -4.219984	 1.311773	 -0.139038
H	 -4.022855	 -0.824300	 -0.093339
H	 -3.510372	 -0.038577	 1.370031
H	 -4.244251	 1.405725	 -1.219696
H	 -5.244345	 1.313233	 0.215630
H	 -3.732090	 2.196311	 0.257073

	symmetry c1
}
set optking {
	frozen_dihedral = ("
		14 10 13 16
	")
}

ee,wfn = optimize('scf', return_wfn=True)
oeprop( wfn, 'DIPOLE', 'QUADRUPOLE', 'MULLIKEN_CHARGES')
f=open( 'psi4out.xyz', 'w' )
f.write( "27  " )
f.write( str(ee) + "\n" )
f.write( MOL.save_string_xyz() )
f.close()
--------------------------------------------------------------------------

    Molecular point group: c1
  Charge       = 0
  Multiplicity = 1
  Basis Set: CC-PVTZ
  Basis Set:
  @DF-RHF Final Energy:  -388.41713149001060
    Total Energy =                       -388.4171314900106609
    Molecular point group: c1
  Basis Set: CC-PVTZ
  Basis Set:
  Basis Set: CC-PVTZ
  Basis Set:
  @DF-RHF Final Energy:  -388.41687544318683
    Total Energy =                       -388.4168754431874504
  Basis Set: CC-PVTZ
  Basis Set:
  Basis Set: CC-PVTZ
  Basis Set:
  @DF-RHF Final Energy:  -388.41917358633691
    Total Energy =                       -388.4191735863362283
  Basis Set: CC-PVTZ
  Basis Set:
  Basis Set: CC-PVTZ
  Basis Set:
  @DF-RHF Final Energy:  -388.41930270344022
    Total Energy =                       -388.4193027034407351
  Basis Set: CC-PVTZ
  Basis Set:
  Basis Set: CC-PVTZ
  Basis Set:
  @DF-RHF Final Energy:  -388.41930712446572
    Total Energy =                       -388.4193071244653765
  Basis Set: CC-PVTZ
  Basis Set:
  Basis Set: CC-PVTZ
  Basis Set:
  @DF-RHF Final Energy:  -388.41931440723243
    Total Energy =                       -388.4193144072321502
  Basis Set: CC-PVTZ
  Basis Set:
  Basis Set: CC-PVTZ
  Basis Set:
  @DF-RHF Final Energy:  -388.41931819987462
    Total Energy =                       -388.4193181998748514
  Basis Set: CC-PVTZ
  Basis Set:
  Charge       = 0
  Multiplicity = 1
  Basis Set: CC-PVTZ
  Basis Set:

    Orbital Energies (a.u.)
    -----------------------

    Doubly Occupied:

       1A    -20.545162     2A    -11.264813     3A    -11.216746
       4A    -11.214949     5A    -11.214032     6A    -11.213540
       7A    -11.212952     8A    -11.212483     9A    -11.207753
      10A     -1.363048    11A     -1.093728    12A     -1.062620
      13A     -1.009772    14A     -0.949395    15A     -0.890678
      16A     -0.820962    17A     -0.807495    18A     -0.768938
      19A     -0.696190    20A     -0.659084    21A     -0.633835
      22A     -0.614310    23A     -0.604741    24A     -0.585818
      25A     -0.575578    26A     -0.553818    27A     -0.541312
      28A     -0.531084    29A     -0.507214    30A     -0.497653
      31A     -0.489541    32A     -0.475111    33A     -0.467757
      34A     -0.455512    35A     -0.445528    36A     -0.443286
      37A     -0.426088

  @DF-RHF Final Energy:  -388.41931846610606

   => Energetics <=

    Nuclear Repulsion Energy =            461.7926206458797083
    One-Electron Energy =               -1441.8788231138457832
    Two-Electron Energy =                 591.6668840018600122
    DFT Exchange-Correlation Energy =       0.0000000000000000
    Empirical Dispersion Energy =           0.0000000000000000
    PCM Polarization Energy =               0.0000000000000000
    EFP Energy =                            0.0000000000000000
    Total Energy =                       -388.4193184661061196
    Molecular point group: c1
  Basis Set: CC-PVTZ
  Basis Set:

  -Total Gradient:
     Atom            X                  Y                   Z
    ------   -----------------  -----------------  -----------------
       1       -0.000003389347     0.000007849897    -0.000007326323
       2       -0.000003158446     0.000010106475    -0.000008489953
       3        0.000022266057    -0.000005825392     0.000007020757
       4       -0.000008980826    -0.000015535746    -0.000000498926
       5        0.000008146893    -0.000001036592     0.000008516886
       6       -0.000013456846     0.000011919160    -0.000007511793
       7        0.000047243027     0.000001912497     0.000025817073
       8        0.000002346111    -0.000008773482    -0.000012069356
       9        0.000004955709    -0.000006345390     0.000004932286
      10       -0.000245853604     0.000890702357    -0.000890688022
      11       -0.000023298529    -0.000018829098     0.000008477657
      12        0.000015634228    -0.000021384465    -0.000012017978
      13       -0.000359454941    -0.000801481770    -0.000813884489
      14        0.000338099302    -0.000522724395     0.000968542337
      15        0.000018029209     0.000010945622    -0.000012707642
      16        0.000256623920     0.000456638516     0.000717377243
      17       -0.000024754307     0.000002185856     0.000007982996
      18       -0.000022665095     0.000015455378    -0.000012403849
      19        0.000018225499     0.000008888360     0.000021614045
      20       -0.000001392843    -0.000003932783     0.000018710504
      21       -0.000002976521    -0.000005652508     0.000008261736
      22       -0.000020859680    -0.000009859131    -0.000018936663
      23       -0.000003346850    -0.000000549673     0.000001291318
      24        0.000005708044     0.000003023764     0.000007304798
      25       -0.000001497655     0.000008644576    -0.000011563937
      26       -0.000004777390     0.000001052551    -0.000004957326
      27        0.000002584880    -0.000007394585     0.000007206623

  **** Optimization is complete! (in 8 steps) ****
    Final optimized geometry and variables:
    Molecular point group: c1

    Geometry (in Angstrom), charge = 0, multiplicity = 1:

    H            1.600645388129     1.276436733505    -2.533832704676
    O            2.451379986711     0.897812581723    -2.654413310327
    C            3.088299203177     0.730047537289    -1.415292541428
    C            2.501392686608    -0.397389995915    -0.579203356128
    H            4.123061952156     0.511446749424    -1.642176905299
    H            3.071893077341     1.660805805840    -0.851559402991
    C            1.061662317262    -0.158649205706    -0.128823713772
    H            2.558483760643    -1.318036109000    -1.152006388693
    H            3.135024245112    -0.529584599035     0.294604627464
    C            0.539307831059    -1.297155634294     0.748438825189
    H            0.426208248375    -0.050216127193    -1.001336292062
    H            1.012457915004     0.781467058362     0.413793182598
    C           -0.918348468434    -1.194587615572     1.273060058874
    H            0.649208642247    -2.225466817332     0.197413982672
    H            1.206031894919    -1.391406022174     1.599688955368
    C           -1.757267389838    -0.002269487956     0.811092869317
    H           -1.448956436954    -2.102476401053     1.005635489981
    H           -0.895766437299    -1.180800071681     2.358096310492
    C           -3.164266043231    -0.019377791140     1.403682775730
    H           -1.834553711492     0.004120697906    -0.272237541105
    H           -1.271220468454     0.927729556124     1.089619419178
    C           -4.018860796090     1.160439433710     0.952306273687
    H           -3.658505117614    -0.947163047135     1.128865679496
    H           -3.097215041414    -0.020814810609     2.488211552412
    H           -4.134386537059     1.170488146054    -0.126512632166
    H           -5.009777259832     1.118019683079     1.389673850079
    H           -3.569434098759     2.103981842686     1.243984434811

  Mulliken Charges: (a.u.)
   Center  Symbol    Alpha    Beta     Spin     Total
       1     H     0.39224  0.39224  0.00000  0.21553
       2     O     4.20569  4.20569  0.00000 -0.41138
       3     C     2.97999  2.97999  0.00000  0.04001
       4     C     3.08828  3.08828  0.00000 -0.17656
       5     H     0.44868  0.44868  0.00000  0.10265
       6     H     0.46992  0.46992  0.00000  0.06016
       7     C     3.10563  3.10563  0.00000 -0.21127
       8     H     0.45099  0.45099  0.00000  0.09802
       9     H     0.45593  0.45593  0.00000  0.08814
      10     C     3.09789  3.09789  0.00000 -0.19578
      11     H     0.45463  0.45463  0.00000  0.09074
      12     H     0.45163  0.45163  0.00000  0.09673
      13     C     3.09721  3.09721  0.00000 -0.19441
      14     H     0.44954  0.44954  0.00000  0.10091
      15     H     0.45084  0.45084  0.00000  0.09833
      16     C     3.08934  3.08934  0.00000 -0.17867
      17     H     0.45028  0.45028  0.00000  0.09943
      18     H     0.45152  0.45152  0.00000  0.09695
      19     C     3.08426  3.08426  0.00000 -0.16851
      20     H     0.45419  0.45419  0.00000  0.09161
      21     H     0.45336  0.45336  0.00000  0.09329
      22     C     3.15015  3.15015  0.00000 -0.30029
      23     H     0.45415  0.45415  0.00000  0.09170
      24     H     0.45446  0.45446  0.00000  0.09108
      25     H     0.45545  0.45545  0.00000  0.08909
      26     H     0.44804  0.44804  0.00000  0.10391
      27     H     0.45570  0.45570  0.00000  0.08860

   Total alpha = 37.00000, Total beta = 37.00000, Total charge = -0.00000

*** Psi4 exiting successfully. Buy a developer a beer!
