  ==> Input File <==

--------------------------------------------------------------------------
set {
	reference rhf
	basis cc-pvtz
}

set_num_threads( 4 )
memory 2 gb

molecule MOL {
0 1

H	 -3.162190	 0.493205	 -0.000107
C	 -2.363908	 -0.234727	 0.000005
O	 -1.158738	 0.454634	 -0.000087
H	 -2.464314	 -0.863616	 -0.882153
H	 -2.464327	 -0.863359	 0.882345
C	 -0.650952	 0.728478	 1.267777
C	 0.658185	 1.479147	 1.129765
H	 -0.495315	 -0.200469	 1.816842
H	 -1.366496	 1.322477	 1.836816
C	 1.280553	 1.817476	 2.479781
H	 1.342384	 0.875495	 0.543761
H	 0.478113	 2.386348	 0.563627
H	 1.491621	 0.921220	 3.053595
H	 2.213427	 2.352631	 2.351814
H	 0.621714	 2.442406	 3.073466

	symmetry c1
}
set optking {
	frozen_dihedral = ("
		6 3 2 4
	")
}

ee = optimize('scf')
oeprop('DIPOLE', 'QUADRUPOLE', 'MULLIKEN_CHARGES')
f=open( 'psi4out.xyz', 'w' )
f.write( "15  " )
f.write( str(ee) + "\n" )
f.write( MOL.save_string_xyz() )
f.close()
--------------------------------------------------------------------------

    Molecular point group: c1
  Charge       = 0
  Multiplicity = 1
  Basis Set: CC-PVTZ
  Basis Set:
  @DF-RHF Final Energy:  -232.22548289869735
    Total Energy =                       -232.2254828986972370
    Molecular point group: c1
  Basis Set: CC-PVTZ
  Basis Set:
  Basis Set: CC-PVTZ
  Basis Set:
  @DF-RHF Final Energy:  -232.22626961177292
    Total Energy =                       -232.2262696117729774
  Basis Set: CC-PVTZ
  Basis Set:
  Basis Set: CC-PVTZ
  Basis Set:
  @DF-RHF Final Energy:  -232.22642995160186
    Total Energy =                       -232.2264299516018582
  Basis Set: CC-PVTZ
  Basis Set:
  Charge       = 0
  Multiplicity = 1
  Basis Set: CC-PVTZ
  Basis Set:

    Orbital Energies (a.u.)
    -----------------------

    Doubly Occupied:

       1A    -20.545813     2A    -11.264661     3A    -11.261493
       4A    -11.212488     5A    -11.210596     6A     -1.379417
       7A     -1.058254     8A     -0.956114     9A     -0.877407
      10A     -0.809393    11A     -0.675437    12A     -0.654821
      13A     -0.631512    14A     -0.608972    15A     -0.564056
      16A     -0.543849    17A     -0.503288    18A     -0.489105
      19A     -0.478872    20A     -0.462432    21A     -0.414332

  @DF-RHF Final Energy:  -232.22643047609640

   => Energetics <=

    Nuclear Repulsion Energy =            189.8444169342044177
    One-Electron Energy =                -690.9370684728032757
    Two-Electron Energy =                 268.8662210625027456
    DFT Exchange-Correlation Energy =       0.0000000000000000
    Empirical Dispersion Energy =           0.0000000000000000
    PCM Polarization Energy =               0.0000000000000000
    EFP Energy =                            0.0000000000000000
    Total Energy =                       -232.2264304760960840
    Molecular point group: c1
  Basis Set: CC-PVTZ
  Basis Set:

  -Total Gradient:
     Atom            X                  Y                   Z
    ------   -----------------  -----------------  -----------------
       1        0.000009593053     0.000014283154    -0.000011682402
       2       -0.001020640628     0.001823813277    -0.001698855812
       3       -0.001357325600     0.002397864826     0.000273084850
       4        0.001228026771    -0.002129496534     0.001420275891
       5        0.000030283415     0.000007314511     0.000004001644
       6        0.001147822382    -0.002140353009     0.000065572272
       7       -0.000016267123     0.000004060133    -0.000034114619
       8       -0.000004200887     0.000001104915     0.000034663618
       9       -0.000000623045    -0.000002313814    -0.000057694551
      10       -0.000018698720     0.000015072404     0.000007876963
      11       -0.000016615597    -0.000005411029    -0.000000999962
      12        0.000018902379     0.000014276324    -0.000001969161
      13       -0.000000458302    -0.000001316397    -0.000007162401
      14       -0.000002577259     0.000000999478    -0.000002422227
      15        0.000002779159     0.000000101760     0.000009425899

  **** Optimization is complete! (in 4 steps) ****
    Final optimized geometry and variables:
    Molecular point group: c1

    Geometry (in Angstrom), charge = 0, multiplicity = 1:

    H           -2.737074112037    -0.367816971227    -0.974063435785
    C           -1.899461103949    -1.059837291764    -0.976495365852
    O           -0.682860946284    -0.385318388017    -0.961348800048
    H           -1.938872700765    -1.671303492048    -1.867618632896
    H           -1.999370099054    -1.721005872964    -0.119388453293
    C           -0.175407252861    -0.099981201539     0.304717242626
    C            1.136681566486     0.643730865734     0.157567240740
    H           -0.023269458016    -1.024112905385     0.861596461107
    H           -0.885326526225     0.504312695527     0.870271225254
    C            1.766094082410     0.985546766610     1.503559713766
    H            1.815210289810     0.033312728642    -0.428197089181
    H            0.959567948798     1.549092506078    -0.412494361899
    H            1.975574416630     0.090930668392     2.080603181140
    H            2.700878160277     1.516008462551     1.369457533958
    H            1.112430545255     1.616095074376     2.097129619519

  Mulliken Charges: (a.u.)
   Center  Symbol    Alpha    Beta     Spin     Total
       1     H     0.46474  0.46474  0.00000  0.07051
       2     C     3.03103  3.03103  0.00000 -0.06207
       3     O     4.17416  4.17416  0.00000 -0.34833
       4     H     0.45075  0.45075  0.00000  0.09850
       5     H     0.47487  0.47487  0.00000  0.05026
       6     C     2.95583  2.95583  0.00000  0.08834
       7     C     3.08122  3.08122  0.00000 -0.16243
       8     H     0.47453  0.47453  0.00000  0.05093
       9     H     0.47678  0.47678  0.00000  0.04645
      10     C     3.15583  3.15583  0.00000 -0.31166
      11     H     0.45122  0.45122  0.00000  0.09756
      12     H     0.45099  0.45099  0.00000  0.09801
      13     H     0.45593  0.45593  0.00000  0.08814
      14     H     0.44627  0.44627  0.00000  0.10747
      15     H     0.45584  0.45584  0.00000  0.08833

   Total alpha = 21.00000, Total beta = 21.00000, Total charge =  0.00000
