  ==> Input File <==

--------------------------------------------------------------------------
set {
	reference rhf
	basis cc-pvtz
}

set_num_threads( 4 )
memory 2 gb

molecule MOL {
0 1

H	 3.262884	 0.175855	 -0.217470
N	 2.433987	 -0.362316	 -0.080024
C	 1.263552	 0.494993	 0.021953
H	 2.561938	 -0.891766	 0.757023
C	 -0.016533	 -0.325589	 -0.026925
H	 1.280915	 1.180773	 -0.818522
H	 1.263064	 1.106893	 0.925038
C	 -1.280353	 0.525521	 0.047747
H	 -0.016686	 -0.912532	 -0.939714
H	 -0.014099	 -1.037598	 0.796369
C	 -2.560681	 -0.301323	 -0.007747
H	 -1.279957	 1.241025	 -0.770189
H	 -1.270445	 1.110526	 0.963468
H	 -2.617064	 -0.872870	 -0.928010
H	 -3.439525	 0.331102	 0.043462
H	 -2.609427	 -1.002736	 0.818585

	symmetry c1
}
set optking {
	frozen_dihedral = ("
		1 2 3 6
	")
}

ee = optimize('scf')
oeprop('DIPOLE', 'QUADRUPOLE', 'MULLIKEN_CHARGES')
f=open( 'psi4out.xyz', 'w' )
f.write( "16  " )
f.write( str(ee) + "\n" )
f.write( MOL.save_string_xyz() )
f.close()
--------------------------------------------------------------------------

    Molecular point group: c1
  Charge       = 0
  Multiplicity = 1
  Basis Set: CC-PVTZ
  Basis Set:
  @DF-RHF Final Energy:  -212.40020919883366
    Total Energy =                       -212.4002091988336360
    Molecular point group: c1
  Basis Set: CC-PVTZ
  Basis Set:
  Basis Set: CC-PVTZ
  Basis Set:
  @DF-RHF Final Energy:  -212.40022323980330
    Total Energy =                       -212.4002232398033811
  Basis Set: CC-PVTZ
  Basis Set:
  Basis Set: CC-PVTZ
  Basis Set:
  @DF-RHF Final Energy:  -212.40022571191395
    Total Energy =                       -212.4002257119138903
  Basis Set: CC-PVTZ
  Basis Set:
  Charge       = 0
  Multiplicity = 1
  Basis Set: CC-PVTZ
  Basis Set:

    Orbital Energies (a.u.)
    -----------------------

    Doubly Occupied:

       1A    -15.526277     2A    -11.238160     3A    -11.212443
       4A    -11.206880     5A    -11.205490     6A     -1.177895
       7A     -1.060409     8A     -0.959559     9A     -0.843911
      10A     -0.791564    11A     -0.668134    12A     -0.635953
      13A     -0.607459    14A     -0.576937    15A     -0.563325
      16A     -0.526721    17A     -0.498843    18A     -0.470226
      19A     -0.465811    20A     -0.462397    21A     -0.382922

  @DF-RHF Final Energy:  -212.40022591124702

   => Energetics <=

    Nuclear Repulsion Energy =            186.5076245780570900
    One-Electron Energy =                -655.6530688632028614
    Two-Electron Energy =                 256.7452183738986946
    DFT Exchange-Correlation Energy =       0.0000000000000000
    Empirical Dispersion Energy =           0.0000000000000000
    PCM Polarization Energy =               0.0000000000000000
    EFP Energy =                            0.0000000000000000
    Total Energy =                       -212.4002259112471052
    Molecular point group: c1
  Basis Set: CC-PVTZ
  Basis Set:

  -Total Gradient:
     Atom            X                  Y                   Z
    ------   -----------------  -----------------  -----------------
       1       -0.000131474661    -0.000045368980    -0.000913927926
       2        0.000266581854     0.000155014230     0.001242564964
       3       -0.000605361064    -0.000660744374    -0.000749274574
       4       -0.000015024207     0.000008537246    -0.000013992328
       5        0.000016889381    -0.000007715940    -0.000007451560
       6        0.000438675812     0.000528461286     0.000455786314
       7        0.000000709397     0.000009720546    -0.000002410502
       8        0.000014902786     0.000009344918    -0.000008522546
       9        0.000001622250    -0.000000103385    -0.000003704688
      10        0.000006833576     0.000009416814    -0.000006898202
      11        0.000001232763    -0.000006610020     0.000009430042
      12        0.000003185815    -0.000000839165    -0.000001937006
      13        0.000001408981     0.000000694791    -0.000003086076
      14        0.000001522246     0.000004234557     0.000000602462
      15        0.000000376310     0.000000348227     0.000003486231
      16       -0.000002081242    -0.000004390751    -0.000000664606

  **** Optimization is complete! (in 4 steps) ****
    Final optimized geometry and variables:
    Molecular point group: c1

    Geometry (in Angstrom), charge = 0, multiplicity = 1:

    H            3.265262777041     0.176069161141    -0.203123584815
    N            2.435168513461    -0.361152350243    -0.072757969980
    C            1.262236568377     0.493676886448     0.018744911576
    H            2.554209732694    -0.902304341851     0.757490018576
    C           -0.017767328797    -0.326849535065    -0.030849085600
    H            1.285711948491     1.179092956277    -0.821758418817
    H            1.258131062413     1.110640196772     0.918541846199
    C           -1.281587448467     0.523826698226     0.047346772101
    H           -0.018218052386    -0.912036977414    -0.944630167678
    H           -0.013253089880    -1.040652885285     0.790663491191
    C           -2.561781318623    -0.303455995061    -0.003932347742
    H           -1.284067034350     1.239296686378    -0.770727284114
    H           -1.269145705288     1.108982950809     0.962965714199
    H           -2.621655201632    -0.873774267143    -0.924734812239
    H           -3.440792212974     0.328428317530     0.051832623794
    H           -2.606617072377    -1.006065444874     0.821599506641

  Mulliken Charges: (a.u.)
   Center  Symbol    Alpha    Beta     Spin     Total
       1     H     0.42910  0.42910  0.00000  0.14180
       2     N     3.69074  3.69074  0.00000 -0.38148
       3     C     3.02850  3.02850  0.00000 -0.05700
       4     H     0.43039  0.43039  0.00000  0.13921
       5     C     3.07746  3.07746  0.00000 -0.15493
       6     H     0.45691  0.45691  0.00000  0.08618
       7     H     0.46827  0.46827  0.00000  0.06347
       8     C     3.08866  3.08866  0.00000 -0.17733
       9     H     0.44999  0.44999  0.00000  0.10002
      10     H     0.46049  0.46049  0.00000  0.07902
      11     C     3.14932  3.14932  0.00000 -0.29865
      12     H     0.45508  0.45508  0.00000  0.08984
      13     H     0.45659  0.45659  0.00000  0.08683
      14     H     0.45419  0.45419  0.00000  0.09162
      15     H     0.44886  0.44886  0.00000  0.10228
      16     H     0.45543  0.45543  0.00000  0.08913

   Total alpha = 21.00000, Total beta = 21.00000, Total charge = -0.00000
