  ==> Input File <==

--------------------------------------------------------------------------
set {
	reference rhf
	basis cc-pvtz
}

set_num_threads( 4 )
memory 2 gb

molecule MOL {
0 1

H	 2.828711	 -0.346904	 0.001083
C	 1.876752	 0.015931	 -0.363450
C	 0.776285	 -0.474665	 0.563092
H	 1.728113	 -0.357244	 -1.367440
H	 1.906171	 1.096574	 -0.386153
N	 -0.540022	 0.017605	 0.071630
H	 0.707111	 -1.548969	 0.573035
H	 0.886169	 -0.084184	 1.560432
O	 -1.167948	 0.707897	 0.801973
O	 -0.883305	 -0.337644	 -1.005566

	symmetry c1
}
set optking {
	frozen_dihedral = ("
		9 6 3 2
	")
}

ee = optimize('scf')
oeprop('DIPOLE', 'QUADRUPOLE', 'MULLIKEN_CHARGES')
f=open( 'psi4out.xyz', 'w' )
f.write( "10  " )
f.write( str(ee) + "\n" )
f.write( MOL.save_string_xyz() )
f.close()
--------------------------------------------------------------------------

    Molecular point group: c1
  Charge       = 0
  Multiplicity = 1
  Basis Set: CC-PVTZ
  Basis Set:
  @DF-RHF Final Energy:  -282.81301860184158
    Total Energy =                       -282.8130186018415770
    Molecular point group: c1
  Basis Set: CC-PVTZ
  Basis Set:
  Basis Set: CC-PVTZ
  Basis Set:
  @DF-RHF Final Energy:  -282.80700835564807
    Total Energy =                       -282.8070083556482359
  Basis Set: CC-PVTZ
  Basis Set:
  Basis Set: CC-PVTZ
  Basis Set:
  @DF-RHF Final Energy:  -282.81300246050915
    Total Energy =                       -282.8130024605089829
  Basis Set: CC-PVTZ
  Basis Set:
  Basis Set: CC-PVTZ
  Basis Set:
  @DF-RHF Final Energy:  -282.81321713752948
    Total Energy =                       -282.8132171375295911
  Basis Set: CC-PVTZ
  Basis Set:
  Basis Set: CC-PVTZ
  Basis Set:
  @DF-RHF Final Energy:  -282.81322535500010
    Total Energy =                       -282.8132253549999859
  Basis Set: CC-PVTZ
  Basis Set:
  Charge       = 0
  Multiplicity = 1
  Basis Set: CC-PVTZ
  Basis Set:

    Orbital Energies (a.u.)
    -----------------------

    Doubly Occupied:

       1A    -20.594059     2A    -20.590337     3A    -15.838757
       4A    -11.302162     5A    -11.248599     6A     -1.638013
       7A     -1.422366     8A     -1.125586     9A     -0.966915
      10A     -0.838546    11A     -0.764355    12A     -0.741996
      13A     -0.730726    14A     -0.655629    15A     -0.590868
      16A     -0.562198    17A     -0.544773    18A     -0.489304
      19A     -0.479384    20A     -0.455442

  @DF-RHF Final Energy:  -282.81322665133052

   => Energetics <=

    Nuclear Repulsion Energy =            186.6635523632650973
    One-Electron Energy =                -755.7935310482212117
    Two-Electron Energy =                 286.3167520336255620
    DFT Exchange-Correlation Energy =       0.0000000000000000
    Empirical Dispersion Energy =           0.0000000000000000
    PCM Polarization Energy =               0.0000000000000000
    EFP Energy =                            0.0000000000000000
    Total Energy =                       -282.8132266513305240
    Molecular point group: c1
  Basis Set: CC-PVTZ
  Basis Set:

  -Total Gradient:
     Atom            X                  Y                   Z
    ------   -----------------  -----------------  -----------------
       1       -0.000000099810     0.000001056320     0.000001242846
       2        0.000006307569    -0.000121477575    -0.000108536214
       3       -0.000039516216     0.000095431082     0.000158408371
       4       -0.000003653853     0.000001083219     0.000005680369
       5        0.000002926914    -0.000003832626    -0.000001443790
       6        0.000128901913     0.000163417477    -0.000262701776
       7        0.000007143905    -0.000007613888     0.000004844009
       8       -0.000015549778     0.000008665651    -0.000009695190
       9       -0.000123655088    -0.000135151696     0.000166134302
      10        0.000037194443    -0.000001577964     0.000046067072

  **** Optimization is complete! (in 6 steps) ****
    Final optimized geometry and variables:
    Molecular point group: c1

    Geometry (in Angstrom), charge = 0, multiplicity = 1:

    H            2.842155049726    -0.336719896293     0.003426769617
    C            1.894097383874     0.020992989720    -0.376892004459
    C            0.788596349892    -0.456882916170     0.546316458219
    H            1.753512574150    -0.359456459286    -1.377188824840
    H            1.928433130010     1.102336893122    -0.411805048935
    N           -0.540921420955     0.021736194278     0.070599461621
    H            0.715581546286    -1.533819362511     0.552315993125
    H            0.893179196083    -0.084227116381     1.549703066088
    O           -1.168829043456     0.710423655315     0.801158559471
    O           -0.882714481193    -0.326071833860    -1.010014387221

  Mulliken Charges: (a.u.)
   Center  Symbol    Alpha    Beta     Spin     Total
       1     H     0.44853  0.44853  0.00000  0.10293
       2     C     3.14138  3.14138  0.00000 -0.28276
       3     C     3.03818  3.03818  0.00000 -0.07636
       4     H     0.43689  0.43689  0.00000  0.12622
       5     H     0.44474  0.44474  0.00000  0.11053
       6     N     3.27788  3.27788  0.00000  0.44423
       7     H     0.43723  0.43723  0.00000  0.12553
       8     H     0.43234  0.43234  0.00000  0.13531
       9     O     4.16839  4.16839  0.00000 -0.33678
      10     O     4.17443  4.17443  0.00000 -0.34885

   Total alpha = 20.00000, Total beta = 20.00000, Total charge = -0.00000
