  ==> Input File <==

--------------------------------------------------------------------------
set {
	reference rhf
	basis 6-31G*
}

set_num_threads( 4 )
memory 2 gb

molecule MOL {
0 1

H	 0.340614	 -3.436405	 -0.411429
O	 0.787984	 -2.666349	 -0.074342
C	 -0.009266	 -1.613457	 -0.253860
C	 0.624473	 -0.343591	 0.253101
O	 -1.080914	 -1.711432	 -0.756840
C	 -0.265902	 0.883932	 0.072916
H	 0.882396	 -0.511623	 1.293588
H	 1.569106	 -0.223907	 -0.271395
C	 -1.728698	 0.646073	 0.462102
H	 -0.209144	 1.219470	 -0.958188
H	 0.135059	 1.692851	 0.673903
C	 -2.482460	 -0.343073	 -0.431425
H	 -2.245265	 1.602650	 0.432430
H	 -1.779332	 0.308348	 1.496285
C	 -3.960546	 -0.461025	 -0.060175
H	 -2.395034	 -0.026811	 -1.468912
H	 -2.024850	 -1.327147	 -0.371646
H	 -4.472726	 -1.168004	 -0.705284
H	 -4.465146	 0.496508	 -0.151489
H	 -4.081218	 -0.800940	 0.964585

	symmetry c1
}
set optking {
	frozen_dihedral = ("
		7 4 6 10
	")
}

ee = optimize('scf')
oeprop('DIPOLE', 'QUADRUPOLE', 'MULLIKEN_CHARGES')
f=open( 'psi4out.xyz', 'w' )
f.write( "20  " )
f.write( str(ee) + "\n" )
f.write( MOL.save_string_xyz() )
f.close()
--------------------------------------------------------------------------

    Molecular point group: c1
  Charge       = 0
  Multiplicity = 1
  Basis Set: 6-31G*
  Basis Set:
  @DF-RHF Final Energy:  -383.75523618497846
    Total Energy =                       -383.7552361849785711
    Molecular point group: c1
  Basis Set: 6-31G*
  Basis Set:
  Basis Set: 6-31G*
  Basis Set:
  @DF-RHF Final Energy:  -383.85895578564867
    Total Energy =                       -383.8589557856485044
  Basis Set: 6-31G*
  Basis Set:
  Basis Set: 6-31G*
  Basis Set:
  @DF-RHF Final Energy:  -383.89772073859319
    Total Energy =                       -383.8977207385930797
  Basis Set: 6-31G*
  Basis Set:
  Basis Set: 6-31G*
  Basis Set:
  @DF-RHF Final Energy:  -383.92176205925807
    Total Energy =                       -383.9217620592579578
  Basis Set: 6-31G*
  Basis Set:
  @DF-RHF Final Energy:  -383.93155995276555
    Total Energy =                       -383.9315599527658378
  @DF-RHF Final Energy:  -383.93669774184514
    Total Energy =                       -383.9366977418451370
  @DF-RHF Final Energy:  -383.93906522828667
    Total Energy =                       -383.9390652282866085
  @DF-RHF Final Energy:  -383.94004944123662
    Total Energy =                       -383.9400494412370790
  @DF-RHF Final Energy:  -383.94090457683865
    Total Energy =                       -383.9409045768386477
  @DF-RHF Final Energy:  -383.94103769102082
    Total Energy =                       -383.9410376910210516
  @DF-RHF Final Energy:  -383.94112580874855
    Total Energy =                       -383.9411258087487795
  @DF-RHF Final Energy:  -383.94134552415204
    Total Energy =                       -383.9413455241516431
  @DF-RHF Final Energy:  -383.94152261660969
    Total Energy =                       -383.9415226166097455
  @DF-RHF Final Energy:  -383.94166148409079
    Total Energy =                       -383.9416614840907869
  @DF-RHF Final Energy:  -383.94183640962592
    Total Energy =                       -383.9418364096259211
  @DF-RHF Final Energy:  -383.94189698792741
    Total Energy =                       -383.9418969879271799
  @DF-RHF Final Energy:  -383.94197211633889
    Total Energy =                       -383.9419721163388886
  @DF-RHF Final Energy:  -383.94203490519055
    Total Energy =                       -383.9420349051903258
  @DF-RHF Final Energy:  -383.94207545252067
    Total Energy =                       -383.9420754525203847
  Basis Set: 6-31G*
  Basis Set:
  @DF-RHF Final Energy:  -383.94211033859170
    Total Energy =                       -383.9421103385915330
  Basis Set: 6-31G*
  Basis Set:
  Basis Set: 6-31G*
  Basis Set:
  @DF-RHF Final Energy:  -383.94212208620695
    Total Energy =                       -383.9421220862069504
  Basis Set: 6-31G*
  Basis Set:
  Basis Set: 6-31G*
  Basis Set:
  @DF-RHF Final Energy:  -383.94212491087961
    Total Energy =                       -383.9421249108798975
  Basis Set: 6-31G*
  Basis Set:
  Charge       = 0
  Multiplicity = 1
  Basis Set: 6-31G*
  Basis Set:

    Orbital Energies (a.u.)
    -----------------------

    Doubly Occupied:

       1A    -20.616292     2A    -20.550285     3A    -11.382704
       4A    -11.240354     5A    -11.229362     6A    -11.219003
       7A    -11.209680     8A    -11.205862     9A     -1.476790
      10A     -1.366141    11A     -1.091695    12A     -1.037711
      13A     -0.955204    14A     -0.872408    15A     -0.811754
      16A     -0.780531    17A     -0.703616    18A     -0.687749
      19A     -0.660956    20A     -0.622579    21A     -0.605613
      22A     -0.591874    23A     -0.565612    24A     -0.553883
      25A     -0.551445    26A     -0.503796    27A     -0.496939
      28A     -0.485442    29A     -0.467071    30A     -0.459534
      31A     -0.450749    32A     -0.438510

  @DF-RHF Final Energy:  -383.94212527206139

   => Energetics <=

    Nuclear Repulsion Energy =            389.9208893472822410
    One-Electron Energy =               -1295.9437399284388448
    Two-Electron Energy =                 522.0807253090956692
    DFT Exchange-Correlation Energy =       0.0000000000000000
    Empirical Dispersion Energy =           0.0000000000000000
    PCM Polarization Energy =               0.0000000000000000
    EFP Energy =                            0.0000000000000000
    Total Energy =                       -383.9421252720609345
    Molecular point group: c1
  Basis Set: 6-31G*
  Basis Set:

  -Total Gradient:
     Atom            X                  Y                   Z
    ------   -----------------  -----------------  -----------------
       1        0.000001792156     0.000006318130    -0.000001606502
       2        0.000014947404     0.000012135772     0.000001361475
       3       -0.000011049752    -0.000023596096     0.000021725976
       4       -0.003388159819    -0.003043129650     0.001448015521
       5       -0.000002415095    -0.000009790863    -0.000062626312
       6       -0.003025584129    -0.003292585843    -0.000904468006
       7        0.003283841727     0.003067032109    -0.001046105278
       8        0.000004230927    -0.000001978712     0.000012532231
       9        0.000006865504    -0.000002466260     0.000017192598
      10        0.003116705595     0.003301583671     0.000501543515
      11       -0.000004816378    -0.000010296606     0.000003894502
      12        0.000025349901     0.000004103532    -0.000023315525
      13        0.000000576282     0.000002074057    -0.000006229097
      14       -0.000006568204     0.000001843736    -0.000000293408
      15       -0.000000140210     0.000005142827     0.000003724770
      16        0.000004828225     0.000001577927     0.000004452098
      17       -0.000025824282    -0.000019335748     0.000034425470
      18        0.000001388969    -0.000000852240    -0.000001502026
      19        0.000000709547     0.000000353233    -0.000001659469
      20        0.000003321630     0.000001867027    -0.000001062533

  **** Optimization is complete! (in 23 steps) ****
    Final optimized geometry and variables:
    Molecular point group: c1

    Geometry (in Angstrom), charge = 0, multiplicity = 1:

    H            1.288761955985    -2.691000321816     0.477891004068
    O            1.515599949008    -1.829756082001     0.816127614610
    C            1.276110536764    -0.935948515172    -0.139270425994
    C            1.647111821378     0.468106580015     0.263603543496
    O            0.842700229505    -1.249113556023    -1.201790325340
    C            0.569844177320     1.530088258524    -0.010681092069
    H            1.956949011587     0.493679560856     1.300317214500
    H            2.530884659676     0.713567340551    -0.320597736867
    C           -0.831218544724     1.228827231092     0.559648107150
    H            0.527172553217     1.735392141466    -1.074945137028
    H            0.944217707914     2.445449826118     0.438513505158
    C           -1.847204090473     0.724078639013    -0.470662911551
    H           -1.228028427923     2.134467357011     1.011022211014
    H           -0.748689371900     0.509075819979     1.372920195098
    C           -3.214365252807     0.438578646868     0.149710771557
    H           -1.955920264372     1.475295740346    -1.250055263440
    H           -1.472111421882    -0.167992673445    -0.958088900963
    H           -3.921597758290     0.099502057479    -0.600811096201
    H           -3.629622976312     1.327048893731     0.617881522443
    H           -3.146879843659    -0.333571741718     0.911352385240

  Mulliken Charges: (a.u.)
   Center  Symbol    Alpha    Beta     Spin     Total
       1     H     0.26828  0.26828  0.00000  0.46343
       2     O     4.34799  4.34799  0.00000 -0.69599
       3     C     2.62196  2.62196  0.00000  0.75607
       4     C     3.21267  3.21267  0.00000 -0.42534
       5     O     4.28161  4.28161  0.00000 -0.56323
       6     C     3.15592  3.15592  0.00000 -0.31184
       7     H     0.39876  0.39876  0.00000  0.20247
       8     H     0.39778  0.39778  0.00000  0.20444
       9     C     3.16372  3.16372  0.00000 -0.32743
      10     H     0.40740  0.40740  0.00000  0.18520
      11     H     0.41476  0.41476  0.00000  0.17048
      12     C     3.15820  3.15820  0.00000 -0.31640
      13     H     0.41850  0.41850  0.00000  0.16301
      14     H     0.42062  0.42062  0.00000  0.15876
      15     C     3.24063  3.24063  0.00000 -0.48125
      16     H     0.42358  0.42358  0.00000  0.15285
      17     H     0.40293  0.40293  0.00000  0.19414
      18     H     0.41828  0.41828  0.00000  0.16343
      19     H     0.42348  0.42348  0.00000  0.15305
      20     H     0.42292  0.42292  0.00000  0.15415

   Total alpha = 32.00000, Total beta = 32.00000, Total charge =  0.00000
