  ==> Input File <==

--------------------------------------------------------------------------
set {
	reference rhf
	basis 6-31G*
}

set_num_threads( 4 )
memory 2 gb

molecule MOL {
0 1

H	 1.353289	 -2.121022	 0.666049
C	 0.411715	 -1.614290	 0.802858
O	 0.464886	 -0.454746	 -0.000158
H	 0.291466	 -1.358468	 1.848860
H	 -0.394890	 -2.267243	 0.491244
C	 -0.590998	 0.343045	 0.000118
O	 -1.699443	 -0.054298	 0.000227
H	 -0.340329	 1.404368	 0.000207

	symmetry c1
}
set optking {
	frozen_dihedral = ("
		2 3 6 7
	")
}

ee = optimize('scf')
oeprop('DIPOLE', 'QUADRUPOLE', 'MULLIKEN_CHARGES')
f=open( 'psi4out.xyz', 'w' )
f.write( "8  " )
f.write( str(ee) + "\n" )
f.write( MOL.save_string_xyz() )
f.close()
--------------------------------------------------------------------------

    Molecular point group: c1
  Charge       = 0
  Multiplicity = 1
  Basis Set: 6-31G*
  Basis Set:
  @DF-RHF Final Energy:  -227.77926979832648
    Total Energy =                       -227.7792697983264816
    Molecular point group: c1
  Basis Set: 6-31G*
  Basis Set:
  Basis Set: 6-31G*
  Basis Set:
  @DF-RHF Final Energy:  -227.77335887306515
    Total Energy =                       -227.7733588730651491
  Basis Set: 6-31G*
  Basis Set:
  Basis Set: 6-31G*
  Basis Set:
  @DF-RHF Final Energy:  -227.77995215410516
    Total Energy =                       -227.7799521541050751
  Basis Set: 6-31G*
  Basis Set:
  Basis Set: 6-31G*
  Basis Set:
  @DF-RHF Final Energy:  -227.78058818783978
    Total Energy =                       -227.7805881878398111
  Basis Set: 6-31G*
  Basis Set:
  Basis Set: 6-31G*
  Basis Set:
  @DF-RHF Final Energy:  -227.78059152739993
    Total Energy =                       -227.7805915273999915
  Basis Set: 6-31G*
  Basis Set:
  Charge       = 0
  Multiplicity = 1
  Basis Set: 6-31G*
  Basis Set:

    Orbital Energies (a.u.)
    -----------------------

    Doubly Occupied:

       1A    -20.608754     2A    -20.564365     3A    -11.381601
       4A    -11.292268     5A     -1.474125     6A     -1.377811
       7A     -0.994623     8A     -0.822574     9A     -0.741535
      10A     -0.682115    11A     -0.674492    12A     -0.609882
      13A     -0.560184    14A     -0.525876    15A     -0.467294
      16A     -0.455310

  @DF-RHF Final Energy:  -227.78059177895972

   => Energetics <=

    Nuclear Repulsion Energy =            122.9709661189786374
    One-Electron Energy =                -555.0375000673642489
    Two-Electron Energy =                 204.2859421694261073
    DFT Exchange-Correlation Energy =       0.0000000000000000
    Empirical Dispersion Energy =           0.0000000000000000
    PCM Polarization Energy =               0.0000000000000000
    EFP Energy =                            0.0000000000000000
    Total Energy =                       -227.7805917789594901
    Molecular point group: c1
  Basis Set: 6-31G*
  Basis Set:

  -Total Gradient:
     Atom            X                  Y                   Z
    ------   -----------------  -----------------  -----------------
       1       -0.000007439302    -0.000020861563     0.000017481839
       2        0.003226000771     0.004176459757     0.006388192770
       3       -0.004837864691    -0.006115722777    -0.015228169459
       4        0.000005582628    -0.000001362319     0.000006221893
       5        0.000006858417     0.000000500363     0.000006398325
       6        0.001642359646     0.001731916701     0.019713835069
       7       -0.000020750852     0.000230542154    -0.010899210367
       8       -0.000014746616    -0.000001472318    -0.000004750070

  **** Optimization is complete! (in 6 steps) ****
    Final optimized geometry and variables:
    Molecular point group: c1

    Geometry (in Angstrom), charge = 0, multiplicity = 1:

    H            1.734209380310    -1.650198425422     0.447027421947
    C            0.776322627757    -1.171496474589     0.572890262885
    O            0.820731421677     0.008937530650    -0.214245700477
    H            0.627150356581    -0.916434179913     1.613930646897
    H           -0.015048512478    -1.827342599157     0.241583684138
    C           -0.245669374979     0.796714650606    -0.194619686992
    O           -1.369703178582     0.433258526055    -0.197239714596
    H            0.047871565375     1.838465862735    -0.275972551407

  Mulliken Charges: (a.u.)
   Center  Symbol    Alpha    Beta     Spin     Total
       1     H     0.40421  0.40421  0.00000  0.19159
       2     C     3.09582  3.09582  0.00000 -0.19164
       3     O     4.29051  4.29051  0.00000 -0.58102
       4     H     0.41390  0.41390  0.00000  0.17220
       5     H     0.40226  0.40226  0.00000  0.19549
       6     C     2.72937  2.72937  0.00000  0.54126
       7     O     4.25005  4.25005  0.00000 -0.50010
       8     H     0.41389  0.41389  0.00000  0.17222

   Total alpha = 16.00000, Total beta = 16.00000, Total charge = -0.00000
