  ==> Input File <==

--------------------------------------------------------------------------
set {
	reference rhf
	basis cc-pvtz
}

set_num_threads( 4 )
memory 2 gb

molecule MOL {
0 1

O	 -0.294688	 1.318815	 -0.000872
C	 -0.448732	 0.145721	 -0.000187
C	 -1.780748	 -0.548101	 0.000195
O	 0.550743	 -0.719877	 0.000412
H	 -1.859389	 -1.183260	 -0.872613
H	 -2.570236	 0.185547	 -0.001342
H	 -1.860233	 -1.180337	 0.875064
C	 1.850723	 -0.208595	 -0.218010
H	 1.913329	 0.272517	 -1.182707
H	 2.514081	 -1.057285	 -0.181048
H	 2.113265	 0.504248	 0.549420

	symmetry c1
}
set optking {
	frozen_dihedral = ("
		8 4 2 1
	")
}

ee = optimize('scf')
oeprop('DIPOLE', 'QUADRUPOLE', 'MULLIKEN_CHARGES')
f=open( 'psi4out.xyz', 'w' )
f.write( "11  " )
f.write( str(ee) + "\n" )
f.write( MOL.save_string_xyz() )
f.close()
--------------------------------------------------------------------------

    Molecular point group: c1
  Charge       = 0
  Multiplicity = 1
  Basis Set: CC-PVTZ
  Basis Set:
  @DF-RHF Final Energy:  -266.93859934812980
    Total Energy =                       -266.9385993481299693
    Molecular point group: c1
  Basis Set: CC-PVTZ
  Basis Set:
  Basis Set: CC-PVTZ
  Basis Set:
  @DF-RHF Final Energy:  -266.93740047230381
    Total Energy =                       -266.9374004723039207
  Basis Set: CC-PVTZ
  Basis Set:
  Basis Set: CC-PVTZ
  Basis Set:
  @DF-RHF Final Energy:  -266.93867367201165
    Total Energy =                       -266.9386736720116460
  Basis Set: CC-PVTZ
  Basis Set:
  Basis Set: CC-PVTZ
  Basis Set:
  @DF-RHF Final Energy:  -266.93867852236667
    Total Energy =                       -266.9386785223667857
  Basis Set: CC-PVTZ
  Basis Set:
  Basis Set: CC-PVTZ
  Basis Set:
  @DF-RHF Final Energy:  -266.93868045259950
    Total Energy =                       -266.9386804525992716
  Basis Set: CC-PVTZ
  Basis Set:
  Basis Set: CC-PVTZ
  Basis Set:
  @DF-RHF Final Energy:  -266.93868245836268
    Total Energy =                       -266.9386824583625639
  Basis Set: CC-PVTZ
  Basis Set:
  Basis Set: CC-PVTZ
  Basis Set:
  @DF-RHF Final Energy:  -266.93868385582346
    Total Energy =                       -266.9386838558232284
  Basis Set: CC-PVTZ
  Basis Set:
  Charge       = 0
  Multiplicity = 1
  Basis Set: CC-PVTZ
  Basis Set:

    Orbital Energies (a.u.)
    -----------------------

    Doubly Occupied:

       1A    -20.598307     2A    -20.535579     3A    -11.368932
       4A    -11.280236     5A    -11.233310     6A     -1.473998
       7A     -1.367767     8A     -1.036841     9A     -0.953853
      10A     -0.780203    11A     -0.698122    12A     -0.684412
      13A     -0.681087    14A     -0.596197    15A     -0.593607
      16A     -0.562188    17A     -0.528207    18A     -0.524020
      19A     -0.462240    20A     -0.445892

  @DF-RHF Final Energy:  -266.93868397950962

   => Energetics <=

    Nuclear Repulsion Energy =            183.6777202006396408
    One-Electron Energy =                -728.4228150545709468
    Two-Electron Energy =                 277.8064108744216014
    DFT Exchange-Correlation Energy =       0.0000000000000000
    Empirical Dispersion Energy =           0.0000000000000000
    PCM Polarization Energy =               0.0000000000000000
    EFP Energy =                            0.0000000000000000
    Total Energy =                       -266.9386839795096762
    Molecular point group: c1
  Basis Set: CC-PVTZ
  Basis Set:

  -Total Gradient:
     Atom            X                  Y                   Z
    ------   -----------------  -----------------  -----------------
       1       -0.000061171523     0.000085600195     0.003396228476
       2       -0.000057278761    -0.000329860860    -0.006297947797
       3       -0.000000789208     0.000005450218    -0.000039482084
       4        0.000384015601     0.000673689995     0.005542905817
       5        0.000010400810    -0.000014805595     0.000012330105
       6       -0.000002736765    -0.000000677622    -0.000002967843
       7       -0.000006835766     0.000014457847     0.000011823118
       8       -0.000271695883    -0.000437824997    -0.002626266644
       9       -0.000000394403     0.000000398188     0.000001854752
      10        0.000003848671     0.000001534728     0.000000555316
      11        0.000002637228     0.000002037906     0.000000966784

  **** Optimization is complete! (in 8 steps) ****
    Final optimized geometry and variables:
    Molecular point group: c1

    Geometry (in Angstrom), charge = 0, multiplicity = 1:

    O           -0.295495619159     1.321650546266    -0.004668468807
    C           -0.447261742121     0.148907377972     0.028797129387
    C           -1.777884595634    -0.546446826987     0.062592980739
    O            0.554499343335    -0.714173176474     0.069670081949
    H           -1.881701981944    -1.168976162694    -0.817021694930
    H           -2.568103223755     0.185813697618     0.093134798441
    H           -1.830158091172    -1.191584299765     0.929754779929
    C            1.856436734425    -0.206287389439    -0.145141499607
    H            1.914555469175     0.293832501641    -1.100752993542
    H            2.514875002550    -1.059496663506    -0.130919213995
    H            2.130117848978     0.488966952741     0.634190139101

  Mulliken Charges: (a.u.)
   Center  Symbol    Alpha    Beta     Spin     Total
       1     O     4.19596  4.19596  0.00000 -0.39192
       2     C     2.80186  2.80186  0.00000  0.39628
       3     C     3.13777  3.13777  0.00000 -0.27554
       4     O     4.14820  4.14820  0.00000 -0.29639
       5     H     0.44633  0.44633  0.00000  0.10734
       6     H     0.43792  0.43792  0.00000  0.12417
       7     H     0.44474  0.44474  0.00000  0.11051
       8     C     3.03337  3.03337  0.00000 -0.06674
       9     H     0.45609  0.45609  0.00000  0.08782
      10     H     0.44547  0.44547  0.00000  0.10905
      11     H     0.45229  0.45229  0.00000  0.09542

   Total alpha = 20.00000, Total beta = 20.00000, Total charge = -0.00000
