  ==> Input File <==

--------------------------------------------------------------------------
set {
	reference rhf
	basis 6-31G*
}

set_num_threads( 4 )
memory 2 gb

molecule MOL {
0 1

H	 0.544860	 -0.729294	 1.918053
O	 1.067782	 -0.540205	 1.150817
C	 0.619777	 0.652901	 0.576576
C	 -0.793441	 0.596080	 0.058728
H	 1.298619	 0.868779	 -0.240597
H	 0.708924	 1.478973	 1.281332
C	 -1.530462	 -0.493172	 -0.025500
H	 -1.198762	 1.543111	 -0.262721
H	 -1.092586	 -1.461565	 -0.186463
H	 -2.602122	 -0.450675	 0.050101

	symmetry c1
}
set optking {
	frozen_dihedral = ("
		3 4 7 9
	")
}

ee = optimize('scf')
oeprop('DIPOLE', 'QUADRUPOLE', 'MULLIKEN_CHARGES')
f=open( 'psi4out.xyz', 'w' )
f.write( "10  " )
f.write( str(ee) + "\n" )
f.write( MOL.save_string_xyz() )
f.close()
--------------------------------------------------------------------------

    Molecular point group: c1
  Charge       = 0
  Multiplicity = 1
  Basis Set: 6-31G*
  Basis Set:
  @DF-RHF Final Energy:  -191.89704922143420
    Total Energy =                       -191.8970492214342300
    Molecular point group: c1
  Basis Set: 6-31G*
  Basis Set:
  Basis Set: 6-31G*
  Basis Set:
  @DF-RHF Final Energy:  -191.90776556603632
    Total Energy =                       -191.9077655660362893
  Basis Set: 6-31G*
  Basis Set:
  Basis Set: 6-31G*
  Basis Set:
  @DF-RHF Final Energy:  -191.91007460137109
    Total Energy =                       -191.9100746013710932
  Basis Set: 6-31G*
  Basis Set:
  Basis Set: 6-31G*
  Basis Set:
  @DF-RHF Final Energy:  -191.91022121610939
    Total Energy =                       -191.9102212161093348
  Basis Set: 6-31G*
  Basis Set:
  Basis Set: 6-31G*
  Basis Set:
  @DF-RHF Final Energy:  -191.91027666817814
    Total Energy =                       -191.9102766681780281
  Basis Set: 6-31G*
  Basis Set:
  Basis Set: 6-31G*
  Basis Set:
  @DF-RHF Final Energy:  -191.91027838673887
    Total Energy =                       -191.9102783867388098
  Basis Set: 6-31G*
  Basis Set:
  Charge       = 0
  Multiplicity = 1
  Basis Set: 6-31G*
  Basis Set:

    Orbital Energies (a.u.)
    -----------------------

    Doubly Occupied:

       1A    -20.559993     2A    -11.279723     3A    -11.235540
       4A    -11.221291     5A     -1.369410     6A     -1.059644
       7A     -0.930519     8A     -0.770207     9A     -0.687462
      10A     -0.660915    11A     -0.619041    12A     -0.568935
      13A     -0.536363    14A     -0.496342    15A     -0.446746
      16A     -0.364460

  @DF-RHF Final Energy:  -191.91027849993461

   => Energetics <=

    Nuclear Repulsion Energy =            119.3242694187412383
    One-Electron Energy =                -496.8559124229489612
    Two-Electron Energy =                 185.6213645042731741
    DFT Exchange-Correlation Energy =       0.0000000000000000
    Empirical Dispersion Energy =           0.0000000000000000
    PCM Polarization Energy =               0.0000000000000000
    EFP Energy =                            0.0000000000000000
    Total Energy =                       -191.9102784999345204
    Molecular point group: c1
  Basis Set: 6-31G*
  Basis Set:

  -Total Gradient:
     Atom            X                  Y                   Z
    ------   -----------------  -----------------  -----------------
       1       -0.000006121577    -0.000009611756     0.000002871777
       2       -0.000004139193     0.000004094351    -0.000000785272
       3       -0.004350296456     0.004153449874     0.010195056722
       4        0.007048511839    -0.007258051412    -0.023818054206
       5        0.000006577190     0.000002642060    -0.000000103169
       6        0.000005565692    -0.000000328319    -0.000004540728
       7       -0.002090146312     0.004071655915     0.029517097094
       8       -0.000030596523    -0.000025724289    -0.000026330891
       9       -0.000580555814    -0.000939971261    -0.015886855111
      10        0.000001201152     0.000001844837     0.000021643783

  **** Optimization is complete! (in 7 steps) ****
    Final optimized geometry and variables:
    Molecular point group: c1

    Geometry (in Angstrom), charge = 0, multiplicity = 1:

    H            0.643410918322    -0.856294277518     1.297547088762
    O            1.209207796400    -0.563648639033     0.595734699735
    C            0.712656569057     0.636594684757     0.083720948137
    C           -0.683449088077     0.539386904824    -0.473699611119
    H            1.416692548015     0.954501727094    -0.677192535174
    H            0.706060073866     1.414613130688     0.846349377689
    C           -1.476491280715    -0.513498664056    -0.382483715898
    H           -1.117559937438     1.494652599043    -0.729573742928
    H           -1.093257646920    -1.518351824904    -0.336852952244
    H           -2.513790925059    -0.431679123305    -0.657442025007

  Mulliken Charges: (a.u.)
   Center  Symbol    Alpha    Beta     Spin     Total
       1     H     0.28017  0.28017  0.00000  0.43966
       2     O     4.36634  4.36634  0.00000 -0.73269
       3     C     3.00328  3.00328  0.00000 -0.00656
       4     C     3.08237  3.08237  0.00000 -0.16475
       5     H     0.40984  0.40984  0.00000  0.18032
       6     H     0.42304  0.42304  0.00000  0.15392
       7     C     3.20625  3.20625  0.00000 -0.41250
       8     H     0.41170  0.41170  0.00000  0.17660
       9     H     0.40476  0.40476  0.00000  0.19048
      10     H     0.41224  0.41224  0.00000  0.17551

   Total alpha = 16.00000, Total beta = 16.00000, Total charge = -0.00000
