                              Psi4 1.0.54 Driver

  ==> Input File <==

--------------------------------------------------------------------------
set {
	reference rhf
	basis cc-pvtz
}

set_num_threads( 4 )
memory 2 gb

molecule MOL {
0 1

H	 2.351514	 2.431959	 -0.530957
N	 1.573546	 1.811957	 -0.608295
C	 1.860978	 0.530248	 0.016256
H	 1.382652	 1.699012	 -1.582026
C	 0.644130	 -0.381765	 -0.031064
H	 2.127068	 0.718178	 1.051044
H	 2.710826	 0.018399	 -0.437313
C	 -0.678115	 0.376691	 0.025731
H	 0.693998	 -0.977147	 -0.936845
H	 0.693309	 -1.082142	 0.800523
C	 -1.900706	 -0.535531	 -0.022488
H	 -0.725296	 1.079516	 -0.802982
H	 -0.715474	 0.974884	 0.933278
C	 -3.220513	 0.226854	 0.028039
H	 -1.865036	 -1.134397	 -0.928236
H	 -1.857948	 -1.236381	 0.806820
H	 -3.309098	 0.911849	 -0.808725
H	 -4.066838	 -0.449485	 -0.008086
H	 -3.301685	 0.809374	 0.939860

	symmetry c1
}
set optking {
	frozen_dihedral = ("
		6 3 5 9
	")
}

ee,wfn = optimize('scf', return_wfn=True)
oeprop( wfn, 'DIPOLE', 'QUADRUPOLE', 'MULLIKEN_CHARGES')
f=open( 'psi4out.xyz', 'w' )
f.write( "19  " )
f.write( str(ee) + "\n" )
f.write( MOL.save_string_xyz() )
f.close()
--------------------------------------------------------------------------

    Molecular point group: c1
  Charge       = 0
  Multiplicity = 1
  Basis Set: CC-PVTZ
  Basis Set:
  @DF-RHF Final Energy:  -251.44151803985966
    Total Energy =                       -251.4415180398594885
    Molecular point group: c1
  Basis Set: CC-PVTZ
  Basis Set:
  Basis Set: CC-PVTZ
  Basis Set:
  @DF-RHF Final Energy:  -251.44283850788227
    Total Energy =                       -251.4428385078820156
  Basis Set: CC-PVTZ
  Basis Set:
  Basis Set: CC-PVTZ
  Basis Set:
  @DF-RHF Final Energy:  -251.44372775135599
    Total Energy =                       -251.4437277513558229
  Basis Set: CC-PVTZ
  Basis Set:
  Basis Set: CC-PVTZ
  Basis Set:
  @DF-RHF Final Energy:  -251.44379238086589
    Total Energy =                       -251.4437923808656024
  Basis Set: CC-PVTZ
  Basis Set:
  Basis Set: CC-PVTZ
  Basis Set:
  @DF-RHF Final Energy:  -251.44379636730716
    Total Energy =                       -251.4437963673072431
  Basis Set: CC-PVTZ
  Basis Set:
  Basis Set: CC-PVTZ
  Basis Set:
  @DF-RHF Final Energy:  -251.44379747704062
    Total Energy =                       -251.4437974770409596
  Basis Set: CC-PVTZ
  Basis Set:
  Charge       = 0
  Multiplicity = 1
  Basis Set: CC-PVTZ
  Basis Set:

    Orbital Energies (a.u.)
    -----------------------

    Doubly Occupied:

       1A    -15.527593     2A    -11.239143     3A    -11.208687
       4A    -11.207356     5A    -11.202123     6A    -11.201405
       7A     -1.179014     8A     -1.067948     9A     -0.995728
      10A     -0.904772    11A     -0.812280    12A     -0.778729
      13A     -0.668312    14A     -0.632889    15A     -0.621092
      16A     -0.584766    17A     -0.566096    18A     -0.548382
      19A     -0.528916    20A     -0.496353    21A     -0.476192
      22A     -0.464168    23A     -0.452825    24A     -0.448200
      25A     -0.381632

  @DF-RHF Final Energy:  -251.44379774743234

   => Energetics <=

    Nuclear Repulsion Energy =            249.6262566792979385
    One-Electron Energy =                -833.7508952411967584
    Two-Electron Energy =                 332.6808408144667055
    DFT Exchange-Correlation Energy =       0.0000000000000000
    Empirical Dispersion Energy =           0.0000000000000000
    PCM Polarization Energy =               0.0000000000000000
    EFP Energy =                            0.0000000000000000
    Total Energy =                       -251.4437977474320860
    Molecular point group: c1
  Basis Set: CC-PVTZ
  Basis Set:

  -Total Gradient:
     Atom            X                  Y                   Z
    ------   -----------------  -----------------  -----------------
       1       -0.000001300494    -0.000010341128     0.000002264586
       2       -0.000012086884     0.000008994663     0.000008133456
       3       -0.003764885349     0.005124976771     0.000927539154
       4        0.000000964862    -0.000009000251     0.000003330850
       5       -0.002835880032     0.004538531450    -0.003697721058
       6        0.003636573952    -0.005050563728    -0.000186172906
       7       -0.000004005248     0.000004309379     0.000002233862
       8        0.000002624930     0.000003606490    -0.000002508257
       9        0.002977687825    -0.004611487694     0.002940664531
      10        0.000002572122     0.000006900220    -0.000000031212
      11       -0.000004931052    -0.000000209123    -0.000007629774
      12        0.000002065847    -0.000006208291     0.000004876811
      13        0.000003741468     0.000003924957     0.000002945347
      14       -0.000000383978    -0.000003191600     0.000002500015
      15       -0.000002148615    -0.000001156062     0.000001291186
      16       -0.000002081794     0.000003006316    -0.000002394851
      17        0.000001667737    -0.000002684758     0.000001140076
      18       -0.000000563200     0.000000803758     0.000001616639
      19        0.000000367902    -0.000000211372    -0.000002078459

  **** Optimization is complete! (in 7 steps) ****
    Final optimized geometry and variables:
    Molecular point group: c1

    Geometry (in Angstrom), charge = 0, multiplicity = 1:

    H            2.781705636812     2.066439500654    -0.349779567520
    N            1.970205909520     1.506734438781    -0.503693014110
    C            2.121347221523     0.201136830387     0.116130589007
    H            1.857199076105     1.421042120758    -1.492619965004
    C            0.879195447567    -0.686309653562    -0.016023501469
    H            2.357843783787     0.333260126438     1.166183255700
    H            2.966508223328    -0.355641951353    -0.291417631181
    C           -0.463224776751     0.021797595934     0.126557856476
    H            0.928193303077    -1.248516987272    -0.945909303902
    H            0.955043161719    -1.448250075903     0.756580622976
    C           -1.644194498782    -0.945013277141     0.108143738917
    H           -0.582909309477     0.752985096225    -0.664200451842
    H           -0.471379504639     0.586630248916     1.054981992447
    C           -2.992149150939    -0.243847118348     0.240020396485
    H           -1.626573345931    -1.517679177814    -0.815716841619
    H           -1.534527683097    -1.666289310865     0.913730998323
    H           -3.148865869059     0.458042707485    -0.572305129958
    H           -3.809814375888    -0.955659332008     0.224531172238
    H           -3.054414008554     0.311427485907     1.170036644105

  Mulliken Charges: (a.u.)
   Center  Symbol    Alpha    Beta     Spin     Total
       1     H     0.42921  0.42921  0.00000  0.14157
       2     N     3.68662  3.68662  0.00000 -0.37325
       3     C     3.03781  3.03781  0.00000 -0.07562
       4     H     0.43146  0.43146  0.00000  0.13709
       5     C     3.10353  3.10353  0.00000 -0.20707
       6     H     0.45523  0.45523  0.00000  0.08955
       7     H     0.46178  0.46178  0.00000  0.07645
       8     C     3.07328  3.07328  0.00000 -0.14655
       9     H     0.45273  0.45273  0.00000  0.09453
      10     H     0.45369  0.45369  0.00000  0.09262
      11     C     3.08462  3.08462  0.00000 -0.16925
      12     H     0.45279  0.45279  0.00000  0.09442
      13     H     0.45463  0.45463  0.00000  0.09074
      14     C     3.14969  3.14969  0.00000 -0.29938
      15     H     0.45664  0.45664  0.00000  0.08672
      16     H     0.45596  0.45596  0.00000  0.08809
      17     H     0.45543  0.45543  0.00000  0.08913
      18     H     0.44976  0.44976  0.00000  0.10048
      19     H     0.45513  0.45513  0.00000  0.08974

   Total alpha = 25.00000, Total beta = 25.00000, Total charge =  0.00000

*** Psi4 exiting successfully. Buy a developer a beer!
