  ==> Input File <==

--------------------------------------------------------------------------
set {
	reference rhf
	basis 6-31G*
}

set_num_threads( 4 )
memory 2 gb

molecule MOL {
0 1

H	 2.845955	 -0.323208	 0.022310
C	 1.900140	 0.071967	 -0.330070
C	 0.778463	 -0.508087	 0.517968
H	 1.782469	 -0.206877	 -1.370777
H	 1.922247	 1.149867	 -0.254252
N	 -0.540928	 0.005139	 0.058438
H	 0.716718	 -1.581298	 0.454712
H	 0.859711	 -0.198647	 1.550086
O	 -0.718001	 1.182799	 0.090600
O	 -1.334774	 -0.804475	 -0.314167

	symmetry c1
}
set optking {
	frozen_dihedral = ("
		9 6 3 2
	")
}

ee = optimize('scf')
oeprop('DIPOLE', 'QUADRUPOLE', 'MULLIKEN_CHARGES')
f=open( 'psi4out.xyz', 'w' )
f.write( "10  " )
f.write( str(ee) + "\n" )
f.write( MOL.save_string_xyz() )
f.close()
--------------------------------------------------------------------------

    Molecular point group: c1
  Charge       = 0
  Multiplicity = 1
  Basis Set: 6-31G*
  Basis Set:
  @DF-RHF Final Energy:  -282.70045538676061
    Total Energy =                       -282.7004553867604955
    Molecular point group: c1
  Basis Set: 6-31G*
  Basis Set:
  Basis Set: 6-31G*
  Basis Set:
  @DF-RHF Final Energy:  -282.70039820783722
    Total Energy =                       -282.7003982078372246
  Basis Set: 6-31G*
  Basis Set:
  Basis Set: 6-31G*
  Basis Set:
  @DF-RHF Final Energy:  -282.69944434396723
    Total Energy =                       -282.6994443439670590
  Basis Set: 6-31G*
  Basis Set:
  Basis Set: 6-31G*
  Basis Set:
  @DF-RHF Final Energy:  -282.70051357447744
    Total Energy =                       -282.7005135744773270
  Basis Set: 6-31G*
  Basis Set:
  Basis Set: 6-31G*
  Basis Set:
  @DF-RHF Final Energy:  -282.70051513293492
    Total Energy =                       -282.7005151329348109
  Basis Set: 6-31G*
  Basis Set:
  Charge       = 0
  Multiplicity = 1
  Basis Set: 6-31G*
  Basis Set:

    Orbital Energies (a.u.)
    -----------------------

    Doubly Occupied:

       1A    -20.604645     2A    -20.600365     3A    -15.848940
       4A    -11.303998     5A    -11.251441     6A     -1.632595
       7A     -1.418112     8A     -1.127174     9A     -0.967423
      10A     -0.836992    11A     -0.761238    12A     -0.738010
      13A     -0.725926    14A     -0.655082    15A     -0.590678
      16A     -0.562689    17A     -0.545410    18A     -0.485911
      19A     -0.478100    20A     -0.450126

  @DF-RHF Final Energy:  -282.70051535327946

   => Energetics <=

    Nuclear Repulsion Energy =            186.1851429192045373
    One-Electron Energy =                -754.6016109386428070
    Two-Electron Energy =                 285.7159526661588984
    DFT Exchange-Correlation Energy =       0.0000000000000000
    Empirical Dispersion Energy =           0.0000000000000000
    PCM Polarization Energy =               0.0000000000000000
    EFP Energy =                            0.0000000000000000
    Total Energy =                       -282.7005153532793997
    Molecular point group: c1
  Basis Set: 6-31G*
  Basis Set:

  -Total Gradient:
     Atom            X                  Y                   Z
    ------   -----------------  -----------------  -----------------
       1        0.000000692917     0.000000330951    -0.000001041615
       2        0.000001543339    -0.000008425112    -0.000005922987
       3        0.000008547107    -0.000005042287     0.000001585893
       4       -0.000000912875     0.000001288114     0.000006625374
       5        0.000001655568     0.000005089788     0.000001343704
       6        0.000025087862     0.000048699728     0.000030948240
       7        0.000005920346     0.000001078468     0.000001007047
       8       -0.000000283549    -0.000000688643    -0.000002793210
       9       -0.000019362095    -0.000062845628    -0.000018475358
      10       -0.000022888619     0.000020514621    -0.000013277086

  **** Optimization is complete! (in 6 steps) ****
    Final optimized geometry and variables:
    Molecular point group: c1

    Geometry (in Angstrom), charge = 0, multiplicity = 1:

    H            2.846684241103    -0.314874549213     0.024676572253
    C            1.899906407770     0.076867091846    -0.328636681444
    C            0.779409150186    -0.505272247651     0.519721489447
    H            1.783429933537    -0.203739261809    -1.368990480961
    H            1.918771232567     1.155060563487    -0.254222260433
    N           -0.540881183441     0.003698242638     0.058042845714
    H            0.721044574130    -1.578718207261     0.457725632465
    H            0.859227751677    -0.193996662568     1.551319381830
    O           -0.706389001012     1.185014132555     0.094100669878
    O           -1.342421942239    -0.795250591804    -0.314140422121

  Mulliken Charges: (a.u.)
   Center  Symbol    Alpha    Beta     Spin     Total
       1     H     0.40586  0.40586  0.00000  0.18828
       2     C     3.25700  3.25700  0.00000 -0.51400
       3     C     3.09262  3.09262  0.00000 -0.18524
       4     H     0.40270  0.40270  0.00000  0.19460
       5     H     0.39281  0.39281  0.00000  0.21439
       6     N     3.21882  3.21882  0.00000  0.56237
       7     H     0.38534  0.38534  0.00000  0.22933
       8     H     0.38711  0.38711  0.00000  0.22579
       9     O     4.23045  4.23045  0.00000 -0.46090
      10     O     4.22730  4.22730  0.00000 -0.45460

   Total alpha = 20.00000, Total beta = 20.00000, Total charge = -0.00000
