  ==> Input File <==

--------------------------------------------------------------------------
set {
	reference rhf
	basis 6-31G*
}

set_num_threads( 1 )
memory 2 gb

molecule MOL {
0 1

H	 0.855364	 4.565546	 -1.509301
C	 1.710082	 4.644456	 -0.826035
C	 1.441788	 4.188217	 0.585516
O	 2.750128	 5.065628	 -1.216764
C	 0.835025	 2.779410	 0.643451
H	 2.367739	 4.246745	 1.145782
H	 0.741144	 4.898160	 1.023391
C	 1.794696	 1.681859	 0.176854
H	 0.527544	 2.579178	 1.665530
H	 -0.073292	 2.752321	 0.043465
C	 1.180775	 0.282413	 0.250794
H	 2.696430	 1.715497	 0.784794
H	 2.113287	 1.880008	 -0.844800
C	 2.148627	 -0.814315	 -0.201312
H	 0.855170	 0.094241	 1.270747
H	 0.285135	 0.248479	 -0.368126
C	 3.580890	 -0.659131	 0.322722
H	 2.166869	 -0.852443	 -1.289387
H	 1.762857	 -1.776509	 0.128956
C	 4.324889	 0.564933	 -0.213704
H	 4.142010	 -1.551473	 0.056605
H	 3.564836	 -0.624694	 1.410140
H	 4.342616	 0.565491	 -1.300421
H	 3.866655	 1.493402	 0.110242
H	 5.353900	 0.572371	 0.132816

	symmetry c1
}
set optking {
	frozen_dihedral = ("
		6 3 5 8,
		6 3 2 4,
		3 5 8 12,
		12 8 11 14,
		20 17 14 18
	")
}

ee = energy('scf')
oeprop('DIPOLE', 'QUADRUPOLE', 'MULLIKEN_CHARGES')
f=open( 'psi4out.xyz', 'w' )
f.write( "25  " )
f.write( str(ee) + "\n" )
f.write( MOL.save_string_xyz() )
f.close()
--------------------------------------------------------------------------

    Molecular point group: c1

    Geometry (in Angstrom), charge = 0, multiplicity = 1:

       Center              X                  Y                   Z               Mass
    ------------   -----------------  -----------------  -----------------  -----------------
           H         -1.361586188229     2.582972684228    -1.445900195867     1.007825032070
           C         -0.506868188229     2.661882684228    -0.762634195867    12.000000000000
           C         -0.775162188229     2.205643684228     0.648916804133    12.000000000000
           O          0.533177811771     3.083054684228    -1.153363195867    15.994914619560
           C         -1.381925188229     0.796836684228     0.706851804133    12.000000000000
           H          0.150788811771     2.264171684228     1.209182804133     1.007825032070
           H         -1.475806188229     2.915586684228     1.086791804133     1.007825032070
           C         -0.422254188229    -0.300714315772     0.240254804133    12.000000000000
           H         -1.689406188229     0.596604684228     1.728930804133     1.007825032070
           H         -2.290242188229     0.769747684228     0.106865804133     1.007825032070
           C         -1.036175188229    -1.700160315772     0.314194804133    12.000000000000
           H          0.479479811771    -0.267076315772     0.848194804133     1.007825032070
           H         -0.103663188229    -0.102565315772    -0.781399195867     1.007825032070
           C         -0.068323188229    -2.796888315772    -0.137911195867    12.000000000000
           H         -1.361780188229    -1.888332315772     1.334147804133     1.007825032070
           H         -1.931815188229    -1.734094315772    -0.304725195867     1.007825032070
           C          1.363939811771    -2.641704315772     0.386122804133    12.000000000000
           H         -0.050081188229    -2.835016315772    -1.225986195867     1.007825032070
           H         -0.454093188229    -3.759082315772     0.192356804133     1.007825032070
           C          2.107938811771    -1.417640315772    -0.150303195867    12.000000000000
           H          1.925059811771    -3.534046315772     0.120005804133     1.007825032070
           H          1.347885811771    -2.607267315772     1.473540804133     1.007825032070
           H          2.125665811771    -1.417082315772    -1.237020195867     1.007825032070
           H          1.649704811771    -0.489171315772     0.173642804133     1.007825032070
           H          3.136949811771    -1.410202315772     0.196216804133     1.007825032070

  Charge       = 0
  Multiplicity = 1
  Basis Set: 6-31G*
  Basis Set:

    Orbital Energies (a.u.)
    -----------------------

    Doubly Occupied:

       1A    -20.562428     2A    -11.326464     3A    -11.234965
       4A    -11.233350     5A    -11.220800     6A    -11.219940
       7A    -11.217180     8A    -11.216576     9A    -11.199117
      10A     -1.402438    11A     -1.108924    12A     -1.068686
      13A     -1.004915    14A     -0.954084    15A     -0.878033
      16A     -0.818061    17A     -0.789505    18A     -0.779890
      19A     -0.671742    20A     -0.664015    21A     -0.634143
      22A     -0.623731    23A     -0.605654    24A     -0.594692
      25A     -0.569845    26A     -0.551373    27A     -0.542250
      28A     -0.521903    29A     -0.518218    30A     -0.498108
      31A     -0.488289    32A     -0.474227    33A     -0.461354
      34A     -0.446796    35A     -0.428789    36A     -0.409401

  @DF-RHF Final Energy:  -387.08862652364223

   => Energetics <=

    Nuclear Repulsion Energy =            461.0172139362850885
    One-Electron Energy =               -1438.3317985076691912
    Two-Electron Energy =                 590.2259580477400505
    DFT Exchange-Correlation Energy =       0.0000000000000000
    Empirical Dispersion Energy =           0.0000000000000000
    PCM Polarization Energy =               0.0000000000000000
    EFP Energy =                            0.0000000000000000
    Total Energy =                       -387.0886265236440522

  Mulliken Charges: (a.u.)
   Center  Symbol    Alpha    Beta     Spin     Total
       1     H     0.43225  0.43225  0.00000  0.13550
       2     C     2.83098  2.83098  0.00000  0.33803
       3     C     3.20857  3.20857  0.00000 -0.41714
       4     O     4.23799  4.23799  0.00000 -0.47598
       5     C     3.16303  3.16303  0.00000 -0.32605
       6     H     0.40078  0.40078  0.00000  0.19845
       7     H     0.40637  0.40637  0.00000  0.18726
       8     C     3.16839  3.16839  0.00000 -0.33679
       9     H     0.41357  0.41357  0.00000  0.17285
      10     H     0.42084  0.42084  0.00000  0.15833
      11     C     3.14941  3.14941  0.00000 -0.29881
      12     H     0.41277  0.41277  0.00000  0.17445
      13     H     0.41523  0.41523  0.00000  0.16953
      14     C     3.15404  3.15404  0.00000 -0.30808
      15     H     0.42242  0.42242  0.00000  0.15516
      16     H     0.42118  0.42118  0.00000  0.15765
      17     C     3.15946  3.15946  0.00000 -0.31892
      18     H     0.42242  0.42242  0.00000  0.15517
      19     H     0.41960  0.41960  0.00000  0.16080
      20     C     3.24320  3.24320  0.00000 -0.48639
      21     H     0.41771  0.41771  0.00000  0.16457
      22     H     0.42404  0.42404  0.00000  0.15192
      23     H     0.42116  0.42116  0.00000  0.15767
      24     H     0.41443  0.41443  0.00000  0.17115
      25     H     0.42016  0.42016  0.00000  0.15967

   Total alpha = 36.00000, Total beta = 36.00000, Total charge = -0.00000
