  ==> Input File <==

--------------------------------------------------------------------------
set {
	reference rhf
	basis cc-pvtz
}

set_num_threads( 4 )
memory 2 gb

molecule MOL {
0 1

O	 0.979430	 1.678404	 0.496439
C	 0.432185	 1.213482	 1.437412
C	 -0.843496	 0.411770	 1.400516
O	 0.883379	 1.342115	 2.674446
C	 -1.413045	 0.229353	 0.001137
H	 -0.634526	 -0.545106	 1.867635
H	 -1.554085	 0.909491	 2.052281
C	 -2.702562	 -0.586401	 0.000228
H	 -0.672627	 -0.253439	 -0.626744
H	 -1.593675	 1.202391	 -0.441710
C	 -3.953810	 0.284959	 -0.000782
H	 -2.717793	 -1.238567	 -0.869075
H	 -2.719108	 -1.238472	 0.869576
H	 -3.983727	 0.924403	 -0.876454
H	 -4.852989	 -0.320147	 -0.001515
H	 -3.985140	 0.924399	 0.874841
C	 2.078344	 2.074406	 2.856456
H	 2.894392	 1.611693	 2.321489
H	 2.275007	 2.064463	 3.916216
H	 1.959973	 3.089946	 2.508763

	symmetry c1
}
set optking {
	frozen_dihedral = ("
		9 5 8 12
	")
}

ee = optimize('scf')
oeprop('DIPOLE', 'QUADRUPOLE', 'MULLIKEN_CHARGES')
f=open( 'psi4out.xyz', 'w' )
f.write( "20  " )
f.write( str(ee) + "\n" )
f.write( MOL.save_string_xyz() )
f.close()
--------------------------------------------------------------------------

    Molecular point group: c1
  Charge       = 0
  Multiplicity = 1
  Basis Set: CC-PVTZ
  Basis Set:
  @DF-RHF Final Energy:  -384.07892035532376
    Total Energy =                       -384.0789203553243851
    Molecular point group: c1
  Basis Set: CC-PVTZ
  Basis Set:
  Basis Set: CC-PVTZ
  Basis Set:
  @DF-RHF Final Energy:  -384.07923355833992
    Total Energy =                       -384.0792335583398653
  Basis Set: CC-PVTZ
  Basis Set:
  Basis Set: CC-PVTZ
  Basis Set:
  @DF-RHF Final Energy:  -384.07899556871962
    Total Energy =                       -384.0789955687193924
  Basis Set: CC-PVTZ
  Basis Set:
  Basis Set: CC-PVTZ
  Basis Set:
  @DF-RHF Final Energy:  -384.07929436265528
    Total Energy =                       -384.0792943626552187
  Basis Set: CC-PVTZ
  Basis Set:
  Charge       = 0
  Multiplicity = 1
  Basis Set: CC-PVTZ
  Basis Set:

    Orbital Energies (a.u.)
    -----------------------

    Doubly Occupied:

       1A    -20.596453     2A    -20.534333     3A    -11.364690
       4A    -11.278588     5A    -11.234403     6A    -11.218220
       7A    -11.217043     8A    -11.210571     9A     -1.472358
      10A     -1.365952    11A     -1.088905    12A     -1.024237
      13A     -0.969337    14A     -0.890826    15A     -0.803545
      16A     -0.768725    17A     -0.703104    18A     -0.685882
      19A     -0.676548    20A     -0.632611    21A     -0.610802
      22A     -0.596719    23A     -0.573764    24A     -0.547189
      25A     -0.527977    26A     -0.525113    27A     -0.515400
      28A     -0.474975    29A     -0.474069    30A     -0.466755
      31A     -0.458648    32A     -0.440102

  @DF-RHF Final Energy:  -384.07929859378675

   => Energetics <=

    Nuclear Repulsion Energy =            384.0797422086529309
    One-Electron Energy =               -1284.4223902477992851
    Two-Electron Energy =                 516.2633494453597223
    DFT Exchange-Correlation Energy =       0.0000000000000000
    Empirical Dispersion Energy =           0.0000000000000000
    PCM Polarization Energy =               0.0000000000000000
    EFP Energy =                            0.0000000000000000
    Total Energy =                       -384.0792985937865751
    Molecular point group: c1
  Basis Set: CC-PVTZ
  Basis Set:

  -Total Gradient:
     Atom            X                  Y                   Z
    ------   -----------------  -----------------  -----------------
       1        0.000027666788    -0.000008952333    -0.000013939941
       2       -0.000048390413     0.000034089263    -0.000001982565
       3        0.000011235185    -0.000010726332     0.000099828297
       4       -0.000004267961    -0.000019293608    -0.000016872745
       5        0.001763309327    -0.002965115839     0.003837341166
       6       -0.000005401423    -0.000004302793    -0.000003977736
       7       -0.000003808299    -0.000004962633     0.000005303148
       8       -0.002148505301     0.003571075991    -0.002996137068
       9       -0.001135861379     0.001962188443    -0.002803889397
      10        0.000024078227    -0.000029375914    -0.000013453906
      11       -0.000055084763     0.000095271046     0.000001501707
      12        0.001535610091    -0.002594174949     0.001938328146
      13       -0.000003126621    -0.000010546819    -0.000037348184
      14        0.000009889625     0.000006619050    -0.000003953558
      15        0.000029127209    -0.000022697290     0.000001951131
      16       -0.000000112010    -0.000000996020     0.000006463585
      17        0.000002687166     0.000002944304     0.000001099788
      18       -0.000000365991    -0.000000016949    -0.000000163934
      19        0.000001144227     0.000000018283    -0.000000066269
      20        0.000000176315    -0.000001044901    -0.000000031665

  **** Optimization is complete! (in 5 steps) ****
    Final optimized geometry and variables:
    Molecular point group: c1

    Geometry (in Angstrom), charge = 0, multiplicity = 1:

    O            1.514691704761     0.833967614518    -0.627839955085
    C            0.973245096811     0.358022474237     0.310963007019
    C           -0.288826221518    -0.464962244044     0.270145792527
    O            1.420326873324     0.490345900556     1.549160789048
    C           -0.849355393521    -0.659998759466    -1.131517731801
    H           -0.065538108640    -1.417815050307     0.738173055178
    H           -1.009054872151     0.021521555688     0.919700847969
    C           -2.175820704224    -1.436178458630    -1.144992742045
    H           -0.116299469055    -1.154208961795    -1.756273434666
    H           -0.994276935151     0.311783331770    -1.589893163380
    C           -3.411561013451    -0.542853488242    -1.107315286865
    H           -2.209214001841    -2.078994009549    -2.017385893788
    H           -2.204080046146    -2.115375302432    -0.296637265256
    H           -3.457318931436     0.093554554463    -1.984124242577
    H           -4.320641413212    -1.132308633097    -1.075944128988
    H           -3.407839903389     0.101225483279    -0.233932887494
    C            2.603481812101     1.240532485505     1.735159095676
    H            3.427471777400     0.791931603892     1.200340218092
    H            2.798562298784     1.230807504303     2.795218686687
    H            2.470010731297     2.255053657409     1.389956601477

  Mulliken Charges: (a.u.)
   Center  Symbol    Alpha    Beta     Spin     Total
       1     O     4.19665  4.19665  0.00000 -0.39330
       2     C     2.80636  2.80636  0.00000  0.38728
       3     C     3.09923  3.09923  0.00000 -0.19846
       4     O     4.14710  4.14710  0.00000 -0.29420
       5     C     3.08951  3.08951  0.00000 -0.17902
       6     H     0.43954  0.43954  0.00000  0.12093
       7     H     0.44006  0.44006  0.00000  0.11987
       8     C     3.09330  3.09330  0.00000 -0.18661
       9     H     0.44095  0.44095  0.00000  0.11809
      10     H     0.44810  0.44810  0.00000  0.10380
      11     C     3.14665  3.14665  0.00000 -0.29331
      12     H     0.44552  0.44552  0.00000  0.10896
      13     H     0.45792  0.45792  0.00000  0.08416
      14     H     0.45288  0.45288  0.00000  0.09424
      15     H     0.44819  0.44819  0.00000  0.10363
      16     H     0.45644  0.45644  0.00000  0.08712
      17     C     3.03772  3.03772  0.00000 -0.07544
      18     H     0.45430  0.45430  0.00000  0.09140
      19     H     0.44529  0.44529  0.00000  0.10942
      20     H     0.45429  0.45429  0.00000  0.09141

   Total alpha = 32.00000, Total beta = 32.00000, Total charge = -0.00000
