                              Psi4 1.0.54 Driver

  ==> Input File <==

--------------------------------------------------------------------------
set {
	reference rhf
	basis cc-pvtz
}

set_num_threads( 4 )
memory 2 gb

molecule MOL {
0 1

H	 1.056649	 0.990570	 1.903651
C	 0.123368	 1.090974	 1.369219
O	 0.000000	 0.000000	 0.518769
H	 -0.690689	 1.128361	 2.090169
H	 0.135570	 2.027969	 0.816276
C	 -1.165153	 0.000000	 -0.236961
H	 -1.229451	 0.882440	 -0.870223
H	 -2.002557	 0.000000	 0.445289
H	 -1.229451	 -0.882440	 -0.870223

	symmetry c1
}
set optking {
	frozen_dihedral = ("
		2 3 6 7
	")
}

ee,wfn = optimize('scf', return_wfn=True)
oeprop( wfn, 'DIPOLE', 'QUADRUPOLE', 'MULLIKEN_CHARGES')
f=open( 'psi4out.xyz', 'w' )
f.write( "9  " )
f.write( str(ee) + "\n" )
f.write( MOL.save_string_xyz() )
f.close()
--------------------------------------------------------------------------

    Molecular point group: c1
  Charge       = 0
  Multiplicity = 1
  Basis Set: CC-PVTZ
  Basis Set:
  @DF-RHF Final Energy:  -154.12616887126268
    Total Energy =                       -154.1261688712626210
    Molecular point group: c1
  Basis Set: CC-PVTZ
  Basis Set:
  Basis Set: CC-PVTZ
  Basis Set:
  @DF-RHF Final Energy:  -154.12697207719759
    Total Energy =                       -154.1269720771977063
  Basis Set: CC-PVTZ
  Basis Set:
  Basis Set: CC-PVTZ
  Basis Set:
  @DF-RHF Final Energy:  -154.12719358491171
    Total Energy =                       -154.1271935849117369
  Basis Set: CC-PVTZ
  Basis Set:
  Charge       = 0
  Multiplicity = 1
  Basis Set: CC-PVTZ
  Basis Set:

    Orbital Energies (a.u.)
    -----------------------

    Doubly Occupied:

       1A    -20.550447     2A    -11.263252     3A    -11.263217
       4A     -1.383007     5A     -0.975898     6A     -0.872744
       7A     -0.664276     8A     -0.655941     9A     -0.647143
      10A     -0.551528    11A     -0.529846    12A     -0.477092
      13A     -0.420477

  @DF-RHF Final Energy:  -154.12719491714043

   => Energetics <=

    Nuclear Repulsion Energy =             84.8701168041519907
    One-Electron Energy =                -377.4848847518092043
    Two-Electron Energy =                 138.4875730305167849
    DFT Exchange-Correlation Energy =       0.0000000000000000
    Empirical Dispersion Energy =           0.0000000000000000
    PCM Polarization Energy =               0.0000000000000000
    EFP Energy =                            0.0000000000000000
    Total Energy =                       -154.1271949171404572
    Molecular point group: c1
  Basis Set: CC-PVTZ
  Basis Set:

  -Total Gradient:
     Atom            X                  Y                   Z
    ------   -----------------  -----------------  -----------------
       1       -0.000014520134    -0.000080453664    -0.000052754476
       2       -0.000106860305     0.000141675955    -0.000132735201
       3       -0.000098156074    -0.000124110116     0.000034548520
       4        0.000009832879    -0.000021945719     0.000009781798
       5        0.000019510192     0.000024730491     0.000016585378
       6        0.000072158365     0.000001316508    -0.000025656904
       7        0.000014741993     0.000061821477     0.000088737156
       8        0.000039148952    -0.000004158329     0.000023287377
       9        0.000064144133     0.000001123396     0.000038206352

  **** Optimization is complete! (in 4 steps) ****
    Final optimized geometry and variables:
    Molecular point group: c1

    Geometry (in Angstrom), charge = 0, multiplicity = 1:

    H            1.444056658738     0.586725578117     1.333501205320
    C            0.503147099092     0.703400608841     0.815696240584
    O            0.352543110163    -0.378277223843    -0.042087112674
    H           -0.298246381558     0.744023574231     1.550717591548
    H            0.517452683632     1.645390389821     0.271130637851
    C           -0.825211007568    -0.357883205291    -0.777300042775
    H           -0.889893673557     0.531160662268    -1.401419613524
    H           -1.699438921540    -0.386627733597    -0.129985877443
    H           -0.834285574807    -1.231154950742    -1.413167873175

  Mulliken Charges: (a.u.)
   Center  Symbol    Alpha    Beta     Spin     Total
       1     H     0.44827  0.44827  0.00000  0.10346
       2     C     3.02200  3.02200  0.00000 -0.04400
       3     O     4.16709  4.16709  0.00000 -0.33418
       4     H     0.47313  0.47313  0.00000  0.05373
       5     H     0.47304  0.47304  0.00000  0.05392
       6     C     3.02198  3.02198  0.00000 -0.04396
       7     H     0.47323  0.47323  0.00000  0.05353
       8     H     0.47299  0.47299  0.00000  0.05402
       9     H     0.44827  0.44827  0.00000  0.10347

   Total alpha = 13.00000, Total beta = 13.00000, Total charge =  0.00000

*** Psi4 exiting successfully. Buy a developer a beer!
