  ==> Input File <==

--------------------------------------------------------------------------
set {
	reference rhf
	basis cc-pvtz
}

set_num_threads( 4 )
memory 2 gb

molecule MOL {
0 1

H	 -0.000342	 -0.223902	 -3.352295
C	 -0.027146	 0.371068	 -2.446756
C	 0.024493	 -0.518541	 -1.216015
H	 -0.932586	 0.964979	 -2.449855
H	 0.819708	 1.049865	 -2.473332
N	 -0.042516	 0.263377	 -0.000000
H	 -0.822211	 -1.197105	 -1.225584
H	 0.921114	 -1.142847	 -1.255206
C	 0.024493	 -0.518541	 1.216015
H	 0.682568	 0.950412	 -0.000000
C	 -1.322416	 -1.139028	 1.547115
H	 0.757641	 -1.304917	 1.069200
H	 0.372176	 0.072909	 2.067207
H	 -1.662955	 -1.767045	 0.733365
H	 -1.257363	 -1.741683	 2.445605
H	 -2.073296	 -0.373645	 1.717411

	symmetry c1
}
set optking {
	frozen_dihedral = ("
		12 9 6 3
	")
}

ee = optimize('scf')
oeprop('DIPOLE', 'QUADRUPOLE', 'MULLIKEN_CHARGES')
f=open( 'psi4out.xyz', 'w' )
f.write( "16  " )
f.write( str(ee) + "\n" )
f.write( MOL.save_string_xyz() )
f.close()
--------------------------------------------------------------------------

    Molecular point group: c1
  Charge       = 0
  Multiplicity = 1
  Basis Set: CC-PVTZ
  Basis Set:
  @DF-RHF Final Energy:  -212.39097417372486
    Total Energy =                       -212.3909741737248851
    Molecular point group: c1
  Basis Set: CC-PVTZ
  Basis Set:
  Basis Set: CC-PVTZ
  Basis Set:
  @DF-RHF Final Energy:  -212.39233129925023
    Total Energy =                       -212.3923312992500883
  Basis Set: CC-PVTZ
  Basis Set:
  Basis Set: CC-PVTZ
  Basis Set:
  @DF-RHF Final Energy:  -212.39258346740010
    Total Energy =                       -212.3925834673999589
  Basis Set: CC-PVTZ
  Basis Set:
  Charge       = 0
  Multiplicity = 1
  Basis Set: CC-PVTZ
  Basis Set:

    Orbital Energies (a.u.)
    -----------------------

    Doubly Occupied:

       1A    -15.528953     2A    -11.239699     3A    -11.238897
       4A    -11.206835     5A    -11.201936     6A     -1.205717
       7A     -1.025682     8A     -0.966992     9A     -0.845414
      10A     -0.802835    11A     -0.664154    12A     -0.628740
      13A     -0.615565    14A     -0.581254    15A     -0.538528
      16A     -0.528581    17A     -0.508987    18A     -0.493473
      19A     -0.482640    20A     -0.467444    21A     -0.362316

  @DF-RHF Final Energy:  -212.39258707989353

   => Energetics <=

    Nuclear Repulsion Energy =            191.1045172620914059
    One-Electron Energy =                -664.7249258553880509
    Two-Electron Energy =                 261.2278215134031711
    DFT Exchange-Correlation Energy =       0.0000000000000000
    Empirical Dispersion Energy =           0.0000000000000000
    PCM Polarization Energy =               0.0000000000000000
    EFP Energy =                            0.0000000000000000
    Total Energy =                       -212.3925870798934739
    Molecular point group: c1
  Basis Set: CC-PVTZ
  Basis Set:

  -Total Gradient:
     Atom            X                  Y                   Z
    ------   -----------------  -----------------  -----------------
       1       -0.000001649864    -0.000017931795     0.000021585877
       2        0.000021697057     0.000036262536     0.000045776185
       3        0.000669281271     0.000060276840     0.000046421256
       4       -0.000004066655     0.000000233026    -0.000000678939
       5        0.000002210248     0.000010129825    -0.000006751784
       6       -0.001095492547    -0.000175707622    -0.000227449664
       7       -0.000025042541    -0.000020745380     0.000018159869
       8        0.000004506045     0.000020091856     0.000009973395
       9        0.000966773893     0.000581000635     0.000349255578
      10       -0.000021041667     0.000014778317    -0.000019825118
      11        0.000105176731     0.000041040833     0.000024466118
      12       -0.000599167699    -0.000571538824    -0.000279349339
      13       -0.000039062602    -0.000008719836     0.000002615888
      14        0.000028786004     0.000031563139     0.000005067313
      15       -0.000004960996    -0.000020396314     0.000024622384
      16       -0.000007946680     0.000019662763    -0.000013889017

  **** Optimization is complete! (in 4 steps) ****
    Final optimized geometry and variables:
    Molecular point group: c1

    Geometry (in Angstrom), charge = 0, multiplicity = 1:

    H            0.301430261424     0.140244651171    -3.186240314667
    C            0.253356872449     0.713869462668    -2.267890971271
    C            0.296130710105    -0.203531165162    -1.057319750883
    H           -0.658782949034     1.297393965966    -2.271967204103
    H            1.092470871509     1.402806975938    -2.265038371561
    N            0.213557274963     0.555384296388     0.173992354467
    H           -0.542850858429    -0.888005151995    -1.100507318354
    H            1.199496446119    -0.817800497005    -1.096571698665
    C            0.284207912035    -0.232318004112     1.391969796965
    H            0.933681094307     1.244933184829     0.180749591430
    C           -1.062445694301    -0.827711396831     1.780154505438
    H            1.019865726623    -1.035696105736     1.311056627125
    H            0.618359126641     0.419879757836     2.190325459804
    H           -1.430945359456    -1.510686474084     1.024112790501
    H           -0.978502859365    -1.381370611391     2.709227934713
    H           -1.797771641703    -0.043325845502     1.910115560573

  Mulliken Charges: (a.u.)
   Center  Symbol    Alpha    Beta     Spin     Total
       1     H     0.45412  0.45412  0.00000  0.09176
       2     C     3.14283  3.14283  0.00000 -0.28567
       3     C     3.02314  3.02314  0.00000 -0.04628
       4     H     0.44926  0.44926  0.00000  0.10148
       5     H     0.45937  0.45937  0.00000  0.08125
       6     N     3.63803  3.63803  0.00000 -0.27605
       7     H     0.45764  0.45764  0.00000  0.08472
       8     H     0.47291  0.47291  0.00000  0.05417
       9     C     3.03351  3.03351  0.00000 -0.06702
      10     H     0.44295  0.44295  0.00000  0.11410
      11     C     3.13755  3.13755  0.00000 -0.27511
      12     H     0.47165  0.47165  0.00000  0.05671
      13     H     0.45409  0.45409  0.00000  0.09182
      14     H     0.45676  0.45676  0.00000  0.08647
      15     H     0.45436  0.45436  0.00000  0.09129
      16     H     0.45182  0.45182  0.00000  0.09637

   Total alpha = 21.00000, Total beta = 21.00000, Total charge =  0.00000
