  ==> Input File <==

--------------------------------------------------------------------------
set {
	reference rhf
	basis 6-31G*
}

set_num_threads( 1 )
memory 2 gb

molecule MOL {
0 1

H	 -2.499100	 -0.730091	 -0.745082
O	 -2.347518	 -0.290803	 0.079804
C	 -1.184022	 0.487508	 -0.006784
C	 0.062599	 -0.378592	 0.031606
H	 -1.176523	 1.099369	 -0.904519
H	 -1.187323	 1.153111	 0.844927
O	 1.171513	 0.459272	 -0.058250
H	 0.050699	 -1.089204	 -0.797170
H	 0.078739	 -0.954914	 0.954740
C	 1.786342	 0.735896	 1.160194
H	 2.152975	 -0.171760	 1.635979
H	 2.623736	 1.390536	 0.962406
H	 1.103428	 1.233305	 1.845763

	symmetry c1
}
set optking {
	frozen_dihedral = ("
		8 4 3 5,
		1 2 3 5,
		4 7 10 13
	")
}

ee = energy('scf')
oeprop('DIPOLE', 'QUADRUPOLE', 'MULLIKEN_CHARGES')
f=open( 'psi4out.xyz', 'w' )
f.write( "13  " )
f.write( str(ee) + "\n" )
f.write( MOL.save_string_xyz() )
f.close()
--------------------------------------------------------------------------

    Molecular point group: c1

    Geometry (in Angstrom), charge = 0, multiplicity = 1:

       Center              X                  Y                   Z               Mass
    ------------   -----------------  -----------------  -----------------  -----------------
           H         -2.371878973571    -0.924402324902    -0.986911255196     1.007825032070
           O         -2.220296973571    -0.485114324902    -0.162025255196    15.994914619560
           C         -1.056800973571     0.293196675098    -0.248613255196    12.000000000000
           C          0.189820026429    -0.572903324902    -0.210223255196    12.000000000000
           H         -1.049301973571     0.905057675098    -1.146348255196     1.007825032070
           H         -1.060101973571     0.958799675098     0.603097744804     1.007825032070
           O          1.298734026429     0.264960675098    -0.300079255196    15.994914619560
           H          0.177920026429    -1.283515324902    -1.038999255196     1.007825032070
           H          0.205960026429    -1.149225324902     0.712910744804     1.007825032070
           C          1.913563026429     0.541584675098     0.918364744804    12.000000000000
           H          2.280196026429    -0.366071324902     1.394149744804     1.007825032070
           H          2.750957026429     1.196224675098     0.720576744804     1.007825032070
           H          1.230649026429     1.038993675098     1.603933744804     1.007825032070

  Charge       = 0
  Multiplicity = 1
  Basis Set: 6-31G*
  Basis Set:

    Orbital Energies (a.u.)
    -----------------------

    Doubly Occupied:

       1A    -20.560778     2A    -20.559158     3A    -11.270900
       4A    -11.270653     5A    -11.267667     6A     -1.389209
       7A     -1.364516     8A     -1.015037     9A     -0.921998
      10A     -0.838390    11A     -0.709121    12A     -0.677538
      13A     -0.655260    14A     -0.639571    15A     -0.594560
      16A     -0.575672    17A     -0.529520    18A     -0.507340
      19A     -0.473681    20A     -0.458791    21A     -0.404559

  @DF-RHF Final Energy:  -267.94689843319100

   => Energetics <=

    Nuclear Repulsion Energy =            192.3313630908253060
    One-Electron Energy =                -747.1886893941534709
    Two-Electron Energy =                 286.9104278701372550
    DFT Exchange-Correlation Energy =       0.0000000000000000
    Empirical Dispersion Energy =           0.0000000000000000
    PCM Polarization Energy =               0.0000000000000000
    EFP Energy =                            0.0000000000000000
    Total Energy =                       -267.9468984331908814

  Mulliken Charges: (a.u.)
   Center  Symbol    Alpha    Beta     Spin     Total
       1     H     0.28113  0.28113  0.00000  0.43774
       2     O     4.37168  4.37168  0.00000 -0.74336
       3     C     3.00286  3.00286  0.00000 -0.00572
       4     C     3.00819  3.00819  0.00000 -0.01638
       5     H     0.42180  0.42180  0.00000  0.15640
       6     H     0.41523  0.41523  0.00000  0.16955
       7     O     4.30561  4.30561  0.00000 -0.61121
       8     H     0.42278  0.42278  0.00000  0.15445
       9     H     0.42211  0.42211  0.00000  0.15579
      10     C     3.08263  3.08263  0.00000 -0.16527
      11     H     0.42622  0.42622  0.00000  0.14756
      12     H     0.41065  0.41065  0.00000  0.17871
      13     H     0.42912  0.42912  0.00000  0.14176

   Total alpha = 21.00000, Total beta = 21.00000, Total charge =  0.00000
