  ==> Input File <==

--------------------------------------------------------------------------
set {
	reference rhf
	basis 6-31G*
}

set_num_threads( 4 )
memory 2 gb

molecule MOL {
0 1

O	 -1.086057	 -1.024968	 -2.096295
C	 -0.422116	 -1.091073	 -1.112143
C	 0.825513	 -1.927364	 -0.956247
O	 -0.698257	 -0.426125	 0.001050
C	 1.180754	 -2.710651	 -2.213718
H	 0.669583	 -2.588924	 -0.109328
H	 1.630731	 -1.258982	 -0.666153
H	 0.381712	 -3.387899	 -2.489817
H	 2.081229	 -3.292931	 -2.049675
H	 1.351880	 -2.045907	 -3.051665
C	 -1.853104	 0.406779	 0.000512
C	 -3.066105	 -0.499277	 -0.000959
H	 -1.828410	 1.043074	 -0.873618
H	 -1.829857	 1.042383	 0.875188
H	 -3.071820	 -1.133106	 -0.880383
H	 -3.972708	 0.097145	 -0.001528
H	 -3.073405	 -1.133813	 0.877999

	symmetry c1
}
set optking {
	frozen_dihedral = ("
		2 4 11 13
	")
}

ee = optimize('scf')
oeprop('DIPOLE', 'QUADRUPOLE', 'MULLIKEN_CHARGES')
f=open( 'psi4out.xyz', 'w' )
f.write( "17  " )
f.write( str(ee) + "\n" )
f.write( MOL.save_string_xyz() )
f.close()
--------------------------------------------------------------------------

    Molecular point group: c1
  Charge       = 0
  Multiplicity = 1
  Basis Set: 6-31G*
  Basis Set:
  @DF-RHF Final Energy:  -344.90752730974231
    Total Energy =                       -344.9075273097423633
    Molecular point group: c1
  Basis Set: 6-31G*
  Basis Set:
  Basis Set: 6-31G*
  Basis Set:
  @DF-RHF Final Energy:  -344.91044243480781
    Total Energy =                       -344.9104424348074076
  Basis Set: 6-31G*
  Basis Set:
  Basis Set: 6-31G*
  Basis Set:
  @DF-RHF Final Energy:  -344.91059010394872
    Total Energy =                       -344.9105901039489481
  Basis Set: 6-31G*
  Basis Set:
  Basis Set: 6-31G*
  Basis Set:
  @DF-RHF Final Energy:  -344.90969823843608
    Total Energy =                       -344.9096982384361354
  Basis Set: 6-31G*
  Basis Set:
  Basis Set: 6-31G*
  Basis Set:
  @DF-RHF Final Energy:  -344.91089072872410
    Total Energy =                       -344.9108907287243255
  Basis Set: 6-31G*
  Basis Set:
  Basis Set: 6-31G*
  Basis Set:
  @DF-RHF Final Energy:  -344.91090195365484
    Total Energy =                       -344.9109019536546157
  Basis Set: 6-31G*
  Basis Set:
  Charge       = 0
  Multiplicity = 1
  Basis Set: 6-31G*
  Basis Set:

    Orbital Energies (a.u.)
    -----------------------

    Doubly Occupied:

       1A    -20.600639     2A    -20.544517     3A    -11.372322
       4A    -11.285554     5A    -11.237421     6A    -11.217130
       7A    -11.215805     8A     -1.466676     9A     -1.362128
      10A     -1.068783    11A     -1.027847    12A     -0.916278
      13A     -0.854662    14A     -0.756617    15A     -0.702515
      16A     -0.679812    17A     -0.659993    18A     -0.620189
      19A     -0.611451    20A     -0.568173    21A     -0.547015
      22A     -0.532273    23A     -0.520943    24A     -0.515567
      25A     -0.496390    26A     -0.490526    27A     -0.450690
      28A     -0.435042

  @DF-RHF Final Energy:  -344.91090241250129

   => Energetics <=

    Nuclear Repulsion Energy =            319.0195760764667057
    One-Electron Energy =               -1102.3470385715395423
    Two-Electron Energy =                 438.4165600825714364
    DFT Exchange-Correlation Energy =       0.0000000000000000
    Empirical Dispersion Energy =           0.0000000000000000
    PCM Polarization Energy =               0.0000000000000000
    EFP Energy =                            0.0000000000000000
    Total Energy =                       -344.9109024125014002
    Molecular point group: c1
  Basis Set: 6-31G*
  Basis Set:

  -Total Gradient:
     Atom            X                  Y                   Z
    ------   -----------------  -----------------  -----------------
       1       -0.000017664253     0.000028511944     0.000039920120
       2       -0.000915610776    -0.001391038377     0.000570391139
       3       -0.000024172548    -0.000057964204    -0.000002732586
       4        0.001599010265     0.002384996977    -0.000621228905
       5        0.000028701862    -0.000001238301     0.000004960051
       6        0.000023820038     0.000009023133    -0.000005677887
       7        0.000009629295     0.000010666868    -0.000010302339
       8       -0.000001322271    -0.000003566606     0.000000115225
       9        0.000002379437    -0.000009679033    -0.000006332930
      10       -0.000005993586    -0.000000768079     0.000011136396
      11       -0.001706262896    -0.002410057651    -0.001050206050
      12       -0.000016892324     0.000004379467    -0.000008547992
      13        0.001024408728     0.001441750841     0.001060005555
      14       -0.000011333877     0.000003520271     0.000000433817
      15        0.000004021094     0.000001134954     0.000005817229
      16        0.000008192336    -0.000003010614     0.000002361696
      17       -0.000000910524    -0.000006661589     0.000009887460

  **** Optimization is complete! (in 7 steps) ****
    Final optimized geometry and variables:
    Molecular point group: c1

    Geometry (in Angstrom), charge = 0, multiplicity = 1:

    O           -0.289310082302     0.004781308032    -1.227278586366
    C            0.340035874944    -0.063078975226    -0.220343605387
    C            1.584703585316    -0.896537312207    -0.028117156539
    O            0.035738843185     0.602896673779     0.885042780872
    C            1.988101021260    -1.666980456572    -1.279004212573
    H            1.400748418530    -1.566465266865     0.806544327961
    H            2.376186513023    -0.228164437373     0.297274106676
    H            1.202408771844    -2.344784761963    -1.589864723145
    H            2.884486320864    -2.247306452269    -1.087854322736
    H            2.186600135867    -0.993921875203    -2.104178437567
    C           -1.139399842499     1.409921523699     0.893535877331
    C           -2.410066668909     0.585857984836     0.991195950405
    H           -1.136743402518     2.048230343960     0.021636972510
    H           -1.022494963457     2.031563962065     1.769802570571
    H           -2.554408614546    -0.020060965717     0.107100670143
    H           -3.263805189063     1.248497320459     1.095525705894
    H           -2.375250023859    -0.060845666001     1.861628501425

  Mulliken Charges: (a.u.)
   Center  Symbol    Alpha    Beta     Spin     Total
       1     O     4.28764  4.28764  0.00000 -0.57528
       2     C     2.60530  2.60530  0.00000  0.78940
       3     C     3.20493  3.20493  0.00000 -0.40987
       4     O     4.31435  4.31435  0.00000 -0.62870
       5     C     3.23878  3.23878  0.00000 -0.47756
       6     H     0.40091  0.40091  0.00000  0.19818
       7     H     0.40032  0.40032  0.00000  0.19936
       8     H     0.41022  0.41022  0.00000  0.17956
       9     H     0.41819  0.41819  0.00000  0.16362
      10     H     0.41000  0.41000  0.00000  0.17999
      11     C     3.00363  3.00363  0.00000 -0.00726
      12     C     3.25848  3.25848  0.00000 -0.51695
      13     H     0.40630  0.40630  0.00000  0.18740
      14     H     0.40989  0.40989  0.00000  0.18021
      15     H     0.39836  0.39836  0.00000  0.20328
      16     H     0.41759  0.41759  0.00000  0.16481
      17     H     0.41510  0.41510  0.00000  0.16980

   Total alpha = 28.00000, Total beta = 28.00000, Total charge =  0.00000
