  ==> Input File <==

--------------------------------------------------------------------------
set {
	reference rhf
	basis 6-31G*
}

set_num_threads( 1 )
memory 2 gb

molecule MOL {
0 1

O	 0.399343	 0.249864	 -0.935241
C	 1.122059	 0.121804	 -0.000188
C	 0.983051	 0.837004	 1.321576
O	 2.172624	 -0.688929	 0.000216
C	 -0.211320	 1.784585	 1.375511
H	 0.918520	 0.077786	 2.096287
H	 1.914274	 1.366521	 1.503762
C	 -0.328622	 2.495962	 2.724418
H	 -1.120551	 1.227049	 1.173131
H	 -0.123604	 2.517389	 0.579391
C	 -1.521980	 3.448338	 2.786699
H	 -0.415444	 1.757172	 3.518601
H	 0.585988	 3.050909	 2.923402
H	 -2.455555	 2.917162	 2.625627
H	 -1.582396	 3.939238	 3.752951
H	 -1.446654	 4.220485	 2.026597
C	 3.452279	 -0.082609	 0.000533
H	 3.583069	 0.529321	 -0.880332
H	 4.163299	 -0.894027	 0.001117
H	 3.582335	 0.529955	 0.881077

	symmetry c1
}
set optking {
	frozen_dihedral = ("
		9 5 8 12,
		1 2 3 6,
		9 5 3 6
	")
}

ee = energy('scf')
oeprop('DIPOLE', 'QUADRUPOLE', 'MULLIKEN_CHARGES')
f=open( 'psi4out.xyz', 'w' )
f.write( "20  " )
f.write( str(ee) + "\n" )
f.write( MOL.save_string_xyz() )
f.close()
--------------------------------------------------------------------------

    Molecular point group: c1

    Geometry (in Angstrom), charge = 0, multiplicity = 1:

       Center              X                  Y                   Z               Mass
    ------------   -----------------  -----------------  -----------------  -----------------
           O         -0.382392509196    -0.763571360294    -1.830341739340    15.994914619560
           C          0.340323490804    -0.891631360294    -0.895288739340    12.000000000000
           C          0.201315490804    -0.176431360294     0.426475260660    12.000000000000
           O          1.390888490804    -1.702364360294    -0.894884739340    15.994914619560
           C         -0.993055509196     0.771149639706     0.480410260660    12.000000000000
           H          0.136784490804    -0.935649360294     1.201186260660     1.007825032070
           H          1.132538490804     0.353085639706     0.608661260660     1.007825032070
           C         -1.110357509196     1.482526639706     1.829317260660    12.000000000000
           H         -1.902286509196     0.213613639706     0.278030260660     1.007825032070
           H         -0.905339509196     1.503953639706    -0.315709739340     1.007825032070
           C         -2.303715509196     2.434902639706     1.891598260660    12.000000000000
           H         -1.197179509196     0.743736639706     2.623500260660     1.007825032070
           H         -0.195747509196     2.037473639706     2.028301260660     1.007825032070
           H         -3.237290509196     1.903726639706     1.730526260660     1.007825032070
           H         -2.364131509196     2.925802639706     2.857850260660     1.007825032070
           H         -2.228389509196     3.207049639706     1.131496260660     1.007825032070
           C          2.670543490804    -1.096044360294    -0.894567739340    12.000000000000
           H          2.801333490804    -0.484114360294    -1.775432739340     1.007825032070
           H          3.381563490804    -1.907462360294    -0.893983739340     1.007825032070
           H          2.800599490804    -0.483480360294    -0.014023739340     1.007825032070

  Charge       = 0
  Multiplicity = 1
  Basis Set: 6-31G*
  Basis Set:

    Orbital Energies (a.u.)
    -----------------------

    Doubly Occupied:

       1A    -20.590352     2A    -20.554388     3A    -11.374102
       4A    -11.297154     5A    -11.238124     6A    -11.222448
       7A    -11.221285     8A    -11.212281     9A     -1.464545
      10A     -1.368919    11A     -1.089753    12A     -1.018252
      13A     -0.981138    14A     -0.899449    15A     -0.808688
      16A     -0.768601    17A     -0.695960    18A     -0.682660
      19A     -0.679310    20A     -0.646568    21A     -0.619073
      22A     -0.589826    23A     -0.586786    24A     -0.556415
      25A     -0.538889    26A     -0.516953    27A     -0.493507
      28A     -0.484919    29A     -0.479556    30A     -0.472593
      31A     -0.454052    32A     -0.431861

  @DF-RHF Final Energy:  -383.91721749431292

   => Energetics <=

    Nuclear Repulsion Energy =            383.8971721618630681
    One-Electron Energy =               -1283.5520272379355902
    Two-Electron Energy =                 515.7376375817602820
    DFT Exchange-Correlation Energy =       0.0000000000000000
    Empirical Dispersion Energy =           0.0000000000000000
    PCM Polarization Energy =               0.0000000000000000
    EFP Energy =                            0.0000000000000000
    Total Energy =                       -383.9172174943122400

  Mulliken Charges: (a.u.)
   Center  Symbol    Alpha    Beta     Spin     Total
       1     O     4.25826  4.25826  0.00000 -0.51652
       2     C     2.61165  2.61165  0.00000  0.77671
       3     C     3.21991  3.21991  0.00000 -0.43981
       4     O     4.30714  4.30714  0.00000 -0.61428
       5     C     3.15043  3.15043  0.00000 -0.30086
       6     H     0.39863  0.39863  0.00000  0.20273
       7     H     0.40811  0.40811  0.00000  0.18378
       8     C     3.15393  3.15393  0.00000 -0.30785
       9     H     0.41020  0.41020  0.00000  0.17961
      10     H     0.41289  0.41289  0.00000  0.17422
      11     C     3.23939  3.23939  0.00000 -0.47878
      12     H     0.42280  0.42280  0.00000  0.15440
      13     H     0.42457  0.42457  0.00000  0.15085
      14     H     0.41931  0.41931  0.00000  0.16138
      15     H     0.41872  0.41872  0.00000  0.16257
      16     H     0.42005  0.42005  0.00000  0.15990
      17     C     3.09558  3.09558  0.00000 -0.19115
      18     H     0.40982  0.40982  0.00000  0.18036
      19     H     0.39925  0.39925  0.00000  0.20150
      20     H     0.41937  0.41937  0.00000  0.16126

   Total alpha = 32.00000, Total beta = 32.00000, Total charge =  0.00000
