                              Psi4 1.0.54 Driver

  ==> Input File <==

--------------------------------------------------------------------------
set {
	reference rhf
	basis cc-pvtz
}

set_num_threads( 4 )
memory 2 gb

molecule MOL {
0 1

H	 3.335109	 -0.939996	 1.788674
O	 2.591487	 -1.158504	 1.247401
C	 1.837022	 -0.071475	 1.111083
C	 0.626018	 -0.337582	 0.258241
O	 2.122138	 0.958426	 1.616905
C	 -0.267326	 0.883135	 0.076490
H	 0.988680	 -0.722315	 -0.687441
H	 0.083739	 -1.155074	 0.723079
C	 -1.726822	 0.642622	 0.463839
H	 -0.210803	 1.217591	 -0.953497
H	 0.129920	 1.693110	 0.675679
C	 -2.480891	 -0.340606	 -0.429852
H	 -2.243098	 1.597649	 0.438609
H	 -1.776542	 0.301208	 1.495542
C	 -3.955933	 -0.460128	 -0.060472
H	 -2.393755	 -0.020485	 -1.464726
H	 -2.024244	 -1.323637	 -0.374360
H	 -4.467673	 -1.160944	 -0.709827
H	 -4.458917	 0.497287	 -0.144505
H	 -4.076458	 -0.806900	 0.960497

	symmetry c1
}
set optking {
	frozen_dihedral = ("
		7 4 6 10
	")
}

ee,wfn = optimize('scf', return_wfn=True)
oeprop( wfn, 'DIPOLE', 'QUADRUPOLE', 'MULLIKEN_CHARGES')
f=open( 'psi4out.xyz', 'w' )
f.write( "20  " )
f.write( str(ee) + "\n" )
f.write( MOL.save_string_xyz() )
f.close()
--------------------------------------------------------------------------

    Molecular point group: c1
  Charge       = 0
  Multiplicity = 1
  Basis Set: CC-PVTZ
  Basis Set:
  @DF-RHF Final Energy:  -384.09061000240592
    Total Energy =                       -384.0906100024059810
    Molecular point group: c1
  Basis Set: CC-PVTZ
  Basis Set:
  Basis Set: CC-PVTZ
  Basis Set:
  @DF-RHF Final Energy:  -384.09094251536294
    Total Energy =                       -384.0909425153624284
  Basis Set: CC-PVTZ
  Basis Set:
  Basis Set: CC-PVTZ
  Basis Set:
  @DF-RHF Final Energy:  -384.09104896059995
    Total Energy =                       -384.0910489605999487
  Basis Set: CC-PVTZ
  Basis Set:
  Basis Set: CC-PVTZ
  Basis Set:
  @DF-RHF Final Energy:  -384.09100432678326
    Total Energy =                       -384.0910043267831497
  Basis Set: CC-PVTZ
  Basis Set:
  Basis Set: CC-PVTZ
  Basis Set:
  @DF-RHF Final Energy:  -384.09104341622634
    Total Energy =                       -384.0910434162261708
  Basis Set: CC-PVTZ
  Basis Set:
  Basis Set: CC-PVTZ
  Basis Set:
  @DF-RHF Final Energy:  -384.09105700196375
    Total Energy =                       -384.0910570019637476
  Basis Set: CC-PVTZ
  Basis Set:
  Charge       = 0
  Multiplicity = 1
  Basis Set: CC-PVTZ
  Basis Set:

    Orbital Energies (a.u.)
    -----------------------

    Doubly Occupied:

       1A    -20.604233     2A    -20.541423     3A    -11.374280
       4A    -11.239135     5A    -11.219246     6A    -11.218098
       7A    -11.217167     8A    -11.210115     9A     -1.478214
      10A     -1.369630    11A     -1.095756    12A     -1.040786
      13A     -0.962473    14A     -0.870324    15A     -0.817339
      16A     -0.777442    17A     -0.705050    18A     -0.694038
      19A     -0.665547    20A     -0.637643    21A     -0.603516
      22A     -0.594910    23A     -0.574985    24A     -0.555434
      25A     -0.544946    26A     -0.508483    27A     -0.499226
      28A     -0.485214    29A     -0.467851    30A     -0.466022
      31A     -0.457312    32A     -0.449066

  @DF-RHF Final Energy:  -384.09105697709487

   => Energetics <=

    Nuclear Repulsion Energy =            377.2909175345537847
    One-Electron Energy =               -1270.8741362583975842
    Two-Electron Energy =                 509.4921617467485930
    DFT Exchange-Correlation Energy =       0.0000000000000000
    Empirical Dispersion Energy =           0.0000000000000000
    PCM Polarization Energy =               0.0000000000000000
    EFP Energy =                            0.0000000000000000
    Total Energy =                       -384.0910569770952634
    Molecular point group: c1
  Basis Set: CC-PVTZ
  Basis Set:

  -Total Gradient:
     Atom            X                  Y                   Z
    ------   -----------------  -----------------  -----------------
       1       -0.000059576607     0.000062128192    -0.000025308401
       2       -0.000099462568    -0.000155440873    -0.000085474343
       3        0.000136693849    -0.000068341530     0.000054982741
       4       -0.001835758097    -0.001375899576    -0.000064510678
       5       -0.000084242329     0.000202278432    -0.000009740238
       6        0.001815360538     0.001298770663     0.000471528262
       7        0.001273513838     0.000920572102     0.000025727465
       8       -0.000014551343    -0.000014172329    -0.000018341667
       9        0.000034607514    -0.000039210213     0.000020096494
      10       -0.001165064703    -0.000899781664    -0.000323620573
      11        0.000019810901     0.000044527442     0.000011813765
      12        0.000015903687     0.000074515766    -0.000005786239
      13        0.000044543371     0.000015793040    -0.000033998994
      14       -0.000033258822     0.000008111701     0.000020588616
      15       -0.000006405706    -0.000061612033    -0.000011145671
      16       -0.000043836067     0.000048869270    -0.000101162035
      17        0.000041430487    -0.000073466548    -0.000005562808
      18        0.000004444109    -0.000020487668     0.000006573739
      19       -0.000031306245     0.000062685504    -0.000018335474
      20       -0.000012845805    -0.000029839679     0.000091676037

  **** Optimization is complete! (in 7 steps) ****
    Final optimized geometry and variables:
    Molecular point group: c1

    Geometry (in Angstrom), charge = 0, multiplicity = 1:

    H            3.450115866968    -0.977367487311     1.223671769930
    O            2.691262624710    -1.182705704750     0.698746246646
    C            1.960317881189    -0.078927101663     0.567828104098
    C            0.725649320476    -0.337536935745    -0.258695709069
    O            2.282008534577     0.947110093754     1.059345976355
    C           -0.158884573007     0.897319557726    -0.481958192009
    H            1.077667025746    -0.762472841424    -1.191143294669
    H            0.190564490797    -1.134885269895     0.244296516749
    C           -1.627847448044     0.682097993225    -0.113198530597
    H           -0.104259035163     1.193013666648    -1.524165288047
    H            0.237259982308     1.717963590560     0.097678159869
    C           -2.371371157309    -0.296607006835    -1.019890373433
    H           -2.134684740075     1.641983383879    -0.148229112334
    H           -1.693472336064     0.343544512217     0.918445984302
    C           -3.830702958835    -0.486738014868    -0.618965453419
    H           -2.323167444703     0.063471873814    -2.044367028069
    H           -1.873661102662    -1.262116176562    -1.014468074258
    H           -4.333642107566    -1.180011089769    -1.283203947758
    H           -4.370653771071     0.453723917018    -0.651468563620
    H           -3.911494397776    -0.877708044352     0.389971718211

  Mulliken Charges: (a.u.)
   Center  Symbol    Alpha    Beta     Spin     Total
       1     H     0.38261  0.38261  0.00000  0.23478
       2     O     4.15980  4.15980  0.00000 -0.31960
       3     C     2.80321  2.80321  0.00000  0.39359
       4     C     3.11836  3.11836  0.00000 -0.23671
       5     O     4.19028  4.19028  0.00000 -0.38056
       6     C     3.10504  3.10504  0.00000 -0.21007
       7     H     0.43009  0.43009  0.00000  0.13982
       8     H     0.43579  0.43579  0.00000  0.12842
       9     C     3.09869  3.09869  0.00000 -0.19739
      10     H     0.44932  0.44932  0.00000  0.10137
      11     H     0.42872  0.42872  0.00000  0.14256
      12     C     3.08571  3.08571  0.00000 -0.17143
      13     H     0.44635  0.44635  0.00000  0.10730
      14     H     0.45279  0.45279  0.00000  0.09442
      15     C     3.14972  3.14972  0.00000 -0.29944
      16     H     0.45325  0.45325  0.00000  0.09350
      17     H     0.45390  0.45390  0.00000  0.09219
      18     H     0.44789  0.44789  0.00000  0.10422
      19     H     0.45367  0.45367  0.00000  0.09266
      20     H     0.45481  0.45481  0.00000  0.09039

   Total alpha = 32.00000, Total beta = 32.00000, Total charge = -0.00000

*** Psi4 exiting successfully. Buy a developer a beer!
