                              Psi4 1.0.54 Driver

  ==> Input File <==

--------------------------------------------------------------------------
set {
	reference rhf
	basis cc-pvtz
}

set_num_threads( 4 )
memory 2 gb

molecule MOL {
0 1

H	 -2.123894	 -0.667238	 -0.609809
O	 -2.041679	 -0.058866	 0.103463
C	 -0.959304	 0.780994	 -0.094939
C	 0.354905	 0.037902	 -0.006215
H	 -0.985899	 1.279578	 -1.057596
H	 -0.969809	 1.529522	 0.682889
F	 1.367123	 0.827899	 -0.317841
F	 0.552534	 -0.396903	 1.220767
F	 0.402420	 -0.996025	 -0.811640

	symmetry c1
}
set optking {
	frozen_dihedral = ("
		7 4 3 5
	")
}

ee,wfn = optimize('scf', return_wfn=True)
oeprop( wfn, 'DIPOLE', 'QUADRUPOLE', 'MULLIKEN_CHARGES')
f=open( 'psi4out.xyz', 'w' )
f.write( "9  " )
f.write( str(ee) + "\n" )
f.write( MOL.save_string_xyz() )
f.close()
--------------------------------------------------------------------------

    Molecular point group: c1
  Charge       = 0
  Multiplicity = 1
  Basis Set: CC-PVTZ
  Basis Set:
  @DF-RHF Final Energy:  -450.84679662845667
    Total Energy =                       -450.8467966284567865
    Molecular point group: c1
  Basis Set: CC-PVTZ
  Basis Set:
  Basis Set: CC-PVTZ
  Basis Set:
  @DF-RHF Final Energy:  -450.84711961862160
    Total Energy =                       -450.8471196186213774
  Basis Set: CC-PVTZ
  Basis Set:
  Basis Set: CC-PVTZ
  Basis Set:
  @DF-RHF Final Energy:  -450.84719637278994
    Total Energy =                       -450.8471963727899379
  Basis Set: CC-PVTZ
  Basis Set:
  Basis Set: CC-PVTZ
  Basis Set:
  @DF-RHF Final Energy:  -450.84720502506815
    Total Energy =                       -450.8472050250680354
  Basis Set: CC-PVTZ
  Basis Set:
  Charge       = 0
  Multiplicity = 1
  Basis Set: CC-PVTZ
  Basis Set:

    Orbital Energies (a.u.)
    -----------------------

    Doubly Occupied:

       1A    -26.339655     2A    -26.339584     3A    -26.336091
       4A    -20.583899     5A    -11.493880     6A    -11.310014
       7A     -1.747955     8A     -1.644896     9A     -1.643187
      10A     -1.407503    11A     -1.050560    12A     -0.929928
      13A     -0.838016    14A     -0.836381    15A     -0.812070
      16A     -0.731837    17A     -0.718829    18A     -0.704074
      19A     -0.671725    20A     -0.666251    21A     -0.649488
      22A     -0.632879    23A     -0.619667    24A     -0.533938
      25A     -0.484816

  @DF-RHF Final Energy:  -450.84720582157723

   => Energetics <=

    Nuclear Repulsion Energy =            277.7064561633652033
    One-Electron Energy =               -1177.6530728338786957
    Two-Electron Energy =                 449.0994108489364294
    DFT Exchange-Correlation Energy =       0.0000000000000000
    Empirical Dispersion Energy =           0.0000000000000000
    PCM Polarization Energy =               0.0000000000000000
    EFP Energy =                            0.0000000000000000
    Total Energy =                       -450.8472058215771199
    Molecular point group: c1
  Basis Set: CC-PVTZ
  Basis Set:

  -Total Gradient:
     Atom            X                  Y                   Z
    ------   -----------------  -----------------  -----------------
       1       -0.000012972052     0.000006903364    -0.000006305571
       2        0.000004735980     0.000008425006     0.000014631373
       3       -0.000591062575    -0.001156547809    -0.000734513434
       4        0.000225700773     0.000475646324     0.001213389183
       5        0.000481637195     0.000846809501     0.000392900493
       6       -0.000005343308    -0.000016700401    -0.000007692270
       7       -0.000037695836    -0.000178340798    -0.000888509671
       8       -0.000040393783    -0.000024770301    -0.000034814283
       9       -0.000024606398     0.000038575116     0.000050914182

  **** Optimization is complete! (in 5 steps) ****
    Final optimized geometry and variables:
    Molecular point group: c1

    Geometry (in Angstrom), charge = 0, multiplicity = 1:

    H           -2.131351573527    -0.676003030411    -0.557594121438
    O           -2.040310993874    -0.055804520900     0.144293893541
    C           -0.961329395858     0.780305583127    -0.082013812858
    C            0.354996752560     0.038059774437    -0.012531814156
    H           -1.003731280123     1.277770150107    -1.044721760133
    H           -0.955747806978     1.533974184925     0.691129313322
    F            1.348739155997     0.836790968790    -0.341859167597
    F            0.600982385238    -0.440305045145     1.183516940589
    F            0.368022370529    -0.979705953337    -0.855085446243

  Mulliken Charges: (a.u.)
   Center  Symbol    Alpha    Beta     Spin     Total
       1     H     0.38620  0.38620  0.00000  0.22761
       2     O     4.19235  4.19235  0.00000 -0.38470
       3     C     2.99084  2.99084  0.00000  0.01831
       4     C     2.68358  2.68358  0.00000  0.63285
       5     H     0.46210  0.46210  0.00000  0.07580
       6     H     0.44778  0.44778  0.00000  0.10443
       7     F     4.61210  4.61210  0.00000 -0.22420
       8     F     4.60747  4.60747  0.00000 -0.21495
       9     F     4.61757  4.61757  0.00000 -0.23515

   Total alpha = 25.00000, Total beta = 25.00000, Total charge = -0.00000

*** Psi4 exiting successfully. Buy a developer a beer!
