  ==> Input File <==

--------------------------------------------------------------------------
set {
	reference rhf
	basis cc-pvtz
}

set_num_threads( 4 )
memory 2 gb

molecule MOL {
0 1

H	 -3.162190	 0.493205	 -0.000107
C	 -2.363908	 -0.234727	 0.000005
O	 -1.158738	 0.454634	 -0.000087
H	 -2.464314	 -0.863616	 -0.882153
H	 -2.464327	 -0.863359	 0.882345
C	 -0.760379	 0.919780	 1.251019
C	 0.560661	 1.649641	 1.114825
H	 -0.658737	 0.085249	 1.945183
H	 -1.518423	 1.588058	 1.660185
C	 1.066511	 2.191669	 2.446993
H	 1.288877	 0.969058	 0.687703
H	 0.436005	 2.459941	 0.405018
H	 1.221456	 1.393548	 3.165382
H	 2.010423	 2.707527	 2.320736
H	 0.363037	 2.894611	 2.880658

	symmetry c1
}
set optking {
	frozen_dihedral = ("
		6 3 2 4
	")
}

ee = optimize('scf')
oeprop('DIPOLE', 'QUADRUPOLE', 'MULLIKEN_CHARGES')
f=open( 'psi4out.xyz', 'w' )
f.write( "15  " )
f.write( str(ee) + "\n" )
f.write( MOL.save_string_xyz() )
f.close()
--------------------------------------------------------------------------

    Molecular point group: c1
  Charge       = 0
  Multiplicity = 1
  Basis Set: CC-PVTZ
  Basis Set:
  @DF-RHF Final Energy:  -232.22631508156152
    Total Energy =                       -232.2263150815614381
    Molecular point group: c1
  Basis Set: CC-PVTZ
  Basis Set:
  Basis Set: CC-PVTZ
  Basis Set:
  @DF-RHF Final Energy:  -232.22714894334752
    Total Energy =                       -232.2271489433474017
  Basis Set: CC-PVTZ
  Basis Set:
  Basis Set: CC-PVTZ
  Basis Set:
  @DF-RHF Final Energy:  -232.22733741350078
    Total Energy =                       -232.2273374135008908
  Basis Set: CC-PVTZ
  Basis Set:
  Charge       = 0
  Multiplicity = 1
  Basis Set: CC-PVTZ
  Basis Set:

    Orbital Energies (a.u.)
    -----------------------

    Doubly Occupied:

       1A    -20.546727     2A    -11.264538     3A    -11.261631
       4A    -11.212637     5A    -11.210668     6A     -1.380726
       7A     -1.058377     8A     -0.956137     9A     -0.877377
      10A     -0.809494    11A     -0.676395    12A     -0.655403
      13A     -0.631885    14A     -0.608818    15A     -0.564622
      16A     -0.542440    17A     -0.503515    18A     -0.489637
      19A     -0.478629    20A     -0.462701    21A     -0.415661

  @DF-RHF Final Energy:  -232.22733807395574

   => Energetics <=

    Nuclear Repulsion Energy =            189.9337332841531349
    One-Electron Energy =                -691.1061054421651306
    Two-Electron Energy =                 268.9450340840562603
    DFT Exchange-Correlation Energy =       0.0000000000000000
    Empirical Dispersion Energy =           0.0000000000000000
    PCM Polarization Energy =               0.0000000000000000
    EFP Energy =                            0.0000000000000000
    Total Energy =                       -232.2273380739557069
    Molecular point group: c1
  Basis Set: CC-PVTZ
  Basis Set:

  -Total Gradient:
     Atom            X                  Y                   Z
    ------   -----------------  -----------------  -----------------
       1        0.000024709874     0.000022108181    -0.000010185625
       2       -0.000888868888     0.001555912177    -0.001261050944
       3       -0.001084641670     0.001990237998    -0.000271517050
       4        0.001061654538    -0.001785688339     0.001198691845
       5        0.000035018787     0.000011479613     0.000008204804
       6        0.000900362962    -0.001779927475     0.000440884332
       7       -0.000008635299    -0.000007914501    -0.000065510844
       8       -0.000004779299    -0.000001937510     0.000026286567
       9       -0.000000238160    -0.000005645199    -0.000047671514
      10       -0.000043533506    -0.000003328547     0.000001541657
      11       -0.000003307057    -0.000003990216    -0.000004360717
      12        0.000018468127     0.000015545050    -0.000005443828
      13        0.000001220832    -0.000002956324    -0.000002885885
      14       -0.000008167387    -0.000006403431    -0.000015670585
      15        0.000000736147     0.000002508522     0.000008687788

  **** Optimization is complete! (in 4 steps) ****
    Final optimized geometry and variables:
    Molecular point group: c1

    Geometry (in Angstrom), charge = 0, multiplicity = 1:

    H           -2.653834111261    -0.514302642118    -0.958236751338
    C           -1.814137503651    -1.204920187719    -0.959036064833
    O           -0.598555468014    -0.531599016817    -0.950369766831
    H           -1.852490947113    -1.816695708844    -1.849294854630
    H           -1.910581258018    -1.862549181637    -0.098011736463
    C           -0.201005384876    -0.055963224330     0.297244866939
    C            1.122712813478     0.667901399519     0.155151846868
    H           -0.103188311085    -0.885305664633     0.997475176220
    H           -0.955251532027     0.619908001633     0.701682868419
    C            1.633745140623     1.212553522489     1.484339989086
    H            1.846836209575    -0.017803464255    -0.270986080311
    H            1.000640332481     1.476202766369    -0.557433251232
    H            1.787323994515     0.416215959768     2.205071718165
    H            2.579398475501     1.724387289246     1.354176469088
    H            0.933945299385     1.919672986885     1.917300306712

  Mulliken Charges: (a.u.)
   Center  Symbol    Alpha    Beta     Spin     Total
       1     H     0.46719  0.46719  0.00000  0.06562
       2     C     3.03228  3.03228  0.00000 -0.06455
       3     O     4.17279  4.17279  0.00000 -0.34558
       4     H     0.44875  0.44875  0.00000  0.10251
       5     H     0.47487  0.47487  0.00000  0.05027
       6     C     2.95605  2.95605  0.00000  0.08790
       7     C     3.08071  3.08071  0.00000 -0.16142
       8     H     0.47441  0.47441  0.00000  0.05118
       9     H     0.47696  0.47696  0.00000  0.04608
      10     C     3.15581  3.15581  0.00000 -0.31163
      11     H     0.45119  0.45119  0.00000  0.09761
      12     H     0.45099  0.45099  0.00000  0.09801
      13     H     0.45591  0.45591  0.00000  0.08818
      14     H     0.44627  0.44627  0.00000  0.10747
      15     H     0.45583  0.45583  0.00000  0.08834

   Total alpha = 21.00000, Total beta = 21.00000, Total charge = -0.00000
