  ==> Input File <==

--------------------------------------------------------------------------
set {
	reference rhf
	basis 6-31G*
}

set_num_threads( 4 )
memory 2 gb

molecule MOL {
0 1

H	 -2.798360	 -0.862255	 -0.071053
N	 -1.863561	 -0.715187	 0.256814
C	 -1.344686	 0.554728	 -0.219830
H	 -1.300452	 -1.461917	 -0.101532
C	 0.081427	 0.741154	 0.254071
H	 -1.362155	 0.656231	 -1.305829
H	 -1.952773	 1.354456	 0.191809
O	 0.874168	 -0.245412	 -0.342030
H	 0.444037	 1.730782	 -0.023037
H	 0.121165	 0.653424	 1.337565
C	 1.904290	 0.248537	 -1.137286
H	 2.441983	 -0.598517	 -1.541123
H	 1.519127	 0.845701	 -1.961923
H	 2.593428	 0.861323	 -0.559886

	symmetry c1
}
set optking {
	frozen_dihedral = ("
		11 8 5 3
	")
}

ee = optimize('scf')
oeprop('DIPOLE', 'QUADRUPOLE', 'MULLIKEN_CHARGES')
f=open( 'psi4out.xyz', 'w' )
f.write( "14  " )
f.write( str(ee) + "\n" )
f.write( MOL.save_string_xyz() )
f.close()
--------------------------------------------------------------------------

    Molecular point group: c1
  Charge       = 0
  Multiplicity = 1
  Basis Set: 6-31G*
  Basis Set:
  @DF-RHF Final Energy:  -248.12038963512194
    Total Energy =                       -248.1203896351218532
    Molecular point group: c1
  Basis Set: 6-31G*
  Basis Set:
  Basis Set: 6-31G*
  Basis Set:
  @DF-RHF Final Energy:  -248.12079302520522
    Total Energy =                       -248.1207930252054439
  Basis Set: 6-31G*
  Basis Set:
  Basis Set: 6-31G*
  Basis Set:
  @DF-RHF Final Energy:  -248.12090379829186
    Total Energy =                       -248.1209037982917494
  Basis Set: 6-31G*
  Basis Set:
  Basis Set: 6-31G*
  Basis Set:
  @DF-RHF Final Energy:  -248.12090573412220
    Total Energy =                       -248.1209057341221751
  Basis Set: 6-31G*
  Basis Set:
  Charge       = 0
  Multiplicity = 1
  Basis Set: 6-31G*
  Basis Set:

    Orbital Energies (a.u.)
    -----------------------

    Doubly Occupied:

       1A    -20.554688     2A    -15.528078     3A    -11.268396
       4A    -11.265802     5A    -11.240757     6A     -1.377104
       7A     -1.173420     8A     -0.997747     9A     -0.912388
      10A     -0.813136    11A     -0.681805    12A     -0.674057
      13A     -0.641755    14A     -0.616077    15A     -0.601515
      16A     -0.541635    17A     -0.532640    18A     -0.502386
      19A     -0.471483    20A     -0.413330    21A     -0.377976

  @DF-RHF Final Energy:  -248.12090611994591

   => Energetics <=

    Nuclear Repulsion Energy =            194.7256953232432011
    One-Electron Energy =                -723.3208520175916192
    Two-Electron Energy =                 280.4742505744023902
    DFT Exchange-Correlation Energy =       0.0000000000000000
    Empirical Dispersion Energy =           0.0000000000000000
    PCM Polarization Energy =               0.0000000000000000
    EFP Energy =                            0.0000000000000000
    Total Energy =                       -248.1209061199459711
    Molecular point group: c1
  Basis Set: 6-31G*
  Basis Set:

  -Total Gradient:
     Atom            X                  Y                   Z
    ------   -----------------  -----------------  -----------------
       1        0.000005085239     0.000014195608     0.000002700319
       2        0.000003453175     0.000012384040    -0.000005122315
       3        0.000013655780     0.000030562918    -0.000052573241
       4        0.000003068639     0.000027200194     0.000005209778
       5       -0.000016624318    -0.000115958847     0.000052711722
       6       -0.000006391708    -0.000008936088     0.000003953350
       7       -0.000018927287    -0.000009511103     0.000000270467
       8        0.000049163207     0.000037466110     0.000043396503
       9       -0.000002105728     0.000003724265    -0.000009701711
      10       -0.000008799380     0.000013020576     0.000009443877
      11       -0.000020946336    -0.000016658801    -0.000050331058
      12        0.000004772871     0.000007253472    -0.000006289316
      13       -0.000004298561    -0.000000518195     0.000009341655
      14       -0.000001105595     0.000005775852    -0.000003010028

  **** Optimization is complete! (in 5 steps) ****
    Final optimized geometry and variables:
    Molecular point group: c1

    Geometry (in Angstrom), charge = 0, multiplicity = 1:

    H           -2.729791895006    -0.992869524718     0.168576828966
    N           -1.800535187360    -0.828812659275     0.503673776428
    C           -1.304236128621     0.456389080767     0.046505728722
    H           -1.218547539083    -1.560297527042     0.143532929245
    C            0.130304150564     0.646810771619     0.502448634844
    H           -1.342882447023     0.579827338909    -1.038147910925
    H           -1.916859757894     1.239932028916     0.483194200645
    O            0.950138472274    -0.336486397600    -0.079073217004
    H            0.474840469804     1.641661541751     0.232690860153
    H            0.186320895822     0.546787754303     1.580518501905
    C            1.986290445546     0.129647330905    -0.884792606700
    H            2.508262702276    -0.733974738870    -1.274164879243
    H            1.613893562284     0.718634494658    -1.720618421183
    H            2.690030416821     0.737095134344    -0.320084217930

  Mulliken Charges: (a.u.)
   Center  Symbol    Alpha    Beta     Spin     Total
       1     H     0.33295  0.33295  0.00000  0.33411
       2     N     3.92484  3.92484  0.00000 -0.84967
       3     C     3.06473  3.06473  0.00000 -0.12947
       4     H     0.32338  0.32338  0.00000  0.35323
       5     C     2.99468  2.99468  0.00000  0.01064
       6     H     0.43306  0.43306  0.00000  0.13387
       7     H     0.42225  0.42225  0.00000  0.15549
       8     O     4.31201  4.31201  0.00000 -0.62402
       9     H     0.42930  0.42930  0.00000  0.14140
      10     H     0.41253  0.41253  0.00000  0.17493
      11     C     3.07883  3.07883  0.00000 -0.15765
      12     H     0.41287  0.41287  0.00000  0.17425
      13     H     0.43060  0.43060  0.00000  0.13881
      14     H     0.42796  0.42796  0.00000  0.14407

   Total alpha = 21.00000, Total beta = 21.00000, Total charge = -0.00000
