  ==> Input File <==

--------------------------------------------------------------------------
set {
	reference rhf
	basis 6-31G*
}

set_num_threads( 4 )
memory 2 gb

molecule MOL {
0 1

H	 1.136379	 0.211822	 1.465562
C	 1.135357	 0.094285	 0.374742
C	 0.065331	 0.871482	 -0.349150
O	 1.941633	 -0.601957	 -0.151457
C	 0.229543	 2.388971	 -0.182585
H	 -0.901626	 0.535839	 0.007574
H	 0.140450	 0.616207	 -1.405252
C	 0.002379	 2.867696	 1.251863
H	 -0.471813	 2.885861	 -0.845315
H	 1.222376	 2.683765	 -0.515781
H	 -0.996691	 2.613837	 1.592364
H	 0.115141	 3.944592	 1.321843
H	 0.707988	 2.416877	 1.943432

	symmetry c1
}
set optking {
	frozen_dihedral = ("
		6 3 2 4
	")
}

ee = optimize('scf')
oeprop('DIPOLE', 'QUADRUPOLE', 'MULLIKEN_CHARGES')
f=open( 'psi4out.xyz', 'w' )
f.write( "13  " )
f.write( str(ee) + "\n" )
f.write( MOL.save_string_xyz() )
f.close()
--------------------------------------------------------------------------

    Molecular point group: c1
  Charge       = 0
  Multiplicity = 1
  Basis Set: 6-31G*
  Basis Set:
  @DF-RHF Final Energy:  -230.98243415449977
    Total Energy =                       -230.9824341544997424
    Molecular point group: c1
  Basis Set: 6-31G*
  Basis Set:
  Basis Set: 6-31G*
  Basis Set:
  @DF-RHF Final Energy:  -230.98247843547600
    Total Energy =                       -230.9824784354761675
  Basis Set: 6-31G*
  Basis Set:
  Basis Set: 6-31G*
  Basis Set:
  @DF-RHF Final Energy:  -230.98283481126421
    Total Energy =                       -230.9828348112640128
  Basis Set: 6-31G*
  Basis Set:
  Basis Set: 6-31G*
  Basis Set:
  @DF-RHF Final Energy:  -230.98291588476249
    Total Energy =                       -230.9829158847626331
  Basis Set: 6-31G*
  Basis Set:
  Basis Set: 6-31G*
  Basis Set:
  @DF-RHF Final Energy:  -230.98295615050554
    Total Energy =                       -230.9829561505056006
  Basis Set: 6-31G*
  Basis Set:
  Basis Set: 6-31G*
  Basis Set:
  @DF-RHF Final Energy:  -230.98298404535359
    Total Energy =                       -230.9829840453536178
  Basis Set: 6-31G*
  Basis Set:
  Charge       = 0
  Multiplicity = 1
  Basis Set: 6-31G*
  Basis Set:

    Orbital Energies (a.u.)
    -----------------------

    Doubly Occupied:

       1A    -20.562503     2A    -11.326030     3A    -11.239353
       4A    -11.235521     5A    -11.225918     6A     -1.401952
       7A     -1.085757     8A     -0.973944     9A     -0.854054
      10A     -0.782891    11A     -0.677994    12A     -0.647279
      13A     -0.604142    14A     -0.600573    15A     -0.575317
      16A     -0.530667    17A     -0.506637    18A     -0.495527
      19A     -0.482384    20A     -0.408751

  @DF-RHF Final Energy:  -230.98298455037465

   => Energetics <=

    Nuclear Repulsion Energy =            172.5252276981521220
    One-Electron Energy =                -654.5820382014480856
    Two-Electron Energy =                 251.0738259529214815
    DFT Exchange-Correlation Energy =       0.0000000000000000
    Empirical Dispersion Energy =           0.0000000000000000
    PCM Polarization Energy =               0.0000000000000000
    EFP Energy =                            0.0000000000000000
    Total Energy =                       -230.9829845503745105
    Molecular point group: c1
  Basis Set: 6-31G*
  Basis Set:

  -Total Gradient:
     Atom            X                  Y                   Z
    ------   -----------------  -----------------  -----------------
       1        0.000003724794     0.000000561861     0.000002350034
       2        0.000113195592     0.000090120944    -0.000027997186
       3        0.000040990014     0.000088122828     0.000096321335
       4       -0.000094819347    -0.000089665476     0.000005801413
       5       -0.000028784008     0.000018065267    -0.000022777745
       6        0.000032330618    -0.000091222588    -0.000097404825
       7       -0.000034814923     0.000001663563     0.000004471538
       8        0.000003594127     0.000011026293     0.000035558298
       9       -0.000008316341    -0.000017778942    -0.000032942097
      10       -0.000013735857    -0.000030141086     0.000013360515
      11       -0.000022475190     0.000028695296     0.000009261110
      12        0.000011766029    -0.000007469375     0.000008048235
      13       -0.000002655509    -0.000001978580     0.000005949376

  **** Optimization is complete! (in 7 steps) ****
    Final optimized geometry and variables:
    Molecular point group: c1

    Geometry (in Angstrom), charge = 0, multiplicity = 1:

    H            0.504207785772    -0.946458892431     1.255632484675
    C            0.464177869259    -1.049163929276     0.166592185687
    C           -0.596336296398    -0.242379925353    -0.539602482576
    O            1.231049849623    -1.768944427478    -0.388278502318
    C           -0.434476033913     1.276957770024    -0.353894472450
    H           -1.567963980236    -0.551087081551    -0.156548712794
    H           -0.552994846655    -0.501917486555    -1.590561801686
    C           -0.697727883864     1.777838210145     1.068063601623
    H           -1.124865841055     1.767437489106    -1.032929188495
    H            0.562752350902     1.571463782119    -0.669885956832
    H           -1.693125691179     1.499667311901     1.402468747888
    H           -0.626566911283     2.859667710680     1.108724775168
    H            0.015448504397     1.380917937174     1.783241480689

  Mulliken Charges: (a.u.)
   Center  Symbol    Alpha    Beta     Spin     Total
       1     H     0.43007  0.43007  0.00000  0.13986
       2     C     2.83193  2.83193  0.00000  0.33614
       3     C     3.20870  3.20870  0.00000 -0.41740
       4     O     4.23745  4.23745  0.00000 -0.47490
       5     C     3.16412  3.16412  0.00000 -0.32823
       6     H     0.41108  0.41108  0.00000  0.17783
       7     H     0.39802  0.39802  0.00000  0.20397
       8     C     3.24478  3.24478  0.00000 -0.48956
       9     H     0.41136  0.41136  0.00000  0.17727
      10     H     0.41181  0.41181  0.00000  0.17638
      11     H     0.41875  0.41875  0.00000  0.16251
      12     H     0.41311  0.41311  0.00000  0.17378
      13     H     0.41883  0.41883  0.00000  0.16235

   Total alpha = 20.00000, Total beta = 20.00000, Total charge = -0.00000
