  ==> Input File <==

--------------------------------------------------------------------------
set {
	reference rhf
	basis 6-31G*
}

set_num_threads( 4 )
memory 2 gb

molecule MOL {
0 1

O	 0.074228	 1.262779	 -0.000085
C	 0.028650	 0.075053	 -0.000277
C	 -1.233602	 -0.752807	 0.000328
O	 1.109162	 -0.694619	 -0.000298
C	 -2.501530	 0.091881	 0.000126
H	 -1.193807	 -1.406641	 -0.865785
H	 -1.193516	 -1.405779	 0.867015
H	 -2.545121	 0.729328	 -0.874513
H	 -3.377167	 -0.548497	 0.000561
H	 -2.544818	 0.730135	 0.874258
C	 0.998629	 -1.957408	 0.631156
H	 0.749436	 -1.839074	 1.675815
H	 1.965569	 -2.424544	 0.527840
H	 0.239398	 -2.557387	 0.150463

	symmetry c1
}
set optking {
	frozen_dihedral = ("
		11 4 2 3
	")
}

ee = optimize('scf')
oeprop('DIPOLE', 'QUADRUPOLE', 'MULLIKEN_CHARGES')
f=open( 'psi4out.xyz', 'w' )
f.write( "14  " )
f.write( str(ee) + "\n" )
f.write( MOL.save_string_xyz() )
f.close()
--------------------------------------------------------------------------

    Molecular point group: c1
  Charge       = 0
  Multiplicity = 1
  Basis Set: 6-31G*
  Basis Set:
  @DF-RHF Final Energy:  -305.84636857924937
    Total Energy =                       -305.8463685792493152
    Molecular point group: c1
  Basis Set: 6-31G*
  Basis Set:
  Basis Set: 6-31G*
  Basis Set:
  @DF-RHF Final Energy:  -305.84688626138745
    Total Energy =                       -305.8468862613874535
  Basis Set: 6-31G*
  Basis Set:
  Basis Set: 6-31G*
  Basis Set:
  @DF-RHF Final Energy:  -305.85335827903589
    Total Energy =                       -305.8533582790358878
  Basis Set: 6-31G*
  Basis Set:
  Basis Set: 6-31G*
  Basis Set:
  @DF-RHF Final Energy:  -305.85524836122789
    Total Energy =                       -305.8552483612279502
  Basis Set: 6-31G*
  Basis Set:
  @DF-RHF Final Energy:  -305.85479408305690
    Total Energy =                       -305.8547940830568450
  @DF-RHF Final Energy:  -305.85508762627296
    Total Energy =                       -305.8550876262728480
  Basis Set: 6-31G*
  Basis Set:
  @DF-RHF Final Energy:  -305.85558393794167
    Total Energy =                       -305.8555839379419581
  Basis Set: 6-31G*
  Basis Set:
  Basis Set: 6-31G*
  Basis Set:
  @DF-RHF Final Energy:  -305.85560461964479
    Total Energy =                       -305.8556046196448506
  Basis Set: 6-31G*
  Basis Set:
  Basis Set: 6-31G*
  Basis Set:
  @DF-RHF Final Energy:  -305.85560841777897
    Total Energy =                       -305.8556084177788534
  Basis Set: 6-31G*
  Basis Set:
  Charge       = 0
  Multiplicity = 1
  Basis Set: 6-31G*
  Basis Set:

    Orbital Energies (a.u.)
    -----------------------

    Doubly Occupied:

       1A    -20.600082     2A    -20.543880     3A    -11.374670
       4A    -11.296942     5A    -11.248411     6A    -11.221020
       7A     -1.463097     8A     -1.366970     9A     -1.063345
      10A     -0.985767    11A     -0.899256    12A     -0.768448
      13A     -0.704943    14A     -0.686233    15A     -0.673295
      16A     -0.627166    17A     -0.606648    18A     -0.559985
      19A     -0.550829    20A     -0.526207    21A     -0.511732
      22A     -0.498999    23A     -0.450558    24A     -0.433822

  @DF-RHF Final Energy:  -305.85560875514216

   => Energetics <=

    Nuclear Repulsion Energy =            247.4393173173108664
    One-Electron Energy =                -907.2652417417639299
    Two-Electron Energy =                 353.9703156693107644
    DFT Exchange-Correlation Energy =       0.0000000000000000
    Empirical Dispersion Energy =           0.0000000000000000
    PCM Polarization Energy =               0.0000000000000000
    EFP Energy =                            0.0000000000000000
    Total Energy =                       -305.8556087551423275
    Molecular point group: c1
  Basis Set: 6-31G*
  Basis Set:

  -Total Gradient:
     Atom            X                  Y                   Z
    ------   -----------------  -----------------  -----------------
       1        0.000001432762     0.000007988934     0.000006694214
       2        0.000422254267     0.000436237431     0.004390775810
       3       -0.000020268720     0.000043974435    -0.002157736072
       4       -0.001086546100    -0.001452457415    -0.004361351665
       5        0.000006881109     0.000006075978     0.000015313332
       6       -0.000004112154    -0.000004162851     0.000003435452
       7       -0.000000906043     0.000002463071     0.000009198946
       8        0.000004211264    -0.000003593552    -0.000001695984
       9        0.000004755896    -0.000003816360    -0.000000344407
      10       -0.000003150896     0.000004046259    -0.000000273465
      11        0.000677293626     0.000966099647     0.002095027859
      12       -0.000000109526     0.000000173921    -0.000000120306
      13       -0.000000621183    -0.000001929970     0.000001798234
      14       -0.000001114303    -0.000001099528    -0.000000721947

  **** Optimization is complete! (in 10 steps) ****
    Final optimized geometry and variables:
    Molecular point group: c1

    Geometry (in Angstrom), charge = 0, multiplicity = 1:

    O            0.301533503430     1.550377394965    -0.111145047707
    C            0.228513794952     0.370561307891    -0.062852479734
    C           -1.087251677458    -0.383774157802    -0.069416557119
    O            1.351145962199    -0.358035975934    -0.088983058177
    C           -2.290371572785     0.545779588772    -0.178445708126
    H           -1.062201311043    -1.083246602175    -0.900797876180
    H           -1.159125638866    -0.988345051316     0.830361864104
    H           -2.246408576707     1.132449419964    -1.087175893859
    H           -3.207666108292    -0.033235191563    -0.185760412159
    H           -2.325042542052     1.234515683944     0.656122535676
    C            1.417967747275    -1.645457023629     0.478293235455
    H            1.133065458017    -1.629288660585     1.523441650141
    H            2.450321909446    -1.948614376879     0.400563106078
    H            0.800242114582    -2.356564837783    -0.055905081206

  Mulliken Charges: (a.u.)
   Center  Symbol    Alpha    Beta     Spin     Total
       1     O     4.26315  4.26315  0.00000 -0.52630
       2     C     2.60437  2.60437  0.00000  0.79125
       3     C     3.22815  3.22815  0.00000 -0.45631
       4     O     4.30292  4.30292  0.00000 -0.60585
       5     C     3.23508  3.23508  0.00000 -0.47016
       6     H     0.40144  0.40144  0.00000  0.19712
       7     H     0.40529  0.40529  0.00000  0.18942
       8     H     0.40692  0.40692  0.00000  0.18616
       9     H     0.41885  0.41885  0.00000  0.16229
      10     H     0.40757  0.40757  0.00000  0.18485
      11     C     3.09467  3.09467  0.00000 -0.18933
      12     H     0.41572  0.41572  0.00000  0.16855
      13     H     0.39827  0.39827  0.00000  0.20347
      14     H     0.41759  0.41759  0.00000  0.16482

   Total alpha = 24.00000, Total beta = 24.00000, Total charge =  0.00000
