                              Psi4 1.0.54 Driver

  ==> Input File <==

--------------------------------------------------------------------------
set {
	reference rhf
	basis cc-pvtz
}

set_num_threads( 4 )
memory 2 gb

molecule MOL {
0 1

H	 -3.338736	 -0.322036	 0.874482
O	 -2.596073	 -0.791501	 0.525524
C	 -1.539911	 0.016621	 0.545401
C	 -0.310616	 -0.658853	 0.000791
O	 -1.604606	 1.126470	 0.947920
C	 0.926581	 0.227233	 0.000178
H	 -0.551593	 -1.001064	 -1.000483
H	 -0.152762	 -1.556863	 0.589330
C	 2.220156	 -0.582071	 -0.000088
H	 0.899945	 0.878221	 -0.866390
H	 0.900542	 0.878581	 0.866486
C	 3.466689	 0.296012	 -0.000457
H	 2.239073	 -1.234095	 -0.869382
H	 2.239505	 -1.233985	 0.869270
H	 3.493549	 0.935857	 -0.875887
H	 4.368821	 -0.304526	 -0.001199
H	 3.494559	 0.935166	 0.875458

	symmetry c1
}
set optking {
	frozen_dihedral = ("
		7 4 6 10
	")
}

ee,wfn = optimize('scf', return_wfn=True)
oeprop( wfn, 'DIPOLE', 'QUADRUPOLE', 'MULLIKEN_CHARGES')
f=open( 'psi4out.xyz', 'w' )
f.write( "17  " )
f.write( str(ee) + "\n" )
f.write( MOL.save_string_xyz() )
f.close()
--------------------------------------------------------------------------

    Molecular point group: c1
  Charge       = 0
  Multiplicity = 1
  Basis Set: CC-PVTZ
  Basis Set:
  @DF-RHF Final Energy:  -345.04729428821975
    Total Energy =                       -345.0472942882198595
    Molecular point group: c1
  Basis Set: CC-PVTZ
  Basis Set:
  Basis Set: CC-PVTZ
  Basis Set:
  @DF-RHF Final Energy:  -345.04740243031199
    Total Energy =                       -345.0474024303119904
  Basis Set: CC-PVTZ
  Basis Set:
  Basis Set: CC-PVTZ
  Basis Set:
  @DF-RHF Final Energy:  -345.04648458990454
    Total Energy =                       -345.0464845899049351
  Basis Set: CC-PVTZ
  Basis Set:
  Basis Set: CC-PVTZ
  Basis Set:
  @DF-RHF Final Energy:  -345.04749297850725
    Total Energy =                       -345.0474929785070799
  Basis Set: CC-PVTZ
  Basis Set:
  Basis Set: CC-PVTZ
  Basis Set:
  @DF-RHF Final Energy:  -345.04750210663030
    Total Energy =                       -345.0475021066303043
  Basis Set: CC-PVTZ
  Basis Set:
  Basis Set: CC-PVTZ
  Basis Set:
  @DF-RHF Final Energy:  -345.04750554905553
    Total Energy =                       -345.0475055490555860
  Basis Set: CC-PVTZ
  Basis Set:
  Charge       = 0
  Multiplicity = 1
  Basis Set: CC-PVTZ
  Basis Set:

    Orbital Energies (a.u.)
    -----------------------

    Doubly Occupied:

       1A    -20.604027     2A    -20.540808     3A    -11.373684
       4A    -11.239608     5A    -11.220975     6A    -11.220355
       7A    -11.210442     8A     -1.477728     9A     -1.369185
      10A     -1.092185    11A     -1.019594    12A     -0.914953
      13A     -0.824695    14A     -0.790473    15A     -0.704085
      16A     -0.689362    17A     -0.669986    18A     -0.631593
      19A     -0.592638    20A     -0.585235    21A     -0.576619
      22A     -0.536567    23A     -0.511561    24A     -0.484932
      25A     -0.482865    26A     -0.476116    27A     -0.472410
      28A     -0.446231

  @DF-RHF Final Energy:  -345.04750590751235

   => Energetics <=

    Nuclear Repulsion Energy =            304.8206974636286759
    One-Electron Energy =               -1074.2185798644900387
    Two-Electron Energy =                 424.3503764933494153
    DFT Exchange-Correlation Energy =       0.0000000000000000
    Empirical Dispersion Energy =           0.0000000000000000
    PCM Polarization Energy =               0.0000000000000000
    EFP Energy =                            0.0000000000000000
    Total Energy =                       -345.0475059075119475
    Molecular point group: c1
  Basis Set: CC-PVTZ
  Basis Set:

  -Total Gradient:
     Atom            X                  Y                   Z
    ------   -----------------  -----------------  -----------------
       1       -0.000020016668    -0.000004601089     0.000003172388
       2       -0.000003225392     0.000041158106     0.000015800731
       3        0.000047838139     0.000011609405    -0.000011418462
       4        0.002776564124    -0.003833752552     0.000130865418
       5       -0.000036649799    -0.000041073802     0.000000270633
       6       -0.002459611865     0.003416719928     0.002039506042
       7       -0.001892633265     0.002642597989    -0.000420245622
       8        0.000007028179     0.000000798697    -0.000004670208
       9       -0.000000753819    -0.000004140327    -0.000022019751
      10        0.001598845503    -0.002225458370    -0.001736340146
      11       -0.000010443205    -0.000003217139    -0.000007152387
      12       -0.000004056606     0.000004332187     0.000016537466
      13        0.000002452562     0.000002562872     0.000005069655
      14        0.000007436807     0.000008391372    -0.000011031004
      15       -0.000005775587    -0.000012208249     0.000008932772
      16       -0.000004970052    -0.000002336663     0.000004074063
      17       -0.000002029050    -0.000001382361    -0.000011351587

  **** Optimization is complete! (in 7 steps) ****
    Final optimized geometry and variables:
    Molecular point group: c1

    Geometry (in Angstrom), charge = 0, multiplicity = 1:

    H           -3.385481892871    -0.275444528153     0.548958683776
    O           -2.634778574888    -0.744458209513     0.217017468017
    C           -1.580864651541     0.066292065109     0.256796016308
    C           -0.339430903977    -0.613164795101    -0.260124195787
    O           -1.658078800491     1.176688912128     0.655441434887
    C            0.897673964649     0.279118878193    -0.258070157408
    H           -0.581813446933    -0.950018162029    -1.262278917024
    H           -0.193834323151    -1.505031974551     0.339492140069
    C            2.192313416099    -0.529875658806    -0.312163343344
    H            0.865186108283     0.934971101026    -1.121533651791
    H            0.891840430935     0.910061914037     0.620800702845
    C            3.436585828526     0.349276450237    -0.367612649815
    H            2.175899928960    -1.185715182563    -1.178878038059
    H            2.247701511378    -1.177696065965     0.558506268785
    H            3.430612587165     0.980528267540    -1.249739381860
    H            4.339029044479    -0.250158096058    -0.395804685619
    H            3.495462956063     0.997150893721     0.500322471313

  Mulliken Charges: (a.u.)
   Center  Symbol    Alpha    Beta     Spin     Total
       1     H     0.38246  0.38246  0.00000  0.23508
       2     O     4.16023  4.16023  0.00000 -0.32045
       3     C     2.80357  2.80357  0.00000  0.39286
       4     C     3.11202  3.11202  0.00000 -0.22404
       5     O     4.19058  4.19058  0.00000 -0.38117
       6     C     3.08505  3.08505  0.00000 -0.17010
       7     H     0.43630  0.43630  0.00000  0.12740
       8     H     0.43831  0.43831  0.00000  0.12339
       9     C     3.08632  3.08632  0.00000 -0.17264
      10     H     0.45109  0.45109  0.00000  0.09782
      11     H     0.43991  0.43991  0.00000  0.12018
      12     C     3.14930  3.14930  0.00000 -0.29861
      13     H     0.45482  0.45482  0.00000  0.09037
      14     H     0.45458  0.45458  0.00000  0.09084
      15     H     0.45425  0.45425  0.00000  0.09150
      16     H     0.44803  0.44803  0.00000  0.10394
      17     H     0.45319  0.45319  0.00000  0.09363

   Total alpha = 28.00000, Total beta = 28.00000, Total charge = -0.00000

*** Psi4 exiting successfully. Buy a developer a beer!
