  ==> Input File <==

--------------------------------------------------------------------------
set {
	reference rhf
	basis 6-31G*
}

set_num_threads( 4 )
memory 2 gb

molecule MOL {
0 1

H	 -3.301617	 0.570527	 0.000000
C	 -2.250981	 0.344174	 0.000000
C	 -1.813665	 -0.976045	 0.000000
C	 -1.315303	 1.358057	 0.000000
H	 -2.528860	 -1.779366	 0.000000
C	 -0.467298	 -1.270142	 0.000000
H	 -1.635074	 2.385107	 0.000000
C	 0.047081	 1.078114	 0.000000
H	 -0.115948	 -2.285222	 0.000000
C	 0.472063	 -0.241155	 0.000000
H	 0.749976	 1.888426	 0.000000
O	 1.765256	 -0.628444	 0.000000
C	 2.369723	 -1.029492	 -1.195346
H	 1.875167	 -1.897416	 -1.618966
H	 3.387983	 -1.288697	 -0.946809
H	 2.375240	 -0.227628	 -1.926315

	symmetry c1
}
set optking {
	frozen_dihedral = ("
		13 12 10 8
	")
}

ee = optimize('scf')
oeprop('DIPOLE', 'QUADRUPOLE', 'MULLIKEN_CHARGES')
f=open( 'psi4out.xyz', 'w' )
f.write( "16  " )
f.write( str(ee) + "\n" )
f.write( MOL.save_string_xyz() )
f.close()
--------------------------------------------------------------------------

    Molecular point group: c1
  Charge       = 0
  Multiplicity = 1
  Basis Set: 6-31G*
  Basis Set:
  @DF-RHF Final Energy:  -344.57772333542329
    Total Energy =                       -344.5777233354230020
    Molecular point group: c1
  Basis Set: 6-31G*
  Basis Set:
  Basis Set: 6-31G*
  Basis Set:
  @DF-RHF Final Energy:  -344.58028879323302
    Total Energy =                       -344.5802887932328531
  Basis Set: 6-31G*
  Basis Set:
  Basis Set: 6-31G*
  Basis Set:
  @DF-RHF Final Energy:  -344.58050790549078
    Total Energy =                       -344.5805079054907765
  Basis Set: 6-31G*
  Basis Set:
  Basis Set: 6-31G*
  Basis Set:
  @DF-RHF Final Energy:  -344.58054227611393
    Total Energy =                       -344.5805422761143859
  Basis Set: 6-31G*
  Basis Set:
  Charge       = 0
  Multiplicity = 1
  Basis Set: 6-31G*
  Basis Set:

    Orbital Energies (a.u.)
    -----------------------

    Doubly Occupied:

       1A    -20.571591     2A    -11.285454     3A    -11.275096
       4A    -11.233556     5A    -11.233180     6A    -11.226467
       7A    -11.226094     8A    -11.225081     9A     -1.399981
      10A     -1.147701    11A     -1.017069    12A     -1.014903
      13A     -0.932882    14A     -0.834753    15A     -0.806369
      16A     -0.713665    17A     -0.666301    18A     -0.662787
      19A     -0.634560    20A     -0.611521    21A     -0.598319
      22A     -0.585501    23A     -0.530206    24A     -0.505320
      25A     -0.504500    26A     -0.483514    27A     -0.435849
      28A     -0.335224    29A     -0.321281

  @DF-RHF Final Energy:  -344.58054655102450

   => Energetics <=

    Nuclear Repulsion Energy =            348.0950961164721207
    One-Electron Energy =               -1157.3138314864108906
    Two-Electron Energy =                 464.6381888189142160
    DFT Exchange-Correlation Energy =       0.0000000000000000
    Empirical Dispersion Energy =           0.0000000000000000
    PCM Polarization Energy =               0.0000000000000000
    EFP Energy =                            0.0000000000000000
    Total Energy =                       -344.5805465510244971
    Molecular point group: c1
  Basis Set: 6-31G*
  Basis Set:

  -Total Gradient:
     Atom            X                  Y                   Z
    ------   -----------------  -----------------  -----------------
       1       -0.000029955817    -0.000084733414     0.000002645244
       2        0.000085345297     0.000204759278     0.000075033191
       3        0.000181848837    -0.000109565654    -0.000057843717
       4       -0.000231695502    -0.000062874956    -0.000082723654
       5       -0.000054880110     0.000022870971     0.000008055955
       6       -0.000115790135    -0.000153840842     0.000016042935
       7        0.000035110389    -0.000031518909     0.000008132837
       8        0.000132038911    -0.000106287947     0.000263194204
       9       -0.000038217113     0.000022834276     0.000009093914
      10       -0.000234066741     0.000387505891    -0.000369143496
      11        0.000036800987    -0.000042605308     0.000015165777
      12        0.000229220201     0.000166226936     0.000175101134
      13       -0.000001549372    -0.000211316846    -0.000136004837
      14       -0.000005700957     0.000012262771     0.000053720683
      15        0.000007253781    -0.000010305113     0.000009550140
      16        0.000004237338    -0.000003411135     0.000009979691

  **** Optimization is complete! (in 5 steps) ****
    Final optimized geometry and variables:
    Molecular point group: c1

    Geometry (in Angstrom), charge = 0, multiplicity = 1:

    H           -3.225692657826     0.805210265045     0.149663768494
    C           -2.180285125517     0.554359844553     0.154762175916
    C           -1.782821236426    -0.773776771306     0.177098351104
    C           -1.222133148110     1.554901787841     0.146697511405
    H           -2.521174350287    -1.555644663465     0.192818269776
    C           -0.437713162941    -1.102352722526     0.188119116641
    H           -1.521978802005     2.587627157885     0.136662568484
    C            0.126127851811     1.233833641223     0.154627410570
    H           -0.119678101885    -2.128627526845     0.222641999406
    C            0.514883299425    -0.094993833743     0.172794725328
    H            0.880900158990     1.998924698248     0.158006499452
    O            1.842379503466    -0.403549216895     0.213374678481
    C            2.421329232354    -0.761763988225    -1.015889655054
    H            1.946995834058    -1.644010592916    -1.433055779141
    H            3.462591403249    -0.974586758557    -0.821097022419
    H            2.346908669154     0.050084726038    -1.732597161555

  Mulliken Charges: (a.u.)
   Center  Symbol    Alpha    Beta     Spin     Total
       1     H     0.39985  0.39985  0.00000  0.20029
       2     C     3.10572  3.10572  0.00000 -0.21143
       3     C     3.09687  3.09687  0.00000 -0.19373
       4     C     3.09703  3.09703  0.00000 -0.19405
       5     H     0.39843  0.39843  0.00000  0.20314
       6     C     3.12063  3.12063  0.00000 -0.24127
       7     H     0.39831  0.39831  0.00000  0.20337
       8     C     3.12022  3.12022  0.00000 -0.24044
       9     H     0.39539  0.39539  0.00000  0.20921
      10     C     2.80249  2.80249  0.00000  0.39502
      11     H     0.39416  0.39416  0.00000  0.21167
      12     O     4.33214  4.33214  0.00000 -0.66428
      13     C     3.08221  3.08221  0.00000 -0.16442
      14     H     0.42369  0.42369  0.00000  0.15262
      15     H     0.41024  0.41024  0.00000  0.17952
      16     H     0.42261  0.42261  0.00000  0.15478

   Total alpha = 29.00000, Total beta = 29.00000, Total charge = -0.00000
