  ==> Input File <==

--------------------------------------------------------------------------
set {
	reference rhf
	basis cc-pvtz
}

set_num_threads( 4 )
memory 2 gb

molecule MOL {
0 1

H	 1.493119	 1.246846	 -2.300907
C	 0.765299	 1.070629	 -1.519558
C	 1.322304	 0.099773	 -0.484271
H	 0.521255	 2.027275	 -1.071630
H	 -0.132333	 0.678934	 -1.984501
C	 0.308557	 -0.162619	 0.622645
H	 2.226348	 0.502019	 -0.044231
H	 1.578900	 -0.841021	 -0.955443
N	 -1.069352	 -0.004081	 0.085342
H	 0.371632	 -1.172932	 0.991288
H	 0.400391	 0.548875	 1.426218
O	 -1.584901	 -0.965470	 -0.377818
O	 -1.548033	 1.079343	 0.130056

	symmetry c1
}
set optking {
	frozen_dihedral = ("
		7 3 6 9
	")
}

ee = optimize('scf')
oeprop('DIPOLE', 'QUADRUPOLE', 'MULLIKEN_CHARGES')
f=open( 'psi4out.xyz', 'w' )
f.write( "13  " )
f.write( str(ee) + "\n" )
f.write( MOL.save_string_xyz() )
f.close()
--------------------------------------------------------------------------

    Molecular point group: c1
  Charge       = 0
  Multiplicity = 1
  Basis Set: CC-PVTZ
  Basis Set:
  @DF-RHF Final Energy:  -321.85300966121537
    Total Energy =                       -321.8530096612155376
    Molecular point group: c1
  Basis Set: CC-PVTZ
  Basis Set:
  Basis Set: CC-PVTZ
  Basis Set:
  @DF-RHF Final Energy:  -321.85196240439825
    Total Energy =                       -321.8519624043979661
  Basis Set: CC-PVTZ
  Basis Set:
  Basis Set: CC-PVTZ
  Basis Set:
  @DF-RHF Final Energy:  -321.85505207629768
    Total Energy =                       -321.8550520762977953
  Basis Set: CC-PVTZ
  Basis Set:
  Basis Set: CC-PVTZ
  Basis Set:
  @DF-RHF Final Energy:  -321.85665301239908
    Total Energy =                       -321.8566530123987377
  Basis Set: CC-PVTZ
  Basis Set:
  @DF-RHF Final Energy:  -321.85682839135217
    Total Energy =                       -321.8568283913521100
  @DF-RHF Final Energy:  -321.85691431262461
    Total Energy =                       -321.8569143126247809
  Basis Set: CC-PVTZ
  Basis Set:
  @DF-RHF Final Energy:  -321.85697859905281
    Total Energy =                       -321.8569785990530931
  Basis Set: CC-PVTZ
  Basis Set:
  Basis Set: CC-PVTZ
  Basis Set:
  @DF-RHF Final Energy:  -321.85702039768233
    Total Energy =                       -321.8570203976826178
  Basis Set: CC-PVTZ
  Basis Set:
  Basis Set: CC-PVTZ
  Basis Set:
  @DF-RHF Final Energy:  -321.85702151593898
    Total Energy =                       -321.8570215159391523
  Basis Set: CC-PVTZ
  Basis Set:
  Charge       = 0
  Multiplicity = 1
  Basis Set: CC-PVTZ
  Basis Set:

    Orbital Energies (a.u.)
    -----------------------

    Doubly Occupied:

       1A    -20.593047     2A    -20.588823     3A    -15.836824
       4A    -11.297403     5A    -11.254599     6A    -11.227472
       7A     -1.636496     8A     -1.420655     9A     -1.130453
      10A     -1.021396    11A     -0.895512    12A     -0.822407
      13A     -0.755865    14A     -0.739772    15A     -0.729527
      16A     -0.665963    17A     -0.608417    18A     -0.590980
      19A     -0.534205    20A     -0.518433    21A     -0.512678
      22A     -0.483566    23A     -0.475053    24A     -0.454198

  @DF-RHF Final Energy:  -321.85702171926306

   => Energetics <=

    Nuclear Repulsion Energy =            254.9564762797025992
    One-Electron Energy =                -944.0395066676172746
    Two-Electron Energy =                 367.2260086686516161
    DFT Exchange-Correlation Energy =       0.0000000000000000
    Empirical Dispersion Energy =           0.0000000000000000
    PCM Polarization Energy =               0.0000000000000000
    EFP Energy =                            0.0000000000000000
    Total Energy =                       -321.8570217192631162
    Molecular point group: c1
  Basis Set: CC-PVTZ
  Basis Set:

  -Total Gradient:
     Atom            X                  Y                   Z
    ------   -----------------  -----------------  -----------------
       1        0.000013843355     0.000000542885    -0.000002229827
       2       -0.000042750776    -0.000011403085     0.000019983754
       3        0.002709877102    -0.005064706247     0.001275376105
       4        0.000001128564    -0.000001068517    -0.000001162284
       5        0.000022224509     0.000008457357     0.000004002807
       6       -0.000569031065    -0.005025874528    -0.001471538523
       7       -0.002233543738     0.005590329690    -0.000793569182
       8       -0.000007552304     0.000000000985    -0.000006311448
       9        0.000028990197     0.004534924039     0.000928902053
      10        0.000010379746     0.000010406694     0.000002508836
      11       -0.000003768617     0.000005070347    -0.000001822984
      12        0.000033673949    -0.000009284742     0.000033420090
      13        0.000036529082    -0.000037394875     0.000012440602

  **** Optimization is complete! (in 10 steps) ****
    Final optimized geometry and variables:
    Molecular point group: c1

    Geometry (in Angstrom), charge = 0, multiplicity = 1:

    H            1.981307543368     1.059752607626    -2.080249249152
    C            1.184698948545     0.902083007504    -1.364469441168
    C            1.650929556280    -0.085435595710    -0.294265492346
    H            0.927494327542     1.861811258788    -0.933143049384
    H            0.323364695269     0.532884187929    -1.905257841993
    C            0.654610150292    -0.321097004344     0.850823087876
    H            2.537881244999     0.334689073287     0.164335044970
    H            1.912578779296    -1.028824018180    -0.751808782625
    N           -0.755543636702    -0.200290605891     0.390917071286
    H            0.747491074876    -1.311357423805     1.264692325953
    H            0.758090028413     0.421158233652     1.622996740525
    O           -1.186828362638    -1.094129819970    -0.259492128345
    O           -1.349167426103     0.779863163791     0.688367541559

  Mulliken Charges: (a.u.)
   Center  Symbol    Alpha    Beta     Spin     Total
       1     H     0.44587  0.44587  0.00000  0.10826
       2     C     3.15212  3.15212  0.00000 -0.30424
       3     C     3.09389  3.09389  0.00000 -0.18778
       4     H     0.44588  0.44588  0.00000  0.10824
       5     H     0.44284  0.44284  0.00000  0.11432
       6     C     3.04402  3.04402  0.00000 -0.08804
       7     H     0.44665  0.44665  0.00000  0.10669
       8     H     0.44138  0.44138  0.00000  0.11723
       9     N     3.27826  3.27826  0.00000  0.44348
      10     H     0.42970  0.42970  0.00000  0.14061
      11     H     0.43340  0.43340  0.00000  0.13320
      12     O     4.17467  4.17467  0.00000 -0.34933
      13     O     4.17132  4.17132  0.00000 -0.34264

   Total alpha = 24.00000, Total beta = 24.00000, Total charge =  0.00000
