  ==> Input File <==

--------------------------------------------------------------------------
set {
	reference rhf
	basis 6-31G*
}

set_num_threads( 4 )
memory 2 gb

molecule MOL {
0 1

H	 -3.632747	 0.615978	 -1.965930
O	 -3.156143	 0.020950	 -1.404953
C	 -1.912912	 0.581713	 -1.069522
C	 -1.177863	 -0.397191	 -0.171080
H	 -1.326506	 0.777520	 -1.966235
H	 -2.047648	 1.531771	 -0.554182
C	 0.198102	 0.111031	 0.262842
H	 -1.078453	 -1.340073	 -0.701947
H	 -1.797149	 -0.593171	 0.699870
C	 1.331804	 -0.827780	 -0.158768
H	 0.361943	 1.100838	 -0.156218
H	 0.217265	 0.229072	 1.345532
C	 2.723619	 -0.410569	 0.329459
H	 1.342964	 -0.912588	 -1.244120
H	 1.116806	 -1.824343	 0.220779
C	 3.243875	 0.895854	 -0.272975
H	 3.424222	 -1.207124	 0.091250
H	 2.714788	 -0.329854	 1.414619
H	 3.251977	 0.848779	 -1.358681
H	 2.637085	 1.747371	 0.016682
H	 4.259473	 1.094070	 0.055697

	symmetry c1
}
set optking {
	frozen_dihedral = ("
		8 4 7 10
	")
}

ee = optimize('scf')
oeprop('DIPOLE', 'QUADRUPOLE', 'MULLIKEN_CHARGES')
f=open( 'psi4out.xyz', 'w' )
f.write( "21  " )
f.write( str(ee) + "\n" )
f.write( MOL.save_string_xyz() )
f.close()
--------------------------------------------------------------------------

    Molecular point group: c1
  Charge       = 0
  Multiplicity = 1
  Basis Set: 6-31G*
  Basis Set:
  @DF-RHF Final Energy:  -310.20765043674510
    Total Energy =                       -310.2076504367450980
    Molecular point group: c1
  Basis Set: 6-31G*
  Basis Set:
  Basis Set: 6-31G*
  Basis Set:
  @DF-RHF Final Energy:  -310.20784968765093
    Total Energy =                       -310.2078496876511053
  Basis Set: 6-31G*
  Basis Set:
  Basis Set: 6-31G*
  Basis Set:
  @DF-RHF Final Energy:  -310.20791218438478
    Total Energy =                       -310.2079121843845542
  Basis Set: 6-31G*
  Basis Set:
  Basis Set: 6-31G*
  Basis Set:
  @DF-RHF Final Energy:  -310.20791029281497
    Total Energy =                       -310.2079102928149723
  Basis Set: 6-31G*
  Basis Set:
  Basis Set: 6-31G*
  Basis Set:
  @DF-RHF Final Energy:  -310.20792251345000
    Total Energy =                       -310.2079225134501712
  Basis Set: 6-31G*
  Basis Set:
  Charge       = 0
  Multiplicity = 1
  Basis Set: 6-31G*
  Basis Set:

    Orbital Energies (a.u.)
    -----------------------

    Doubly Occupied:

       1A    -20.551975     2A    -11.267499     3A    -11.215637
       4A    -11.215214     5A    -11.214032     6A    -11.210263
       7A    -11.208792     8A     -1.359136     9A     -1.084918
      10A     -1.031886    11A     -0.954234    12A     -0.876143
      13A     -0.809557    14A     -0.778833    15A     -0.693844
      16A     -0.649832    17A     -0.630996    18A     -0.607969
      19A     -0.583956    20A     -0.570100    21A     -0.534225
      22A     -0.523341    23A     -0.510771    24A     -0.489045
      25A     -0.476544    26A     -0.458403    27A     -0.455681
      28A     -0.444293    29A     -0.431838

  @DF-RHF Final Energy:  -310.20792260473587

   => Energetics <=

    Nuclear Repulsion Energy =            313.8391238001343595
    One-Electron Energy =               -1042.4161734448139214
    Two-Electron Energy =                 418.3691270399436917
    DFT Exchange-Correlation Energy =       0.0000000000000000
    Empirical Dispersion Energy =           0.0000000000000000
    PCM Polarization Energy =               0.0000000000000000
    EFP Energy =                            0.0000000000000000
    Total Energy =                       -310.2079226047359271
    Molecular point group: c1
  Basis Set: 6-31G*
  Basis Set:

  -Total Gradient:
     Atom            X                  Y                   Z
    ------   -----------------  -----------------  -----------------
       1        0.000014894699     0.000004084961     0.000003963025
       2        0.000002667796    -0.000009698382     0.000005976151
       3       -0.000004575609     0.000001380286     0.000000958314
       4        0.000039603612     0.000304118492    -0.000537144315
       5       -0.000000089570    -0.000004114189     0.000000754553
       6       -0.000002644320    -0.000004856460     0.000003392179
       7       -0.000045919835    -0.000253969952     0.000415823124
       8       -0.000046005449    -0.000208087545     0.000356314567
       9       -0.000013794746     0.000001424273    -0.000006141029
      10        0.000023690652     0.000172901568    -0.000256722580
      11        0.000021962475    -0.000001920193     0.000001898159
      12        0.000011970322    -0.000000095137    -0.000002981221
      13        0.000007385142    -0.000013945593     0.000016305261
      14        0.000002892426     0.000001893620     0.000002497757
      15       -0.000016791200     0.000008419895     0.000000056454
      16       -0.000006421245     0.000002221262    -0.000004730860
      17        0.000003184710     0.000006351352    -0.000004535623
      18        0.000009769721    -0.000010106764     0.000005051765
      19        0.000006257482     0.000001826791    -0.000000498326
      20       -0.000004864775    -0.000000253639    -0.000004474716
      21       -0.000003172281     0.000002425355     0.000004237365

  **** Optimization is complete! (in 6 steps) ****
    Final optimized geometry and variables:
    Molecular point group: c1

    Geometry (in Angstrom), charge = 0, multiplicity = 1:

    H           -3.742453931119     0.620214445549    -1.592540776781
    O           -3.271522122004     0.016321710231    -1.036227576304
    C           -2.033222341625     0.570925655106    -0.677544375584
    C           -1.307875880096    -0.419554407835     0.216725125854
    H           -1.432989452032     0.777942025478    -1.563078864050
    H           -2.172208041586     1.514194545531    -0.150761101660
    C            0.082697398853     0.083020708223     0.662422792294
    H           -1.220846090547    -1.357708248368    -0.322793819028
    H           -1.939361679644    -0.622693037140     1.075322540290
    C            1.223144239901    -0.849191014522     0.241208133019
    H            0.258979522015     1.074930593646     0.253452180240
    H            0.104535330912     0.201833286724     1.742455139024
    C            2.613832179162    -0.419538136739     0.720534419922
    H            1.228383716325    -0.940950490012    -0.844101402118
    H            1.015803700841    -1.844840602726     0.627347544660
    C            3.125754485914     0.883914376022     0.104258142783
    H            3.318213523720    -1.214367834051     0.487698122746
    H            2.607923409819    -0.328653256599     1.804944640290
    H            3.130614689100     0.826738503231    -0.981044760435
    H            2.516469334951     1.735576554449     0.388159149023
    H            4.141542453013     1.089804873365     0.427478511535

  Mulliken Charges: (a.u.)
   Center  Symbol    Alpha    Beta     Spin     Total
       1     H     0.28112  0.28112  0.00000  0.43776
       2     O     4.37149  4.37149  0.00000 -0.74299
       3     C     2.99374  2.99374  0.00000  0.01251
       4     C     3.16082  3.16082  0.00000 -0.32165
       5     H     0.43291  0.43291  0.00000  0.13418
       6     H     0.43240  0.43240  0.00000  0.13519
       7     C     3.16560  3.16560  0.00000 -0.33120
       8     H     0.41174  0.41174  0.00000  0.17653
       9     H     0.41225  0.41225  0.00000  0.17550
      10     C     3.15357  3.15357  0.00000 -0.30715
      11     H     0.42097  0.42097  0.00000  0.15806
      12     H     0.41895  0.41895  0.00000  0.16210
      13     C     3.15328  3.15328  0.00000 -0.30656
      14     H     0.42399  0.42399  0.00000  0.15202
      15     H     0.42009  0.42009  0.00000  0.15983
      16     C     3.24128  3.24128  0.00000 -0.48256
      17     H     0.42058  0.42058  0.00000  0.15884
      18     H     0.42315  0.42315  0.00000  0.15369
      19     H     0.42244  0.42244  0.00000  0.15511
      20     H     0.42063  0.42063  0.00000  0.15874
      21     H     0.41898  0.41898  0.00000  0.16204

   Total alpha = 29.00000, Total beta = 29.00000, Total charge =  0.00000
