  ==> Input File <==

--------------------------------------------------------------------------
set {
	reference rhf
	basis 6-31G*
}

set_num_threads( 1 )
memory 2 gb

molecule MOL {
0 1

O	 -2.343476	 0.099893	 -1.155942
C	 -1.921153	 0.064240	 -0.045697
C	 -2.762591	 -0.080200	 1.193442
O	 -0.632575	 0.154573	 0.251549
H	 -2.607697	 0.773709	 1.842900
H	 -3.804202	 -0.151421	 0.918105
H	 -2.461194	 -0.966709	 1.739352
C	 0.160891	 -1.019931	 0.106212
C	 1.589627	 -0.672828	 0.480843
H	 0.089836	 -1.367806	 -0.916050
H	 -0.238459	 -1.792301	 0.749618
C	 2.246377	 0.346236	 -0.452210
H	 2.163194	 -1.597435	 0.473358
H	 1.604769	 -0.303424	 1.502885
C	 3.691736	 0.652107	 -0.061850
H	 2.219579	 -0.032311	 -1.472055
H	 1.666466	 1.263317	 -0.447249
H	 4.134505	 1.377213	 -0.737283
H	 4.305508	 -0.243868	 -0.089969
H	 3.748266	 1.059562	 0.943567

	symmetry c1
}
set optking {
	frozen_dihedral = ("
		16 12 9 8,
		2 4 8 10,
		12 9 8 10
	")
}

ee = energy('scf')
oeprop('DIPOLE', 'QUADRUPOLE', 'MULLIKEN_CHARGES')
f=open( 'psi4out.xyz', 'w' )
f.write( "20  " )
f.write( str(ee) + "\n" )
f.write( MOL.save_string_xyz() )
f.close()
--------------------------------------------------------------------------

    Molecular point group: c1

    Geometry (in Angstrom), charge = 0, multiplicity = 1:

       Center              X                  Y                   Z               Mass
    ------------   -----------------  -----------------  -----------------  -----------------
           O         -2.337981730171     0.155467792220    -1.196650883303    15.994914619560
           C         -1.915658730171     0.119814792220    -0.086405883303    12.000000000000
           C         -2.757096730171    -0.024625207780     1.152733116697    12.000000000000
           O         -0.627080730171     0.210147792220     0.210840116697    15.994914619560
           H         -2.602202730171     0.829283792220     1.802191116697     1.007825032070
           H         -3.798707730171    -0.095846207780     0.877396116697     1.007825032070
           H         -2.455699730171    -0.911134207780     1.698643116697     1.007825032070
           C          0.166385269829    -0.964356207780     0.065503116697    12.000000000000
           C          1.595121269829    -0.617253207780     0.440134116697    12.000000000000
           H          0.095330269829    -1.312231207780    -0.956758883303     1.007825032070
           H         -0.232964730171    -1.736726207780     0.708909116697     1.007825032070
           C          2.251871269829     0.401810792220    -0.492918883303    12.000000000000
           H          2.168688269829    -1.541860207780     0.432649116697     1.007825032070
           H          1.610263269829    -0.247849207780     1.462176116697     1.007825032070
           C          3.697230269829     0.707681792220    -0.102558883303    12.000000000000
           H          2.225073269829     0.023263792220    -1.512763883303     1.007825032070
           H          1.671960269829     1.318891792220    -0.487957883303     1.007825032070
           H          4.139999269829     1.432787792220    -0.777991883303     1.007825032070
           H          4.311002269829    -0.188293207780    -0.130677883303     1.007825032070
           H          3.753760269829     1.115136792220     0.902858116697     1.007825032070

  Charge       = 0
  Multiplicity = 1
  Basis Set: 6-31G*
  Basis Set:

    Orbital Energies (a.u.)
    -----------------------

    Doubly Occupied:

       1A    -20.584820     2A    -20.552964     3A    -11.375362
       4A    -11.295150     5A    -11.233733     6A    -11.229513
       7A    -11.219713     8A    -11.212958     9A     -1.462678
      10A     -1.365668    11A     -1.086356    12A     -1.022598
      13A     -0.988688    14A     -0.884742    15A     -0.810969
      16A     -0.779449    17A     -0.695908    18A     -0.683945
      19A     -0.655457    20A     -0.633917    21A     -0.611871
      22A     -0.591050    23A     -0.577868    24A     -0.563020
      25A     -0.543960    26A     -0.530836    27A     -0.490965
      28A     -0.486220    29A     -0.481046    30A     -0.474430
      31A     -0.449120    32A     -0.436170

  @DF-RHF Final Energy:  -383.92634959285988

   => Energetics <=

    Nuclear Repulsion Energy =            384.8978882297208202
    One-Electron Energy =               -1285.6261744064854611
    Two-Electron Energy =                 516.8019365839043076
    DFT Exchange-Correlation Energy =       0.0000000000000000
    Empirical Dispersion Energy =           0.0000000000000000
    PCM Polarization Energy =               0.0000000000000000
    EFP Energy =                            0.0000000000000000
    Total Energy =                       -383.9263495928603334

  Mulliken Charges: (a.u.)
   Center  Symbol    Alpha    Beta     Spin     Total
       1     O     4.25840  4.25840  0.00000 -0.51680
       2     C     2.62724  2.62724  0.00000  0.74552
       3     C     3.28496  3.28496  0.00000 -0.56991
       4     O     4.31269  4.31269  0.00000 -0.62539
       5     H     0.39903  0.39903  0.00000  0.20194
       6     H     0.39891  0.39891  0.00000  0.20218
       7     H     0.40730  0.40730  0.00000  0.18540
       8     C     3.00368  3.00368  0.00000 -0.00736
       9     C     3.16328  3.16328  0.00000 -0.32656
      10     H     0.40820  0.40820  0.00000  0.18359
      11     H     0.42045  0.42045  0.00000  0.15911
      12     C     3.15487  3.15487  0.00000 -0.30975
      13     H     0.41904  0.41904  0.00000  0.16191
      14     H     0.41351  0.41351  0.00000  0.17298
      15     C     3.24098  3.24098  0.00000 -0.48196
      16     H     0.42101  0.42101  0.00000  0.15797
      17     H     0.40672  0.40672  0.00000  0.18655
      18     H     0.41631  0.41631  0.00000  0.16739
      19     H     0.42254  0.42254  0.00000  0.15492
      20     H     0.42087  0.42087  0.00000  0.15826

   Total alpha = 32.00000, Total beta = 32.00000, Total charge = -0.00000
