                              Psi4 1.0.54 Driver

  ==> Input File <==

--------------------------------------------------------------------------
set {
	reference rhf
	basis cc-pvtz
}

set_num_threads( 4 )
memory 2 gb

molecule MOL {
0 1

O	 1.216069	 1.304886	 0.000821
C	 1.121787	 0.124983	 0.000110
C	 -0.170912	 -0.649867	 -0.000147
O	 2.167739	 -0.685178	 -0.000678
C	 -1.413045	 0.229353	 0.001137
H	 -0.152877	 -1.303435	 -0.866175
H	 -0.152278	 -1.305116	 0.864586
C	 -2.120757	 0.233578	 1.352963
H	 -2.094864	 -0.112897	 -0.769271
H	 -1.135758	 1.241460	 -0.271434
C	 -3.368451	 1.109939	 1.364784
H	 -2.393145	 -0.783554	 1.622201
H	 -1.432621	 0.577207	 2.120833
H	 -4.091222	 0.770336	 0.630716
H	 -3.849755	 1.093774	 2.335744
H	 -3.123747	 2.140969	 1.133100
C	 3.449556	 -0.089977	 -0.000570
H	 3.585694	 0.522473	 -0.879546
H	 4.155805	 -0.904274	 -0.001389
H	 3.586173	 0.521118	 0.879272

	symmetry c1
}
set optking {
	frozen_dihedral = ("
		9 5 3 6
	")
}

ee,wfn = optimize('scf', return_wfn=True)
oeprop( wfn, 'DIPOLE', 'QUADRUPOLE', 'MULLIKEN_CHARGES')
f=open( 'psi4out.xyz', 'w' )
f.write( "20  " )
f.write( str(ee) + "\n" )
f.write( MOL.save_string_xyz() )
f.close()
--------------------------------------------------------------------------

    Molecular point group: c1
  Charge       = 0
  Multiplicity = 1
  Basis Set: CC-PVTZ
  Basis Set:
  @DF-RHF Final Energy:  -384.07917902923458
    Total Energy =                       -384.0791790292348651
    Molecular point group: c1
  Basis Set: CC-PVTZ
  Basis Set:
  Basis Set: CC-PVTZ
  Basis Set:
  @DF-RHF Final Energy:  -384.07947839647971
    Total Energy =                       -384.0794783964795442
  Basis Set: CC-PVTZ
  Basis Set:
  Basis Set: CC-PVTZ
  Basis Set:
  @DF-RHF Final Energy:  -384.07935507653320
    Total Energy =                       -384.0793550765332611
  Basis Set: CC-PVTZ
  Basis Set:
  Basis Set: CC-PVTZ
  Basis Set:
  @DF-RHF Final Energy:  -384.07956022860941
    Total Energy =                       -384.0795602286091253
  Basis Set: CC-PVTZ
  Basis Set:
  Basis Set: CC-PVTZ
  Basis Set:
  @DF-RHF Final Energy:  -384.07956609392005
    Total Energy =                       -384.0795660939199934
  Basis Set: CC-PVTZ
  Basis Set:
  Basis Set: CC-PVTZ
  Basis Set:
  @DF-RHF Final Energy:  -384.07957059389798
    Total Energy =                       -384.0795705938982110
  Basis Set: CC-PVTZ
  Basis Set:
  Basis Set: CC-PVTZ
  Basis Set:
  @DF-RHF Final Energy:  -384.07957314750382
    Total Energy =                       -384.0795731475036519
  Basis Set: CC-PVTZ
  Basis Set:
  Charge       = 0
  Multiplicity = 1
  Basis Set: CC-PVTZ
  Basis Set:

    Orbital Energies (a.u.)
    -----------------------

    Doubly Occupied:

       1A    -20.596973     2A    -20.535147     3A    -11.365783
       4A    -11.278971     5A    -11.233740     6A    -11.216212
       7A    -11.215547     8A    -11.206481     9A     -1.473173
      10A     -1.366660    11A     -1.087130    12A     -1.024465
      13A     -0.969168    14A     -0.886027    15A     -0.805611
      16A     -0.769092    17A     -0.705296    18A     -0.683989
      19A     -0.676581    20A     -0.632702    21A     -0.605345
      22A     -0.591098    23A     -0.580011    24A     -0.548238
      25A     -0.530513    26A     -0.516106    27A     -0.512148
      28A     -0.477559    29A     -0.469844    30A     -0.463125
      31A     -0.460558    32A     -0.443251

  @DF-RHF Final Energy:  -384.07957340573756

   => Energetics <=

    Nuclear Repulsion Energy =            385.1501688754689781
    One-Electron Energy =               -1286.6063990960849424
    Two-Electron Energy =                 517.3766568148782881
    DFT Exchange-Correlation Energy =       0.0000000000000000
    Empirical Dispersion Energy =           0.0000000000000000
    PCM Polarization Energy =               0.0000000000000000
    EFP Energy =                            0.0000000000000000
    Total Energy =                       -384.0795734057376194
    Molecular point group: c1
  Basis Set: CC-PVTZ
  Basis Set:

  -Total Gradient:
     Atom            X                  Y                   Z
    ------   -----------------  -----------------  -----------------
       1        0.000011516901    -0.000030711705    -0.000001744710
       2       -0.000046041214     0.000013869320    -0.000000964200
       3        0.002067854442     0.003006177845    -0.002362852384
       4        0.000021745263     0.000016760158     0.000000521135
       5       -0.001858885344    -0.002704227845     0.002749982426
       6       -0.001414518402    -0.002032230516     0.001523219066
       7       -0.000005581420    -0.000003521695    -0.000000389403
       8        0.000002907968    -0.000010917728    -0.000013385140
       9        0.001208916324     0.001748413262    -0.001889955517
      10       -0.000003190354     0.000002340455    -0.000004399477
      11       -0.000006286738     0.000009225652     0.000001066013
      12        0.000004295084    -0.000003463834     0.000002291421
      13       -0.000002206871    -0.000000197331    -0.000001755626
      14        0.000002238978    -0.000000965872     0.000002466596
      15        0.000003413296    -0.000000002664    -0.000002957253
      16       -0.000002904343     0.000001031523    -0.000001135046
      17        0.000015069941    -0.000011212141    -0.000000916518
      18       -0.000000425719    -0.000010395369     0.000016165139
      19        0.000001054801     0.000017238361     0.000001977043
      20        0.000001027406    -0.000007209868    -0.000017233564

  **** Optimization is complete! (in 8 steps) ****
    Final optimized geometry and variables:
    Molecular point group: c1

    Geometry (in Angstrom), charge = 0, multiplicity = 1:

    O            1.097757647752     1.080739961937    -0.217679638549
    C            0.984037451374    -0.093559728198    -0.313972785248
    C           -0.317307456344    -0.855066094790    -0.357566646555
    O            2.017497158150    -0.916073246737    -0.384470268093
    C           -1.575438840534     0.019792633511    -0.360818829196
    H           -0.283145533639    -1.521139570978    -1.210739039530
    H           -0.305462884801    -1.515464645527     0.504259192181
    C           -2.286851801019     0.072087836603     0.988071335961
    H           -2.255870176068    -0.337127634541    -1.126615334760
    H           -1.299549608565     1.024623911093    -0.653148069953
    C           -3.517814864325     0.970750689086     0.974350334303
    H           -2.576149280344    -0.932973675186     1.284136749669
    H           -1.589655792274     0.426638443857     1.741904723538
    H           -4.245411877710     0.626682544092     0.246531945100
    H           -4.002266148051     0.986668354979     1.943753723677
    H           -3.252436669536     1.990856047704     0.719237054083
    C            3.308445075843    -0.342921918468    -0.335449253957
    H            3.454218806444     0.339469124533    -1.159561657906
    H            4.001862909715    -1.165115437545    -0.406027767449
    H            3.454435169947     0.189172799379     0.592855589026

  Mulliken Charges: (a.u.)
   Center  Symbol    Alpha    Beta     Spin     Total
       1     O     4.19750  4.19750  0.00000 -0.39499
       2     C     2.80046  2.80046  0.00000  0.39908
       3     C     3.11265  3.11265  0.00000 -0.22529
       4     O     4.14671  4.14671  0.00000 -0.29343
       5     C     3.09543  3.09543  0.00000 -0.19087
       6     H     0.43057  0.43057  0.00000  0.13887
       7     H     0.44024  0.44024  0.00000  0.11952
       8     C     3.08301  3.08301  0.00000 -0.16601
       9     H     0.44778  0.44778  0.00000  0.10443
      10     H     0.44018  0.44018  0.00000  0.11964
      11     C     3.15118  3.15118  0.00000 -0.30237
      12     H     0.45602  0.45602  0.00000  0.08795
      13     H     0.45134  0.45134  0.00000  0.09732
      14     H     0.45611  0.45611  0.00000  0.08779
      15     H     0.44855  0.44855  0.00000  0.10290
      16     H     0.45171  0.45171  0.00000  0.09658
      17     C     3.03634  3.03634  0.00000 -0.07269
      18     H     0.45423  0.45423  0.00000  0.09154
      19     H     0.44550  0.44550  0.00000  0.10901
      20     H     0.45449  0.45449  0.00000  0.09102

   Total alpha = 32.00000, Total beta = 32.00000, Total charge =  0.00000

*** Psi4 exiting successfully. Buy a developer a beer!
