                              Psi4 1.0.54 Driver

  ==> Input File <==

--------------------------------------------------------------------------
set {
	reference rhf
	basis cc-pvtz
}

set_num_threads( 4 )
memory 2 gb

molecule MOL {
0 1

O	 1.847685	 1.294399	 -0.000190
C	 1.704209	 0.119472	 -0.000093
C	 0.380337	 -0.600947	 -0.000234
O	 2.715427	 -0.733672	 0.000025
C	 -0.824290	 0.329213	 -0.000115
H	 0.371455	 -1.255476	 -0.865660
H	 0.371410	 -1.255787	 0.864952
C	 -2.144666	 -0.430913	 0.082552
H	 -0.805508	 0.938274	 -0.896757
H	 -0.743412	 1.018443	 0.832778
C	 -3.364759	 0.485515	 0.084370
H	 -2.218361	 -1.122119	 -0.754140
H	 -2.155696	 -1.042139	 0.982285
C	 -4.684446	 -0.274151	 0.166495
H	 -3.355276	 1.095797	 -0.814309
H	 -3.293022	 1.175250	 0.920600
H	 -4.801563	 -0.948101	 -0.675711
H	 -5.528948	 0.405222	 0.165483
H	 -4.738992	 -0.867713	 1.073106
C	 4.020999	 -0.192556	 0.000019
H	 4.182809	 0.412891	 -0.879449
H	 4.692590	 -1.035653	 0.000152
H	 4.182726	 0.413087	 0.879368

	symmetry c1
}
set optking {
	frozen_dihedral = ("
		9 5 3 6
	")
}

ee,wfn = optimize('scf', return_wfn=True)
oeprop( wfn, 'DIPOLE', 'QUADRUPOLE', 'MULLIKEN_CHARGES')
f=open( 'psi4out.xyz', 'w' )
f.write( "23  " )
f.write( str(ee) + "\n" )
f.write( MOL.save_string_xyz() )
f.close()
--------------------------------------------------------------------------

    Molecular point group: c1
  Charge       = 0
  Multiplicity = 1
  Basis Set: CC-PVTZ
  Basis Set:
  @DF-RHF Final Energy:  -423.13106106578368
    Total Energy =                       -423.1310610657833422
    Molecular point group: c1
  Basis Set: CC-PVTZ
  Basis Set:
  Basis Set: CC-PVTZ
  Basis Set:
  @DF-RHF Final Energy:  -423.13106580170967
    Total Energy =                       -423.1310658017096102
  Basis Set: CC-PVTZ
  Basis Set:
  Basis Set: CC-PVTZ
  Basis Set:
  @DF-RHF Final Energy:  -423.13106078229117
    Total Energy =                       -423.1310607822913425
  Basis Set: CC-PVTZ
  Basis Set:
  Basis Set: CC-PVTZ
  Basis Set:
  @DF-RHF Final Energy:  -423.13106725145303
    Total Energy =                       -423.1310672514528051
  Basis Set: CC-PVTZ
  Basis Set:
  Charge       = 0
  Multiplicity = 1
  Basis Set: CC-PVTZ
  Basis Set:

    Orbital Energies (a.u.)
    -----------------------

    Doubly Occupied:

       1A    -20.596264     2A    -20.534075     3A    -11.364491
       4A    -11.278451     5A    -11.233803     6A    -11.217176
       7A    -11.215779     8A    -11.214484     9A    -11.207750
      10A     -1.472150    11A     -1.365721    12A     -1.094507
      13A     -1.044786    14A     -0.988030    15A     -0.932692
      16A     -0.844073    17A     -0.795516    18A     -0.769233
      19A     -0.698961    20A     -0.686947    21A     -0.675325
      22A     -0.652944    23A     -0.609882    24A     -0.600931
      25A     -0.573591    26A     -0.559447    27A     -0.558218
      28A     -0.525234    29A     -0.522292    30A     -0.508177
      31A     -0.485086    32A     -0.470042    33A     -0.467251
      34A     -0.463284    35A     -0.459087    36A     -0.438289

  @DF-RHF Final Energy:  -423.13106729027294

   => Energetics <=

    Nuclear Repulsion Energy =            452.9055110763198968
    One-Electron Energy =               -1473.8252173743160256
    Two-Electron Energy =                 597.7886390077231908
    DFT Exchange-Correlation Energy =       0.0000000000000000
    Empirical Dispersion Energy =           0.0000000000000000
    PCM Polarization Energy =               0.0000000000000000
    EFP Energy =                            0.0000000000000000
    Total Energy =                       -423.1310672902728811
    Molecular point group: c1
  Basis Set: CC-PVTZ
  Basis Set:

  -Total Gradient:
     Atom            X                  Y                   Z
    ------   -----------------  -----------------  -----------------
       1        0.000002035278     0.000014614183    -0.000006333678
       2        0.000001932503    -0.000013751702     0.000029770619
       3       -0.000452442268    -0.000577764526     0.000293270578
       4       -0.000005479899    -0.000002756951    -0.000009965138
       5        0.000454938587     0.000583232222     0.000245899490
       6        0.000300398506     0.000388059158    -0.000299325639
       7       -0.000001855346     0.000002204374    -0.000000486211
       8        0.000005767868     0.000002299615     0.000027012077
       9       -0.000298962408    -0.000391485440    -0.000279597782
      10       -0.000002801263    -0.000006273874    -0.000003346634
      11       -0.000002252405     0.000000372898     0.000001621186
      12        0.000003753474     0.000005400808     0.000004388565
      13       -0.000007313945    -0.000006401470     0.000003529796
      14        0.000000199081    -0.000000522897    -0.000005064832
      15        0.000000344203     0.000002683430     0.000000662125
      16       -0.000000352570    -0.000003172537    -0.000000401040
      17       -0.000001370699    -0.000001066697     0.000000406906
      18        0.000000903736    -0.000000885542    -0.000001707541
      19        0.000001209150     0.000002089087    -0.000001172354
      20        0.000006982128     0.000006518810     0.000000688207
      21       -0.000001483256    -0.000001393615     0.000001124488
      22       -0.000002741507    -0.000000773189    -0.000000070144
      23       -0.000001408946    -0.000001226147    -0.000000903045

  **** Optimization is complete! (in 5 steps) ****
    Final optimized geometry and variables:
    Molecular point group: c1

    Geometry (in Angstrom), charge = 0, multiplicity = 1:

    O            1.847303049829     1.293465983899    -0.036655974221
    C            1.703502116415     0.118566216670    -0.035052479765
    C            0.379445971419    -0.601929398663    -0.027915975927
    O            2.714637631341    -0.734770675926    -0.040271475233
    C           -0.824408347624     0.329325234167    -0.024309617046
    H            0.368640963949    -1.254331207857    -0.894878084041
    H            0.374660111639    -1.256240840219     0.837578264003
    C           -2.145211348404    -0.431360487289     0.050437479561
    H           -0.805575352593     0.940164845975    -0.919948950667
    H           -0.745469952986     1.014419948736     0.811737851577
    C           -3.365570019891     0.484630026531     0.043536883498
    H           -2.213488288814    -1.123524254751    -0.785962915796
    H           -2.161666231504    -1.041560005093     0.950759956255
    C           -4.685456357657    -0.275325936151     0.119358342946
    H           -3.351171297444     1.093324143460    -0.856165283880
    H           -3.298854588790     1.175847742267     0.878956081272
    H           -4.797418426636    -0.950873180974    -0.722280957123
    H           -5.530176484190     0.403753030034     0.112176112234
    H           -4.745071337990    -0.867241751405     1.026724743095
    C            4.020205327554    -0.193898619625    -0.047828684585
    H            4.177255242264     0.411150371088    -0.928446661693
    H            4.691701501079    -1.037086737471    -0.051104029336
    H            4.187067647432     0.412106501037     0.830325352247

  Mulliken Charges: (a.u.)
   Center  Symbol    Alpha    Beta     Spin     Total
       1     O     4.19701  4.19701  0.00000 -0.39401
       2     C     2.80694  2.80694  0.00000  0.38612
       3     C     3.10117  3.10117  0.00000 -0.20235
       4     O     4.14650  4.14650  0.00000 -0.29300
       5     C     3.08327  3.08327  0.00000 -0.16654
       6     H     0.43993  0.43993  0.00000  0.12015
       7     H     0.44025  0.44025  0.00000  0.11951
       8     C     3.08939  3.08939  0.00000 -0.17877
       9     H     0.44724  0.44724  0.00000  0.10553
      10     H     0.44546  0.44546  0.00000  0.10908
      11     C     3.08401  3.08401  0.00000 -0.16803
      12     H     0.45591  0.45591  0.00000  0.08818
      13     H     0.45573  0.45573  0.00000  0.08854
      14     C     3.15038  3.15038  0.00000 -0.30076
      15     H     0.45336  0.45336  0.00000  0.09328
      16     H     0.45321  0.45321  0.00000  0.09357
      17     H     0.45535  0.45535  0.00000  0.08930
      18     H     0.44773  0.44773  0.00000  0.10453
      19     H     0.45530  0.45530  0.00000  0.08940
      20     C     3.03780  3.03780  0.00000 -0.07560
      21     H     0.45437  0.45437  0.00000  0.09126
      22     H     0.44535  0.44535  0.00000  0.10931
      23     H     0.45435  0.45435  0.00000  0.09130

   Total alpha = 36.00000, Total beta = 36.00000, Total charge = -0.00000

*** Psi4 exiting successfully. Buy a developer a beer!
