  ==> Input File <==

--------------------------------------------------------------------------
set {
	reference rhf
	basis cc-pvtz
}

set_num_threads( 4 )
memory 2 gb

molecule MOL {
0 1

H	 1.166964	 -1.062386	 0.758429
O	 1.324748	 -0.612467	 -0.052206
C	 0.706474	 0.636793	 -0.025501
C	 1.194805	 1.553648	 1.060105
H	 -0.352278	 0.452100	 0.113192
H	 0.809865	 1.141248	 -0.984425
C	 2.047371	 1.236340	 2.009186
H	 0.785428	 2.549827	 1.024242
H	 2.463527	 0.250172	 2.088298
H	 2.346543	 1.954758	 2.748397

	symmetry c1
}
set optking {
	frozen_dihedral = ("
		5 3 2 1
	")
}

ee = optimize('scf')
oeprop('DIPOLE', 'QUADRUPOLE', 'MULLIKEN_CHARGES')
f=open( 'psi4out.xyz', 'w' )
f.write( "10  " )
f.write( str(ee) + "\n" )
f.write( MOL.save_string_xyz() )
f.close()
--------------------------------------------------------------------------

    Molecular point group: c1
  Charge       = 0
  Multiplicity = 1
  Basis Set: CC-PVTZ
  Basis Set:
  @DF-RHF Final Energy:  -191.99643879052849
    Total Energy =                       -191.9964387905284298
    Molecular point group: c1
  Basis Set: CC-PVTZ
  Basis Set:
  Basis Set: CC-PVTZ
  Basis Set:
  @DF-RHF Final Energy:  -191.99828939363499
    Total Energy =                       -191.9982893936349910
  Basis Set: CC-PVTZ
  Basis Set:
  Basis Set: CC-PVTZ
  Basis Set:
  @DF-RHF Final Energy:  -191.99881990921460
    Total Energy =                       -191.9988199092146033
  Basis Set: CC-PVTZ
  Basis Set:
  Basis Set: CC-PVTZ
  Basis Set:
  @DF-RHF Final Energy:  -191.99884996041490
    Total Energy =                       -191.9988499604149581
  Basis Set: CC-PVTZ
  Basis Set:
  Basis Set: CC-PVTZ
  Basis Set:
  @DF-RHF Final Energy:  -191.99885387736163
    Total Energy =                       -191.9988538773615687
  Basis Set: CC-PVTZ
  Basis Set:
  Charge       = 0
  Multiplicity = 1
  Basis Set: CC-PVTZ
  Basis Set:

    Orbital Energies (a.u.)
    -----------------------

    Doubly Occupied:

       1A    -20.554487     2A    -11.278212     3A    -11.230671
       4A    -11.216893     5A     -1.374914     6A     -1.062445
       7A     -0.932447     8A     -0.772029     9A     -0.692150
      10A     -0.665641    11A     -0.621208    12A     -0.574212
      13A     -0.541153    14A     -0.496543    15A     -0.452673
      16A     -0.369294

  @DF-RHF Final Energy:  -191.99885396213000

   => Energetics <=

    Nuclear Repulsion Energy =            119.5464378157779066
    One-Electron Energy =                -497.4206369439298214
    Two-Electron Energy =                 185.8753451660218730
    DFT Exchange-Correlation Energy =       0.0000000000000000
    Empirical Dispersion Energy =           0.0000000000000000
    PCM Polarization Energy =               0.0000000000000000
    EFP Energy =                            0.0000000000000000
    Total Energy =                       -191.9988539621300561
    Molecular point group: c1
  Basis Set: CC-PVTZ
  Basis Set:

  -Total Gradient:
     Atom            X                  Y                   Z
    ------   -----------------  -----------------  -----------------
       1        0.000097578019     0.000026833236     0.000060461563
       2       -0.000106476943    -0.000055617791    -0.000082672964
       3       -0.000012664071    -0.000016018047     0.000145088520
       4        0.000035739361     0.000028691339    -0.000041356838
       5       -0.000012727992    -0.000000745272    -0.000115330935
       6        0.000003754139     0.000024375810     0.000014398385
       7        0.000032842418     0.000023937304    -0.000019540264
       8       -0.000011413290    -0.000004908768     0.000013230287
       9       -0.000010627018    -0.000012425689     0.000009820048
      10       -0.000016004622    -0.000014122120     0.000015902194

  **** Optimization is complete! (in 6 steps) ****
    Final optimized geometry and variables:
    Molecular point group: c1

    Geometry (in Angstrom), charge = 0, multiplicity = 1:

    H           -0.277058979921    -1.722214199715     0.046391185155
    O           -0.011032700874    -1.264765942086    -0.731078265855
    C           -0.585696177159     0.005285310548    -0.749741225945
    C           -0.143173599668     0.909646729434     0.365622448829
    H           -1.672131192084    -0.060488365105    -0.739500600797
    H           -0.313210721603     0.451000261836    -1.699162369218
    C            0.788963468025     0.638173705377     1.251964142107
    H           -0.657995206285     1.855332374540     0.408123811474
    H            1.335887895801    -0.285115274827     1.232210127118
    H            1.044079887124     1.341674484559     2.021394370923

  Mulliken Charges: (a.u.)
   Center  Symbol    Alpha    Beta     Spin     Total
       1     H     0.39104  0.39104  0.00000  0.21792
       2     O     4.19937  4.19937  0.00000 -0.39875
       3     C     2.95019  2.95019  0.00000  0.09961
       4     C     3.08491  3.08491  0.00000 -0.16981
       5     H     0.46845  0.46845  0.00000  0.06310
       6     H     0.45347  0.45347  0.00000  0.09305
       7     C     3.17676  3.17676  0.00000 -0.35351
       8     H     0.42326  0.42326  0.00000  0.15349
       9     H     0.42448  0.42448  0.00000  0.15103
      10     H     0.42807  0.42807  0.00000  0.14387

   Total alpha = 16.00000, Total beta = 16.00000, Total charge =  0.00000
