  ==> Input File <==

--------------------------------------------------------------------------
set {
	reference rhf
	basis cc-pvtz
}

set_num_threads( 4 )
memory 2 gb

molecule MOL {
0 1

H	 1.651322	 -0.822465	 0.000000
O	 0.729993	 -1.034364	 0.000000
C	 0.037305	 0.100061	 0.000000
C	 -0.049634	 0.705605	 -1.368881
O	 -0.440450	 0.549908	 0.982945
H	 0.947576	 0.901433	 -1.741297
H	 -0.617374	 1.620132	 -1.323756
H	 -0.521622	 0.004330	 -2.044832

	symmetry c1
}
set optking {
	frozen_dihedral = ("
		4 3 2 1
	")
}

ee = optimize('scf')
oeprop('DIPOLE', 'QUADRUPOLE', 'MULLIKEN_CHARGES')
f=open( 'psi4out.xyz', 'w' )
f.write( "8  " )
f.write( str(ee) + "\n" )
f.write( MOL.save_string_xyz() )
f.close()
--------------------------------------------------------------------------

    Molecular point group: c1
  Charge       = 0
  Multiplicity = 1
  Basis Set: CC-PVTZ
  Basis Set:
  @DF-RHF Final Energy:  -227.88279749344753
    Total Energy =                       -227.8827974934474980
    Molecular point group: c1
  Basis Set: CC-PVTZ
  Basis Set:
  Basis Set: CC-PVTZ
  Basis Set:
  @DF-RHF Final Energy:  -227.88380328821546
    Total Energy =                       -227.8838032882153186
  Basis Set: CC-PVTZ
  Basis Set:
  Basis Set: CC-PVTZ
  Basis Set:
  @DF-RHF Final Energy:  -227.88325804419762
    Total Energy =                       -227.8832580441977029
  Basis Set: CC-PVTZ
  Basis Set:
  Basis Set: CC-PVTZ
  Basis Set:
  @DF-RHF Final Energy:  -227.88458477575398
    Total Energy =                       -227.8845847757539786
  Basis Set: CC-PVTZ
  Basis Set:
  Basis Set: CC-PVTZ
  Basis Set:
  @DF-RHF Final Energy:  -227.88459842698063
    Total Energy =                       -227.8845984269804319
  Basis Set: CC-PVTZ
  Basis Set:
  Basis Set: CC-PVTZ
  Basis Set:
  @DF-RHF Final Energy:  -227.88460126225311
    Total Energy =                       -227.8846012622529997
  Basis Set: CC-PVTZ
  Basis Set:
  Charge       = 0
  Multiplicity = 1
  Basis Set: CC-PVTZ
  Basis Set:

    Orbital Energies (a.u.)
    -----------------------

    Doubly Occupied:

       1A    -20.589561     2A    -20.552040     3A    -11.378945
       4A    -11.242917     5A     -1.465916     6A     -1.373772
       7A     -1.024397     8A     -0.830710     9A     -0.713540
      10A     -0.671833    11A     -0.665370    12A     -0.594577
      13A     -0.578071    14A     -0.515239    15A     -0.505306
      16A     -0.453737

  @DF-RHF Final Energy:  -227.88460212949889

   => Energetics <=

    Nuclear Repulsion Energy =            122.0560825001892340
    One-Electron Energy =                -553.5695096727532700
    Two-Electron Energy =                 203.6288250430651487
    DFT Exchange-Correlation Energy =       0.0000000000000000
    Empirical Dispersion Energy =           0.0000000000000000
    PCM Polarization Energy =               0.0000000000000000
    EFP Energy =                            0.0000000000000000
    Total Energy =                       -227.8846021294988873
    Molecular point group: c1
  Basis Set: CC-PVTZ
  Basis Set:

  -Total Gradient:
     Atom            X                  Y                   Z
    ------   -----------------  -----------------  -----------------
       1        0.000005245613     0.000063043735     0.001842368678
       2       -0.000358053388    -0.000507177006    -0.002430370034
       3        0.001263002433     0.001113847498     0.000854125289
       4       -0.001020733141    -0.000668688290    -0.000205348235
       5        0.000067190639    -0.000037735083    -0.000061901039
       6        0.000010823259     0.000018406656     0.000014805509
       7        0.000010179858     0.000014182966    -0.000013326346
       8        0.000022344727     0.000004119523    -0.000000353823

  **** Optimization is complete! (in 7 steps) ****
    Final optimized geometry and variables:
    Molecular point group: c1

    Geometry (in Angstrom), charge = 0, multiplicity = 1:

    H            1.590559000228    -0.949893830396     0.127522928124
    O            0.660353692526    -1.103941976259     0.127122985893
    C           -0.048521486959     0.054842816426     0.094991084507
    C           -0.155143898014     0.662930961498    -1.275004806994
    O           -0.574498591517     0.474765023730     1.055330019299
    H            0.832689234348     0.856234793316    -1.677196601948
    H           -0.721442115250     1.579084045643    -1.232152032552
    H           -0.639380028185    -0.046339596846    -1.934340332967

  Mulliken Charges: (a.u.)
   Center  Symbol    Alpha    Beta     Spin     Total
       1     H     0.38785  0.38785  0.00000  0.22429
       2     O     4.17138  4.17138  0.00000 -0.34275
       3     C     2.80724  2.80724  0.00000  0.38552
       4     C     3.13871  3.13871  0.00000 -0.27742
       5     O     4.16010  4.16010  0.00000 -0.32019
       6     H     0.45501  0.45501  0.00000  0.08998
       7     H     0.43765  0.43765  0.00000  0.12470
       8     H     0.44206  0.44206  0.00000  0.11588

   Total alpha = 16.00000, Total beta = 16.00000, Total charge =  0.00000
