  ==> Input File <==

--------------------------------------------------------------------------
set {
	reference rhf
	basis cc-pvtz
}

set_num_threads( 4 )
memory 2 gb

molecule MOL {
0 1

H	 3.721907	 -0.933076	 -0.066039
O	 2.824271	 -1.154299	 0.131461
C	 2.076458	 -0.067370	 -0.038225
C	 0.626018	 -0.337582	 0.258241
O	 2.538288	 0.965419	 -0.381593
C	 -0.267326	 0.883135	 0.076490
H	 0.325620	 -1.161483	 -0.378003
H	 0.574537	 -0.713685	 1.275261
C	 -1.726822	 0.642622	 0.463839
H	 -0.210803	 1.217591	 -0.953497
H	 0.129920	 1.693110	 0.675679
C	 -2.480891	 -0.340606	 -0.429852
H	 -2.243098	 1.597649	 0.438609
H	 -1.776542	 0.301208	 1.495542
C	 -2.571430	 0.129974	 -1.877896
H	 -1.983969	 -1.306490	 -0.395643
H	 -3.484663	 -0.499463	 -0.048850
H	 -3.108298	 -0.585218	 -2.490232
H	 -1.584646	 0.260403	 -2.309109
H	 -3.089844	 1.080461	 -1.948429

	symmetry c1
}
set optking {
	frozen_dihedral = ("
		16 12 9 6
	")
}

ee = optimize('scf')
oeprop('DIPOLE', 'QUADRUPOLE', 'MULLIKEN_CHARGES')
f=open( 'psi4out.xyz', 'w' )
f.write( "20  " )
f.write( str(ee) + "\n" )
f.write( MOL.save_string_xyz() )
f.close()
--------------------------------------------------------------------------

    Molecular point group: c1
  Charge       = 0
  Multiplicity = 1
  Basis Set: CC-PVTZ
  Basis Set:
  @DF-RHF Final Energy:  -384.09270332253482
    Total Energy =                       -384.0927033225347031
    Molecular point group: c1
  Basis Set: CC-PVTZ
  Basis Set:
  Basis Set: CC-PVTZ
  Basis Set:
  @DF-RHF Final Energy:  -384.09324735961769
    Total Energy =                       -384.0932473596172940
  Basis Set: CC-PVTZ
  Basis Set:
  Basis Set: CC-PVTZ
  Basis Set:
  @DF-RHF Final Energy:  -384.09343965355419
    Total Energy =                       -384.0934396535541282
  Basis Set: CC-PVTZ
  Basis Set:
  Basis Set: CC-PVTZ
  Basis Set:
  @DF-RHF Final Energy:  -384.09319102841147
    Total Energy =                       -384.0931910284114110
  Basis Set: CC-PVTZ
  Basis Set:
  Basis Set: CC-PVTZ
  Basis Set:
  @DF-RHF Final Energy:  -384.09345689987572
    Total Energy =                       -384.0934568998756049
  Basis Set: CC-PVTZ
  Basis Set:
  Basis Set: CC-PVTZ
  Basis Set:
  @DF-RHF Final Energy:  -384.09345857324467
    Total Energy =                       -384.0934585732446749
  Basis Set: CC-PVTZ
  Basis Set:
  Basis Set: CC-PVTZ
  Basis Set:
  @DF-RHF Final Energy:  -384.09345959412411
    Total Energy =                       -384.0934595941241696
  Basis Set: CC-PVTZ
  Basis Set:
  Charge       = 0
  Multiplicity = 1
  Basis Set: CC-PVTZ
  Basis Set:

    Orbital Energies (a.u.)
    -----------------------

    Doubly Occupied:

       1A    -20.603940     2A    -20.540588     3A    -11.373537
       4A    -11.238784     5A    -11.220417     6A    -11.219005
       7A    -11.218406     8A    -11.210326     9A     -1.477538
      10A     -1.369044    11A     -1.097460    12A     -1.040118
      13A     -0.961029    14A     -0.879976    15A     -0.817760
      16A     -0.767150    17A     -0.703647    18A     -0.693913
      19A     -0.669387    20A     -0.626553    21A     -0.624899
      22A     -0.583046    23A     -0.574968    24A     -0.570792
      25A     -0.529930    26A     -0.514166    27A     -0.506881
      28A     -0.484628    29A     -0.468410    30A     -0.462942
      31A     -0.458452    32A     -0.446691

  @DF-RHF Final Energy:  -384.09345964740868

   => Energetics <=

    Nuclear Repulsion Energy =            382.1001732434515930
    One-Electron Energy =               -1280.4785120883432228
    Two-Electron Energy =                 514.2848791974829510
    DFT Exchange-Correlation Energy =       0.0000000000000000
    Empirical Dispersion Energy =           0.0000000000000000
    PCM Polarization Energy =               0.0000000000000000
    EFP Energy =                            0.0000000000000000
    Total Energy =                       -384.0934596474087357
    Molecular point group: c1
  Basis Set: CC-PVTZ
  Basis Set:

  -Total Gradient:
     Atom            X                  Y                   Z
    ------   -----------------  -----------------  -----------------
       1        0.000001776203    -0.000000863211     0.000002207137
       2        0.000001429175     0.000002701576    -0.000002818083
       3       -0.000003418891    -0.000001139977    -0.000015074104
       4       -0.000003985861    -0.000002299105    -0.000017845738
       5        0.000003473101    -0.000001217068     0.000013178725
       6        0.000082377921    -0.000221404948     0.000191382590
       7        0.000000275640    -0.000000185253     0.000009647574
       8        0.000001516687     0.000003892815     0.000008255366
       9       -0.000058572654     0.000343540591    -0.000339159901
      10       -0.000001807699     0.000000347533    -0.000003435894
      11        0.000001753457    -0.000001427018    -0.000002108436
      12       -0.000256555752    -0.000221048657     0.000468104087
      13       -0.000001420819    -0.000002323042    -0.000001679662
      14        0.000001624438     0.000001110669     0.000000390225
      15       -0.000001436374    -0.000001132953     0.000001411516
      16        0.000231711783     0.000103195373    -0.000311273349
      17       -0.000001308417    -0.000001504481    -0.000000814655
      18        0.000000540829    -0.000000271298    -0.000000776657
      19        0.000001909687     0.000000265809     0.000000604882
      20        0.000000117552    -0.000000237360    -0.000000195621

  **** Optimization is complete! (in 8 steps) ****
    Final optimized geometry and variables:
    Molecular point group: c1

    Geometry (in Angstrom), charge = 0, multiplicity = 1:

    H            3.548116461382    -1.014826932344     0.193904208464
    O            2.644441459280    -1.237651081346     0.359573090556
    C            1.907450052645    -0.139639415512     0.215479987277
    C            0.448190483141    -0.412494741910     0.462555447722
    O            2.383583918383     0.903190387022    -0.073922316446
    C           -0.431889928649     0.822678299448     0.319584706702
    H            0.158837655766    -1.201279115945    -0.221984450629
    H            0.367928927342    -0.839944936512     1.457106011565
    C           -1.900218126913     0.575384374732     0.674016243633
    H           -0.342674629778     1.210779784069    -0.687299868302
    H           -0.045254584545     1.598845908047     0.968554311964
    C           -2.659238626300    -0.416177258363    -0.212443534061
    H           -2.418528292609     1.529425601801     0.646818249892
    H           -1.957218600966     0.232302850913     1.703896894135
    C           -2.801882470543     0.019262614556    -1.668888953972
    H           -2.184884826903    -1.391958164274    -0.174833114863
    H           -3.649840655990    -0.552145522558     0.209738205117
    H           -3.410563159037    -0.686074505532    -2.222765944888
    H           -1.843252050155     0.084288637155    -2.169969657377
    H           -3.276641625631     0.992389064425    -1.739834351377

  Mulliken Charges: (a.u.)
   Center  Symbol    Alpha    Beta     Spin     Total
       1     H     0.38234  0.38234  0.00000  0.23532
       2     O     4.16023  4.16023  0.00000 -0.32046
       3     C     2.80369  2.80369  0.00000  0.39263
       4     C     3.11216  3.11216  0.00000 -0.22431
       5     O     4.19099  4.19099  0.00000 -0.38198
       6     C     3.09941  3.09941  0.00000 -0.19883
       7     H     0.43740  0.43740  0.00000  0.12520
       8     H     0.43698  0.43698  0.00000  0.12604
       9     C     3.10514  3.10514  0.00000 -0.21027
      10     H     0.44292  0.44292  0.00000  0.11417
      11     H     0.43651  0.43651  0.00000  0.12699
      12     C     3.09742  3.09742  0.00000 -0.19483
      13     H     0.44473  0.44473  0.00000  0.11053
      14     H     0.44850  0.44850  0.00000  0.10299
      15     C     3.15123  3.15123  0.00000 -0.30246
      16     H     0.45302  0.45302  0.00000  0.09396
      17     H     0.44438  0.44438  0.00000  0.11123
      18     H     0.44580  0.44580  0.00000  0.10840
      19     H     0.45408  0.45408  0.00000  0.09183
      20     H     0.45307  0.45307  0.00000  0.09385

   Total alpha = 32.00000, Total beta = 32.00000, Total charge = -0.00000
