  ==> Input File <==

--------------------------------------------------------------------------
set {
	reference rhf
	basis 6-31G*
}

set_num_threads( 1 )
memory 2 gb

molecule MOL {
0 1

O	 1.846825	 1.296220	 0.000415
C	 1.705091	 0.115954	 0.001797
C	 0.381791	 -0.609817	 0.001258
O	 2.721346	 -0.737485	 -0.000216
C	 -0.823008	 0.326187	 0.001381
H	 0.371250	 -1.265087	 -0.865474
H	 0.370908	 -1.265746	 0.867490
C	 -0.804528	 1.295863	 1.183941
H	 -1.734003	 -0.263601	 0.022037
H	 -0.844470	 0.881608	 -0.931012
C	 -2.006554	 2.241765	 1.200165
H	 -0.779414	 0.732848	 2.115810
H	 0.112478	 1.882683	 1.158963
C	 -1.986905	 3.211204	 2.381289
H	 -2.923384	 1.657124	 1.227711
H	 -2.032515	 2.805522	 0.270304
H	 -1.995527	 2.677258	 3.327355
H	 -2.850970	 3.868146	 2.364863
H	 -1.097271	 3.834512	 2.362577
C	 4.024888	 -0.184556	 -0.001949
H	 4.179030	 0.422472	 -0.882452
H	 4.701782	 -1.024608	 -0.003642
H	 4.181981	 0.421185	 0.878906

	symmetry c1
}
set optking {
	frozen_dihedral = ("
		15 11 8 12,
		9 5 8 12,
		1 2 3 6,
		1 2 4 20
	")
}

ee = energy('scf')
oeprop('DIPOLE', 'QUADRUPOLE', 'MULLIKEN_CHARGES')
f=open( 'psi4out.xyz', 'w' )
f.write( "23  " )
f.write( str(ee) + "\n" )
f.write( MOL.save_string_xyz() )
f.close()
--------------------------------------------------------------------------

    Molecular point group: c1

    Geometry (in Angstrom), charge = 0, multiplicity = 1:

       Center              X                  Y                   Z               Mass
    ------------   -----------------  -----------------  -----------------  -----------------
           O          1.242563712883     0.518501757777    -0.531673824503    15.994914619560
           C          1.100829712883    -0.661764242223    -0.530291824503    12.000000000000
           C         -0.222470287117    -1.387535242223    -0.530830824503    12.000000000000
           O          2.117084712883    -1.515203242223    -0.532304824503    15.994914619560
           C         -1.427269287117    -0.451531242223    -0.530707824503    12.000000000000
           H         -0.233011287117    -2.042805242223    -1.397562824503     1.007825032070
           H         -0.233353287117    -2.043464242223     0.335401175497     1.007825032070
           C         -1.408789287117     0.518144757777     0.651852175497    12.000000000000
           H         -2.338264287117    -1.041319242223    -0.510051824503     1.007825032070
           H         -1.448731287117     0.103889757777    -1.463100824503     1.007825032070
           C         -2.610815287117     1.464046757777     0.668076175497    12.000000000000
           H         -1.383675287117    -0.044870242223     1.583721175497     1.007825032070
           H         -0.491783287117     1.104964757777     0.626874175497     1.007825032070
           C         -2.591166287117     2.433485757777     1.849200175497    12.000000000000
           H         -3.527645287117     0.879405757777     0.695622175497     1.007825032070
           H         -2.636776287117     2.027803757777    -0.261784824503     1.007825032070
           H         -2.599788287117     1.899539757777     2.795266175497     1.007825032070
           H         -3.455231287117     3.090427757777     1.832774175497     1.007825032070
           H         -1.701532287117     3.056793757777     1.830488175497     1.007825032070
           C          3.420626712883    -0.962274242223    -0.534037824503    12.000000000000
           H          3.574768712883    -0.355246242223    -1.414540824503     1.007825032070
           H          4.097520712883    -1.802326242223    -0.535730824503     1.007825032070
           H          3.577719712883    -0.356533242223     0.346817175497     1.007825032070

  Charge       = 0
  Multiplicity = 1
  Basis Set: 6-31G*
  Basis Set:

    Orbital Energies (a.u.)
    -----------------------

    Doubly Occupied:

       1A    -20.605636     2A    -20.547341     3A    -11.374794
       4A    -11.282226     5A    -11.236225     6A    -11.219161
       7A    -11.208274     8A    -11.202609     9A    -11.201846
      10A     -1.471845    11A     -1.366210    12A     -1.089072
      13A     -1.039060    14A     -0.985720    15A     -0.927227
      16A     -0.842180    17A     -0.789679    18A     -0.768954
      19A     -0.701284    20A     -0.682226    21A     -0.673949
      22A     -0.637879    23A     -0.611802    24A     -0.598636
      25A     -0.565114    26A     -0.554584    27A     -0.550884
      28A     -0.531949    29A     -0.520382    30A     -0.502906
      31A     -0.491156    32A     -0.469052    33A     -0.460275
      34A     -0.456481    35A     -0.446207    36A     -0.425884

  @DF-RHF Final Energy:  -422.97187607961240

   => Energetics <=

    Nuclear Repulsion Energy =            467.2199478074385866
    One-Electron Energy =               -1502.3061303181520998
    Two-Electron Energy =                 612.1143064310999762
    DFT Exchange-Correlation Energy =       0.0000000000000000
    Empirical Dispersion Energy =           0.0000000000000000
    PCM Polarization Energy =               0.0000000000000000
    EFP Energy =                            0.0000000000000000
    Total Energy =                       -422.9718760796135939

  Mulliken Charges: (a.u.)
   Center  Symbol    Alpha    Beta     Spin     Total
       1     O     4.28631  4.28631  0.00000 -0.57262
       2     C     2.60440  2.60440  0.00000  0.79121
       3     C     3.20997  3.20997  0.00000 -0.41993
       4     O     4.30695  4.30695  0.00000 -0.61389
       5     C     3.15383  3.15383  0.00000 -0.30766
       6     H     0.39789  0.39789  0.00000  0.20422
       7     H     0.40005  0.40005  0.00000  0.19989
       8     C     3.16553  3.16553  0.00000 -0.33106
       9     H     0.41804  0.41804  0.00000  0.16392
      10     H     0.41428  0.41428  0.00000  0.17144
      11     C     3.15072  3.15072  0.00000 -0.30144
      12     H     0.43012  0.43012  0.00000  0.13975
      13     H     0.39093  0.39093  0.00000  0.21813
      14     C     3.23920  3.23920  0.00000 -0.47840
      15     H     0.42703  0.42703  0.00000  0.14595
      16     H     0.42236  0.42236  0.00000  0.15528
      17     H     0.42332  0.42332  0.00000  0.15336
      18     H     0.42079  0.42079  0.00000  0.15843
      19     H     0.41975  0.41975  0.00000  0.16050
      20     C     3.09254  3.09254  0.00000 -0.18508
      21     H     0.40886  0.40886  0.00000  0.18228
      22     H     0.40805  0.40805  0.00000  0.18391
      23     H     0.40909  0.40909  0.00000  0.18181

   Total alpha = 36.00000, Total beta = 36.00000, Total charge =  0.00000
