  ==> Input File <==

--------------------------------------------------------------------------
set {
	reference rhf
	basis 6-31G*
}

set_num_threads( 1 )
memory 2 gb

molecule MOL {
0 1

O	 -1.969636	 1.622530	 -0.941240
C	 -1.983454	 0.547394	 -0.423240
C	 -0.889235	 -0.467034	 -0.705952
C	 -3.064018	 0.153092	 0.558740
C	 0.379448	 -0.143569	 0.099626
H	 -0.665673	 -0.422696	 -1.766309
H	 -1.230348	 -1.471919	 -0.473840
C	 1.631333	 -0.777471	 -0.511575
H	 0.482768	 0.934507	 0.149241
H	 0.263088	 -0.495696	 1.123449
C	 2.915987	 -0.544314	 0.291766
H	 1.766672	 -0.399098	 -1.523130
H	 1.471257	 -1.849544	 -0.605828
C	 3.373361	 0.914346	 0.347591
H	 3.708709	 -1.142521	 -0.150311
H	 2.780642	 -0.921148	 1.303579
H	 3.506512	 1.320010	 -0.651625
H	 4.322697	 0.999599	 0.867103
H	 2.660624	 1.545032	 0.868198
H	 -3.663850	 -0.650080	 0.138762
H	 -3.698956	 1.001924	 0.771156
H	 -2.627915	 -0.221441	 1.480339

	symmetry c1
}
set optking {
	frozen_dihedral = ("
		6 3 2 1,
		3 5 8 12,
		12 8 11 15
	")
}

ee = energy('scf')
oeprop('DIPOLE', 'QUADRUPOLE', 'MULLIKEN_CHARGES')
f=open( 'psi4out.xyz', 'w' )
f.write( "22  " )
f.write( str(ee) + "\n" )
f.write( MOL.save_string_xyz() )
f.close()
--------------------------------------------------------------------------

    Molecular point group: c1

    Geometry (in Angstrom), charge = 0, multiplicity = 1:

       Center              X                  Y                   Z               Mass
    ------------   -----------------  -----------------  -----------------  -----------------
           O         -2.022255791102     1.444144242107    -0.786742811901    15.994914619560
           C         -2.036073791102     0.369008242107    -0.268742811901    12.000000000000
           C         -0.941854791102    -0.645419757893    -0.551454811901    12.000000000000
           C         -3.116637791102    -0.025293757893     0.713237188099    12.000000000000
           C          0.326828208898    -0.321954757893     0.254123188099    12.000000000000
           H         -0.718292791102    -0.601081757893    -1.611811811901     1.007825032070
           H         -1.282967791102    -1.650304757893    -0.319342811901     1.007825032070
           C          1.578713208898    -0.955856757893    -0.357077811901    12.000000000000
           H          0.430148208898     0.756121242107     0.303738188099     1.007825032070
           H          0.210468208898    -0.674081757893     1.277946188099     1.007825032070
           C          2.863367208898    -0.722699757893     0.446263188099    12.000000000000
           H          1.714052208898    -0.577483757893    -1.368632811901     1.007825032070
           H          1.418637208898    -2.027929757893    -0.451330811901     1.007825032070
           C          3.320741208898     0.735960242107     0.502088188099    12.000000000000
           H          3.656089208898    -1.320906757893     0.004186188099     1.007825032070
           H          2.728022208898    -1.099533757893     1.458076188099     1.007825032070
           H          3.453892208898     1.141624242107    -0.497127811901     1.007825032070
           H          4.270077208898     0.821213242107     1.021600188099     1.007825032070
           H          2.608004208898     1.366646242107     1.022695188099     1.007825032070
           H         -3.716469791102    -0.828465757893     0.293259188099     1.007825032070
           H         -3.751575791102     0.823538242107     0.925653188099     1.007825032070
           H         -2.680534791102    -0.399826757893     1.634836188099     1.007825032070

  Charge       = 0
  Multiplicity = 1
  Basis Set: 6-31G*
  Basis Set:

    Orbital Energies (a.u.)
    -----------------------

    Doubly Occupied:

       1A    -20.547218     2A    -11.324588     3A    -11.228994
       4A    -11.228397     5A    -11.228140     6A    -11.221661
       7A    -11.219830     8A    -11.210309     9A     -1.393134
      10A     -1.095093    11A     -1.043855    12A     -0.999374
      13A     -0.936986    14A     -0.857219    15A     -0.786127
      16A     -0.733248    17A     -0.663086    18A     -0.641029
      19A     -0.626616    20A     -0.618444    21A     -0.597670
      22A     -0.586138    23A     -0.559548    24A     -0.541598
      25A     -0.532038    26A     -0.521707    27A     -0.499710
      28A     -0.483763    29A     -0.468670    30A     -0.463373
      31A     -0.460387    32A     -0.396307

  @DF-RHF Final Energy:  -348.09681156327599

   => Energetics <=

    Nuclear Repulsion Energy =            373.6048203941385282
    One-Electron Energy =               -1211.9748401932197339
    Two-Electron Energy =                 490.2732082358053276
    DFT Exchange-Correlation Energy =       0.0000000000000000
    Empirical Dispersion Energy =           0.0000000000000000
    PCM Polarization Energy =               0.0000000000000000
    EFP Energy =                            0.0000000000000000
    Total Energy =                       -348.0968115632758781

  Mulliken Charges: (a.u.)
   Center  Symbol    Alpha    Beta     Spin     Total
       1     O     4.26244  4.26244  0.00000 -0.52488
       2     C     2.73937  2.73937  0.00000  0.52126
       3     C     3.19905  3.19905  0.00000 -0.39809
       4     C     3.28943  3.28943  0.00000 -0.57886
       5     C     3.16473  3.16473  0.00000 -0.32946
       6     H     0.40081  0.40081  0.00000  0.19838
       7     H     0.41617  0.41617  0.00000  0.16766
       8     C     3.15330  3.15330  0.00000 -0.30659
       9     H     0.40329  0.40329  0.00000  0.19341
      10     H     0.42094  0.42094  0.00000  0.15812
      11     C     3.15382  3.15382  0.00000 -0.30764
      12     H     0.41921  0.41921  0.00000  0.16158
      13     H     0.42167  0.42167  0.00000  0.15667
      14     C     3.24177  3.24177  0.00000 -0.48355
      15     H     0.41954  0.41954  0.00000  0.16091
      16     H     0.42335  0.42335  0.00000  0.15330
      17     H     0.42006  0.42006  0.00000  0.15988
      18     H     0.41852  0.41852  0.00000  0.16297
      19     H     0.41882  0.41882  0.00000  0.16236
      20     H     0.40691  0.40691  0.00000  0.18618
      21     H     0.39720  0.39720  0.00000  0.20560
      22     H     0.40959  0.40959  0.00000  0.18081

   Total alpha = 32.00000, Total beta = 32.00000, Total charge =  0.00000
