  ==> Input File <==

--------------------------------------------------------------------------
set {
	reference rhf
	basis 6-31G*
}

set_num_threads( 1 )
memory 2 gb

molecule MOL {
0 1

H	 -2.646374	 -0.642757	 1.268656
C	 -2.083525	 -0.384536	 0.393091
O	 -0.807605	 -0.127164	 0.768327
F	 -2.118945	 -1.383102	 -0.486752
F	 -2.621877	 0.670592	 -0.209486
C	 -0.609541	 0.559486	 1.952375
C	 0.413964	 1.651038	 1.667573
Cl	 -0.024917	 -0.527839	 3.222474
H	 -1.510487	 1.025771	 2.311050
F	 0.644692	 2.359093	 2.752728
F	 -0.072795	 2.459455	 0.747266
F	 1.549889	 1.162802	 1.232515

	symmetry c1
}
set optking {
	frozen_dihedral = ("
		10 7 6 9,
		9 6 3 2
	")
}

ee = energy('scf')
oeprop('DIPOLE', 'QUADRUPOLE', 'MULLIKEN_CHARGES')
f=open( 'psi4out.xyz', 'w' )
f.write( "12  " )
f.write( str(ee) + "\n" )
f.write( MOL.save_string_xyz() )
f.close()
--------------------------------------------------------------------------

    Molecular point group: c1

    Geometry (in Angstrom), charge = 0, multiplicity = 1:

       Center              X                  Y                   Z               Mass
    ------------   -----------------  -----------------  -----------------  -----------------
           H         -2.129527418556    -1.196677304122    -0.108853691774     1.007825032070
           C         -1.566678418556    -0.938456304122    -0.984418691774    12.000000000000
           O         -0.290758418556    -0.681084304122    -0.609182691774    15.994914619560
           F         -1.602098418556    -1.937022304122    -1.864261691774    18.998403224000
           F         -2.105030418556     0.116671695878    -1.586995691774    18.998403224000
           C         -0.092694418556     0.005565695878     0.574865308226    12.000000000000
           C          0.930810581444     1.097117695878     0.290063308226    12.000000000000
          CL          0.491929581444    -1.081759304122     1.844964308226    34.968852682000
           H         -0.993640418556     0.471850695878     0.933540308226     1.007825032070
           F          1.161538581444     1.805172695878     1.375218308226    18.998403224000
           F          0.444051581444     1.905534695878    -0.630243691774    18.998403224000
           F          2.066735581444     0.608881695878    -0.144994691774    18.998403224000

  Charge       = 0
  Multiplicity = 1
  Basis Set: 6-31G*
  Basis Set:

    Orbital Energies (a.u.)
    -----------------------

    Doubly Occupied:

       1A   -104.854342     2A    -26.364934     3A    -26.361794
       4A    -26.361050     5A    -26.343096     6A    -26.342231
       7A    -20.650891     8A    -11.533037     9A    -11.490892
      10A    -11.412039    11A    -10.589061    12A     -8.058397
      13A     -8.054887    14A     -8.054762    15A     -1.764871
      16A     -1.711189    17A     -1.661801    18A     -1.659313
      19A     -1.632931    20A     -1.490966    21A     -1.187711
      22A     -1.056548    23A     -0.984059    24A     -0.930823
      25A     -0.859863    26A     -0.858465    27A     -0.849438
      28A     -0.820209    29A     -0.813974    30A     -0.790370
      31A     -0.730529    32A     -0.727439    33A     -0.696679
      34A     -0.692287    35A     -0.681721    36A     -0.677207
      37A     -0.661440    38A     -0.660844    39A     -0.654657
      40A     -0.641475    41A     -0.613221    42A     -0.566919
      43A     -0.524504    44A     -0.487332    45A     -0.479172

  @DF-RHF Final Energy: -1146.30757501827838

   => Energetics <=

    Nuclear Repulsion Energy =            726.9393193056146174
    One-Electron Energy =               -3036.4151704406012868
    Two-Electron Energy =                1163.1682761167094213
    DFT Exchange-Correlation Energy =       0.0000000000000000
    Empirical Dispersion Energy =           0.0000000000000000
    PCM Polarization Energy =               0.0000000000000000
    EFP Energy =                            0.0000000000000000
    Total Energy =                      -1146.3075750182770207

  Mulliken Charges: (a.u.)
   Center  Symbol    Alpha    Beta     Spin     Total
       1     H     0.42188  0.42188  0.00000  0.15623
       2     C     2.56671  2.56671  0.00000  0.86658
       3     O     4.29570  4.29570  0.00000 -0.59140
       4     F     4.67574  4.67574  0.00000 -0.35147
       5     F     4.67921  4.67921  0.00000 -0.35842
       6     C     3.04391  3.04391  0.00000 -0.08781
       7     C     2.43036  2.43036  0.00000  1.13928
       8    CL     8.49800  8.49800  0.00000  0.00400
       9     H     0.37339  0.37339  0.00000  0.25321
      10     F     4.67371  4.67371  0.00000 -0.34742
      11     F     4.67457  4.67457  0.00000 -0.34913
      12     F     4.66682  4.66682  0.00000 -0.33364

   Total alpha = 45.00000, Total beta = 45.00000, Total charge =  0.00000
