  ==> Input File <==

--------------------------------------------------------------------------
set {
	reference rhf
	basis 6-31G*
}

set_num_threads( 1 )
memory 2 gb

molecule MOL {
0 1

O	 -3.540897	 -0.150344	 0.758069
C	 -2.668563	 0.129746	 -0.000350
C	 -2.790651	 1.187322	 -1.067072
O	 -1.481751	 -0.454642	 0.000584
H	 -3.027748	 2.132809	 -0.594102
H	 -1.883450	 1.283149	 -1.645208
H	 -3.617306	 0.930456	 -1.718640
C	 -0.334255	 0.388708	 0.000906
C	 0.891947	 -0.504646	 0.000751
H	 -0.365390	 1.025305	 -0.873475
H	 -0.365484	 1.024911	 0.875569
C	 2.191998	 0.301789	 0.000897
H	 0.855148	 -1.151283	 -0.871571
H	 0.855132	 -1.151660	 0.872805
C	 3.441114	 -0.581407	 0.000108
H	 2.215074	 0.954890	 -0.869742
H	 2.215465	 0.953923	 0.872248
C	 4.739576	 0.224112	 -0.001102
H	 3.419457	 -1.233487	 -0.870178
H	 3.420834	 -1.233096	 0.870717
H	 4.804918	 0.861552	 -0.878265
H	 5.606527	 -0.429058	 -0.001824
H	 4.806469	 0.861674	 0.875853

	symmetry c1
}
set optking {
	frozen_dihedral = ("
		13 9 8 10,
		2 4 8 10,
		16 12 9 13,
		19 15 12 16
	")
}

ee = energy('scf')
oeprop('DIPOLE', 'QUADRUPOLE', 'MULLIKEN_CHARGES')
f=open( 'psi4out.xyz', 'w' )
f.write( "23  " )
f.write( str(ee) + "\n" )
f.write( MOL.save_string_xyz() )
f.close()
--------------------------------------------------------------------------

    Molecular point group: c1

    Geometry (in Angstrom), charge = 0, multiplicity = 1:

       Center              X                  Y                   Z               Mass
    ------------   -----------------  -----------------  -----------------  -----------------
           O         -3.574755850240    -0.219050470203     0.793753423814    15.994914619560
           C         -2.702421850240     0.061039529797     0.035334423814    12.000000000000
           C         -2.824509850240     1.118615529797    -1.031387576186    12.000000000000
           O         -1.515609850240    -0.523348470203     0.036268423814    15.994914619560
           H         -3.061606850240     2.064102529797    -0.558417576186     1.007825032070
           H         -1.917308850240     1.214442529797    -1.609523576186     1.007825032070
           H         -3.651164850240     0.861749529797    -1.682955576186     1.007825032070
           C         -0.368113850240     0.320001529797     0.036590423814    12.000000000000
           C          0.858088149760    -0.573352470203     0.036435423814    12.000000000000
           H         -0.399248850240     0.956598529797    -0.837790576186     1.007825032070
           H         -0.399342850240     0.956204529797     0.911253423814     1.007825032070
           C          2.158139149760     0.233082529797     0.036581423814    12.000000000000
           H          0.821289149760    -1.219989470203    -0.835886576186     1.007825032070
           H          0.821273149760    -1.220366470203     0.908489423814     1.007825032070
           C          3.407255149760    -0.650113470203     0.035792423814    12.000000000000
           H          2.181215149760     0.886183529797    -0.834057576186     1.007825032070
           H          2.181606149760     0.885216529797     0.907932423814     1.007825032070
           C          4.705717149760     0.155405529797     0.034582423814    12.000000000000
           H          3.385598149760    -1.302193470203    -0.834493576186     1.007825032070
           H          3.386975149760    -1.301802470203     0.906401423814     1.007825032070
           H          4.771059149760     0.792845529797    -0.842580576186     1.007825032070
           H          5.572668149760    -0.497764470203     0.033860423814     1.007825032070
           H          4.772610149760     0.792967529797     0.911537423814     1.007825032070

  Charge       = 0
  Multiplicity = 1
  Basis Set: 6-31G*
  Basis Set:

    Orbital Energies (a.u.)
    -----------------------

    Doubly Occupied:

       1A    -20.594415     2A    -20.545898     3A    -11.375696
       4A    -11.297671     5A    -11.234670     6A    -11.231350
       7A    -11.230187     8A    -11.226082     9A    -11.216764
      10A     -1.463821    11A     -1.366797    12A     -1.099084
      13A     -1.037713    14A     -1.014245    15A     -0.944011
      16A     -0.849447    17A     -0.809391    18A     -0.779556
      19A     -0.703141    20A     -0.693087    21A     -0.660372
      22A     -0.651622    23A     -0.621987    24A     -0.595604
      25A     -0.582816    26A     -0.578078    27A     -0.562675
      28A     -0.543497    29A     -0.522411    30A     -0.505467
      31A     -0.491246    32A     -0.482181    33A     -0.476372
      34A     -0.475193    35A     -0.453314    36A     -0.431261

  @DF-RHF Final Energy:  -422.95379529732929

   => Energetics <=

    Nuclear Repulsion Energy =            451.6002567037672861
    One-Electron Energy =               -1470.4138161464461518
    Two-Electron Energy =                 595.8597641453509368
    DFT Exchange-Correlation Energy =       0.0000000000000000
    Empirical Dispersion Energy =           0.0000000000000000
    PCM Polarization Energy =               0.0000000000000000
    EFP Energy =                            0.0000000000000000
    Total Energy =                       -422.9537952973279289

  Mulliken Charges: (a.u.)
   Center  Symbol    Alpha    Beta     Spin     Total
       1     O     4.26149  4.26149  0.00000 -0.52298
       2     C     2.61680  2.61680  0.00000  0.76640
       3     C     3.30395  3.30395  0.00000 -0.60789
       4     O     4.30978  4.30978  0.00000 -0.61955
       5     H     0.39683  0.39683  0.00000  0.20634
       6     H     0.40822  0.40822  0.00000  0.18356
       7     H     0.39214  0.39214  0.00000  0.21571
       8     C     3.00030  3.00030  0.00000 -0.00060
       9     C     3.16204  3.16204  0.00000 -0.32408
      10     H     0.42105  0.42105  0.00000  0.15790
      11     H     0.41336  0.41336  0.00000  0.17329
      12     C     3.16145  3.16145  0.00000 -0.32290
      13     H     0.41135  0.41135  0.00000  0.17729
      14     H     0.40711  0.40711  0.00000  0.18579
      15     C     3.15196  3.15196  0.00000 -0.30391
      16     H     0.42247  0.42247  0.00000  0.15506
      17     H     0.42082  0.42082  0.00000  0.15837
      18     C     3.24008  3.24008  0.00000 -0.48015
      19     H     0.42055  0.42055  0.00000  0.15889
      20     H     0.41951  0.41951  0.00000  0.16098
      21     H     0.42128  0.42128  0.00000  0.15744
      22     H     0.41683  0.41683  0.00000  0.16635
      23     H     0.42066  0.42066  0.00000  0.15868

   Total alpha = 36.00000, Total beta = 36.00000, Total charge =  0.00000
