  ==> Input File <==

--------------------------------------------------------------------------
set {
	reference rhf
	basis 6-31G*
}

set_num_threads( 4 )
memory 2 gb

molecule MOL {
0 1

H	 -3.240697	 -1.041369	 -0.276106
O	 -2.310168	 -0.871793	 -0.309793
C	 -2.026376	 0.340750	 0.341611
C	 -0.673256	 0.843270	 -0.132153
H	 -2.792215	 1.080697	 0.115987
H	 -2.013526	 0.200402	 1.421792
C	 0.486613	 -0.083066	 0.235839
H	 -0.715586	 0.970948	 -1.210718
H	 -0.508072	 1.829858	 0.297090
C	 1.840406	 0.433480	 -0.254303
H	 0.300215	 -1.068318	 -0.178947
H	 0.519509	 -0.203625	 1.318070
C	 3.000220	 -0.489290	 0.118523
H	 1.809207	 0.553576	 -1.335192
H	 2.021860	 1.424500	 0.157276
H	 2.864959	 -1.479103	 -0.307933
H	 3.946603	 -0.099227	 -0.243630
H	 3.080049	 -0.602997	 1.196117

	symmetry c1
}
set optking {
	frozen_dihedral = ("
		1 2 3 4
	")
}

ee = optimize('scf')
oeprop('DIPOLE', 'QUADRUPOLE', 'MULLIKEN_CHARGES')
f=open( 'psi4out.xyz', 'w' )
f.write( "18  " )
f.write( str(ee) + "\n" )
f.write( MOL.save_string_xyz() )
f.close()
--------------------------------------------------------------------------

    Molecular point group: c1
  Charge       = 0
  Multiplicity = 1
  Basis Set: 6-31G*
  Basis Set:
  @DF-RHF Final Energy:  -271.17932550262981
    Total Energy =                       -271.1793255026299221
    Molecular point group: c1
  Basis Set: 6-31G*
  Basis Set:
  Basis Set: 6-31G*
  Basis Set:
  @DF-RHF Final Energy:  -271.17934374559422
    Total Energy =                       -271.1793437455942239
  Basis Set: 6-31G*
  Basis Set:
  Basis Set: 6-31G*
  Basis Set:
  @DF-RHF Final Energy:  -271.17935034430815
    Total Energy =                       -271.1793503443079771
  Basis Set: 6-31G*
  Basis Set:
  Basis Set: 6-31G*
  Basis Set:
  @DF-RHF Final Energy:  -271.17935180044179
    Total Energy =                       -271.1793518004418502
  Basis Set: 6-31G*
  Basis Set:
  Charge       = 0
  Multiplicity = 1
  Basis Set: 6-31G*
  Basis Set:

    Orbital Energies (a.u.)
    -----------------------

    Doubly Occupied:

       1A    -20.552523     2A    -11.268078     3A    -11.211776
       4A    -11.210400     5A    -11.205915     6A    -11.204110
       7A     -1.359229     8A     -1.074402     9A     -1.008460
      10A     -0.912790    11A     -0.817646    12A     -0.783985
      13A     -0.703358    14A     -0.645847    15A     -0.620758
      16A     -0.579123    17A     -0.573061    18A     -0.554205
      19A     -0.519249    20A     -0.507667    21A     -0.488733
      22A     -0.466394    23A     -0.457840    24A     -0.442084
      25A     -0.431071

  @DF-RHF Final Energy:  -271.17935207926405

   => Energetics <=

    Nuclear Repulsion Energy =            249.0167755411047210
    One-Electron Energy =                -861.1948493893594332
    Two-Electron Energy =                 340.9987217689908334
    DFT Exchange-Correlation Energy =       0.0000000000000000
    Empirical Dispersion Energy =           0.0000000000000000
    PCM Polarization Energy =               0.0000000000000000
    EFP Energy =                            0.0000000000000000
    Total Energy =                       -271.1793520792638787
    Molecular point group: c1
  Basis Set: 6-31G*
  Basis Set:

  -Total Gradient:
     Atom            X                  Y                   Z
    ------   -----------------  -----------------  -----------------
       1       -0.000209498743     0.000812578460    -0.001451980651
       2        0.000142794416    -0.000797799731     0.001506672435
       3        0.000517924409    -0.000488417534     0.000683794843
       4       -0.000455731186     0.000465469321    -0.000713441578
       5       -0.000030942169     0.000014124369    -0.000000099090
       6        0.000045320762     0.000015336964    -0.000012797679
       7        0.000024198433     0.000003397008    -0.000015834690
       8       -0.000010693613    -0.000011598126     0.000022400695
       9       -0.000020657054     0.000005996882     0.000000216005
      10        0.000000990636    -0.000016657455    -0.000016318707
      11       -0.000003425994    -0.000003734708    -0.000001172075
      12       -0.000000695735    -0.000001410001    -0.000004512849
      13        0.000002699775     0.000005562261     0.000010743838
      14        0.000003890042    -0.000003484230    -0.000007182070
      15       -0.000007297028    -0.000001494322    -0.000006022328
      16        0.000000166308     0.000004735512    -0.000002829787
      17        0.000000306248     0.000002607456     0.000004875157
      18        0.000000650492    -0.000005212128     0.000003488532

  **** Optimization is complete! (in 5 steps) ****
    Final optimized geometry and variables:
    Molecular point group: c1

    Geometry (in Angstrom), charge = 0, multiplicity = 1:

    H           -3.231693713887    -1.057277236130    -0.263604385680
    O           -2.302330767919    -0.883453206973    -0.293217667785
    C           -2.026474615711     0.341728041866     0.339980421892
    C           -0.672484735979     0.847001768390    -0.129289253959
    H           -2.790581621221     1.076539411547     0.094084036875
    H           -2.028312908299     0.217217470325     1.421797244970
    C            0.485892521492    -0.082958909095     0.235113502774
    H           -0.713242891814     0.980200565010    -1.207075917059
    H           -0.506149544144     1.830308026145     0.307309482126
    C            1.840711204070     0.433535334101    -0.252213103649
    H            0.298262465039    -1.066248778924    -0.184139255784
    H            0.517567081464    -0.208665175445     1.316678206113
    C            2.998901122991    -0.492663877721     0.117120955524
    H            1.810271287456     0.558406394847    -1.332590776071
    H            2.023453846129     1.422512532493     0.163811966572
    H            2.862206681758    -1.480464216572    -0.313569703482
    H            3.946057153286    -0.102550142220    -0.242938258350
    H            3.077994950304    -0.611126594549     1.194213754075

  Mulliken Charges: (a.u.)
   Center  Symbol    Alpha    Beta     Spin     Total
       1     H     0.28014  0.28014  0.00000  0.43972
       2     O     4.37055  4.37055  0.00000 -0.74109
       3     C     2.99758  2.99758  0.00000  0.00485
       4     C     3.15887  3.15887  0.00000 -0.31773
       5     H     0.43029  0.43029  0.00000  0.13942
       6     H     0.43063  0.43063  0.00000  0.13874
       7     C     3.15346  3.15346  0.00000 -0.30692
       8     H     0.41679  0.41679  0.00000  0.16643
       9     H     0.42478  0.42478  0.00000  0.15043
      10     C     3.15171  3.15171  0.00000 -0.30343
      11     H     0.40746  0.40746  0.00000  0.18507
      12     H     0.42681  0.42681  0.00000  0.14638
      13     C     3.23889  3.23889  0.00000 -0.47779
      14     H     0.42279  0.42279  0.00000  0.15442
      15     H     0.42542  0.42542  0.00000  0.14915
      16     H     0.42080  0.42080  0.00000  0.15841
      17     H     0.42052  0.42052  0.00000  0.15897
      18     H     0.42251  0.42251  0.00000  0.15497

   Total alpha = 25.00000, Total beta = 25.00000, Total charge =  0.00000
