  ==> Input File <==

--------------------------------------------------------------------------
set {
	reference rhf
	basis 6-31G*
}

set_num_threads( 4 )
memory 2 gb

molecule MOL {
0 1

H	 -3.489736	 -0.245244	 0.802111
O	 -3.112929	 -0.206196	 -0.066282
C	 -1.776682	 -0.067725	 -0.008503
C	 -1.090195	 0.003414	 1.200081
C	 -1.089500	 0.003486	 -1.213815
H	 -1.630408	 -0.052567	 2.129783
C	 0.281523	 0.145561	 1.198429
H	 -1.641377	 -0.053704	 -2.132745
C	 0.282363	 0.145648	 -1.199077
H	 0.823967	 0.201773	 2.123467
C	 0.984182	 0.218375	 0.000000
H	 0.815366	 0.200881	 -2.132843
C	 2.452467	 0.370529	 0.000000
O	 3.228994	 -0.533774	 0.000000
H	 2.809473	 1.405765	 0.000000

	symmetry c1
}
set optking {
	frozen_dihedral = ("
		7 11 13 14
	")
}

ee = optimize('scf')
oeprop('DIPOLE', 'QUADRUPOLE', 'MULLIKEN_CHARGES')
f=open( 'psi4out.xyz', 'w' )
f.write( "15  " )
f.write( str(ee) + "\n" )
f.write( MOL.save_string_xyz() )
f.close()
--------------------------------------------------------------------------

    Molecular point group: c1
  Charge       = 0
  Multiplicity = 1
  Basis Set: 6-31G*
  Basis Set:
  @DF-RHF Final Energy:  -418.27289078895427
    Total Energy =                       -418.2728907889542143
    Molecular point group: c1
  Basis Set: 6-31G*
  Basis Set:
  Basis Set: 6-31G*
  Basis Set:
  @DF-RHF Final Energy:  -418.27353711649982
    Total Energy =                       -418.2735371164991420
  Basis Set: 6-31G*
  Basis Set:
  Basis Set: 6-31G*
  Basis Set:
  @DF-RHF Final Energy:  -418.27356083219877
    Total Energy =                       -418.2735608321981999
  Basis Set: 6-31G*
  Basis Set:
  Basis Set: 6-31G*
  Basis Set:
  @DF-RHF Final Energy:  -418.27350709987707
    Total Energy =                       -418.2735070998775200
  Basis Set: 6-31G*
  Basis Set:
  Basis Set: 6-31G*
  Basis Set:
  @DF-RHF Final Energy:  -418.27357077704482
    Total Energy =                       -418.2735707770449380
  Basis Set: 6-31G*
  Basis Set:
  Charge       = 0
  Multiplicity = 1
  Basis Set: 6-31G*
  Basis Set:

    Orbital Energies (a.u.)
    -----------------------

    Doubly Occupied:

       1A    -20.602842     2A    -20.571683     3A    -11.334997
       4A    -11.312895     5A    -11.255456     6A    -11.253297
       7A    -11.244409     8A    -11.243010     9A    -11.236941
      10A     -1.422505    11A     -1.410294    12A     -1.167934
      13A     -1.037544    14A     -1.035365    15A     -0.886823
      16A     -0.859815    17A     -0.800716    18A     -0.751754
      19A     -0.706451    20A     -0.675350    21A     -0.653820
      22A     -0.628205    23A     -0.604961    24A     -0.600600
      25A     -0.589989    26A     -0.560863    27A     -0.527502
      28A     -0.501800    29A     -0.493087    30A     -0.421970
      31A     -0.354105    32A     -0.323370

  @DF-RHF Final Energy:  -418.27357128207836

   => Energetics <=

    Nuclear Repulsion Energy =            400.0422560530952296
    One-Electron Energy =               -1362.4909451229248134
    Two-Electron Energy =                 544.1751177877512191
    DFT Exchange-Correlation Energy =       0.0000000000000000
    Empirical Dispersion Energy =           0.0000000000000000
    PCM Polarization Energy =               0.0000000000000000
    EFP Energy =                            0.0000000000000000
    Total Energy =                       -418.2735712820783647
    Molecular point group: c1
  Basis Set: 6-31G*
  Basis Set:

  -Total Gradient:
     Atom            X                  Y                   Z
    ------   -----------------  -----------------  -----------------
       1        0.000007912063     0.000008737617     0.000001026436
       2       -0.000013544481    -0.000032295017     0.000009634137
       3        0.000018376939     0.000053355862    -0.000141959804
       4        0.000084778638     0.000005734671     0.000056343955
       5       -0.000146167888    -0.000023660864     0.000080581531
       6       -0.000002331593    -0.000000289247    -0.000001420343
       7       -0.000077237500     0.000099283797     0.000066685351
       8        0.000017001319     0.000005576798    -0.000010193014
       9        0.000150426909    -0.000008477750     0.000084441713
      10       -0.000006395000     0.000005829367    -0.000004836779
      11       -0.000031705425    -0.000186642683    -0.000203602394
      12       -0.000016998683     0.000004321720    -0.000005732700
      13        0.000063878322     0.000043117324     0.000186884763
      14       -0.000037088281     0.000026993179    -0.000141595311
      15       -0.000010905349    -0.000001584770     0.000023742459

  **** Optimization is complete! (in 6 steps) ****
    Final optimized geometry and variables:
    Molecular point group: c1

    Geometry (in Angstrom), charge = 0, multiplicity = 1:

    H           -3.500841270047    -0.255455218375     0.805936449692
    O           -3.126137695556    -0.202717675829    -0.062247300048
    C           -1.784871832014    -0.064282401999    -0.000418018347
    C           -1.096561638402     0.007707472365     1.199696997964
    C           -1.093396619632     0.007834164966    -1.202445234948
    H           -1.628922546723    -0.050457321822     2.133853665138
    C            0.281698115136     0.150799372024     1.195804479214
    H           -1.641669753809    -0.052633454035    -2.123733752663
    C            0.279152303205     0.150624601299    -1.193970062119
    H            0.805687183997     0.200552122859     2.134067413889
    C            0.982304106750     0.221390010872     0.003769266152
    H            0.806875018290     0.200731560629    -2.130161127597
    C            2.475187901836     0.380015343468     0.003346951356
    O            3.239041759124    -0.529483526323     0.006325804117
    H            2.848908006142     1.408340533931    -0.001321539835

  Mulliken Charges: (a.u.)
   Center  Symbol    Alpha    Beta     Spin     Total
       1     H     0.27019  0.27019  0.00000  0.45961
       2     O     4.37628  4.37628  0.00000 -0.75256
       3     C     2.79268  2.79268  0.00000  0.41464
       4     C     3.14185  3.14185  0.00000 -0.28371
       5     C     3.12099  3.12099  0.00000 -0.24198
       6     H     0.39966  0.39966  0.00000  0.20068
       7     C     3.09520  3.09520  0.00000 -0.19040
       8     H     0.38693  0.38693  0.00000  0.22613
       9     C     3.09539  3.09539  0.00000 -0.19078
      10     H     0.39010  0.39010  0.00000  0.21981
      11     C     3.04270  3.04270  0.00000 -0.08541
      12     H     0.38979  0.38979  0.00000  0.22042
      13     C     2.85406  2.85406  0.00000  0.29187
      14     O     4.21999  4.21999  0.00000 -0.43998
      15     H     0.42418  0.42418  0.00000  0.15164

   Total alpha = 32.00000, Total beta = 32.00000, Total charge = -0.00000
