  ==> Input File <==

--------------------------------------------------------------------------
set {
	reference rhf
	basis cc-pvtz
}

set_num_threads( 4 )
memory 2 gb

molecule MOL {
0 1

H	 -2.819198	 0.050379	 0.726482
C	 -2.539205	 0.917711	 0.132999
O	 -1.168534	 0.965021	 -0.082783
H	 -3.023483	 0.850748	 -0.830266
H	 -2.895195	 1.811813	 0.641663
C	 -0.408345	 1.063020	 1.076590
C	 1.058511	 1.001195	 0.731833
H	 -0.612392	 2.006361	 1.582991
H	 -0.648493	 0.254657	 1.763838
O	 1.401606	 -0.295166	 0.366636
H	 1.264944	 1.696844	 -0.078654
H	 1.638535	 1.314763	 1.599715
C	 2.714315	 -0.441627	 -0.061017
H	 2.765292	 -0.641548	 -1.128869
H	 3.305661	 0.447341	 0.150952
H	 3.143725	 -1.278506	 0.470147

	symmetry c1
}
set optking {
	frozen_dihedral = ("
		7 10 13 14
	")
}

ee = optimize('scf')
oeprop('DIPOLE', 'QUADRUPOLE', 'MULLIKEN_CHARGES')
f=open( 'psi4out.xyz', 'w' )
f.write( "16  " )
f.write( str(ee) + "\n" )
f.write( MOL.save_string_xyz() )
f.close()
--------------------------------------------------------------------------

    Molecular point group: c1
  Charge       = 0
  Multiplicity = 1
  Basis Set: CC-PVTZ
  Basis Set:
  @DF-RHF Final Energy:  -307.09424239448254
    Total Energy =                       -307.0942423944827624
    Molecular point group: c1
  Basis Set: CC-PVTZ
  Basis Set:
  Basis Set: CC-PVTZ
  Basis Set:
  @DF-RHF Final Energy:  -307.09450571800591
    Total Energy =                       -307.0945057180055073
  Basis Set: CC-PVTZ
  Basis Set:
  Basis Set: CC-PVTZ
  Basis Set:
  @DF-RHF Final Energy:  -307.09456521373818
    Total Energy =                       -307.0945652137380648
  Basis Set: CC-PVTZ
  Basis Set:
  Charge       = 0
  Multiplicity = 1
  Basis Set: CC-PVTZ
  Basis Set:

    Orbital Energies (a.u.)
    -----------------------

    Doubly Occupied:

       1A    -20.547447     2A    -20.544367     3A    -11.267779
       4A    -11.266584     5A    -11.261332     6A    -11.261097
       7A     -1.389595     8A     -1.371639     9A     -1.031718
      10A     -0.937237    11A     -0.892181    12A     -0.823934
      13A     -0.685003    14A     -0.681072    15A     -0.658792
      16A     -0.636039    17A     -0.630454    18A     -0.597563
      19A     -0.553985    20A     -0.538439    21A     -0.508893
      22A     -0.479262    23A     -0.464005    24A     -0.420841
      25A     -0.410312

  @DF-RHF Final Energy:  -307.09456573514842

   => Energetics <=

    Nuclear Repulsion Energy =            258.6157363245341685
    One-Electron Energy =                -931.7014653343549071
    Two-Electron Energy =                 365.9911632746720329
    DFT Exchange-Correlation Energy =       0.0000000000000000
    Empirical Dispersion Energy =           0.0000000000000000
    PCM Polarization Energy =               0.0000000000000000
    EFP Energy =                            0.0000000000000000
    Total Energy =                       -307.0945657351487057
    Molecular point group: c1
  Basis Set: CC-PVTZ
  Basis Set:

  -Total Gradient:
     Atom            X                  Y                   Z
    ------   -----------------  -----------------  -----------------
       1       -0.000001585656    -0.000000026494    -0.000000537036
       2        0.000001019011     0.000001123940     0.000015752581
       3        0.000021441178    -0.000014132081     0.000011123343
       4        0.000006029905    -0.000000769739    -0.000001026437
       5        0.000001885765    -0.000001010912    -0.000000705563
       6       -0.000020015673     0.000058160435     0.000014849914
       7        0.000307199491    -0.000238268140     0.001224377332
       8       -0.000038382106     0.000018483126     0.000017248872
       9        0.000006466642     0.000006983258    -0.000026403330
      10       -0.000428920296    -0.000096612044    -0.001705790857
      11        0.000002859389    -0.000006086977     0.000004317174
      12       -0.000003926599    -0.000026600015    -0.000022913806
      13        0.000239895047     0.001851570860     0.000189805444
      14       -0.000108777841    -0.001553129395     0.000288009255
      15        0.000007191355     0.000004997124    -0.000006214863
      16        0.000007620385    -0.000004682946    -0.000001892024

  **** Optimization is complete! (in 4 steps) ****
    Final optimized geometry and variables:
    Molecular point group: c1

    Geometry (in Angstrom), charge = 0, multiplicity = 1:

    H           -2.988587475285    -0.496991529258     0.361853362873
    C           -2.714431372161     0.375066288209    -0.227399009668
    O           -1.343695645739     0.434986309784    -0.439239507714
    H           -3.195548299266     0.307853229365    -1.192236189280
    H           -3.079472071805     1.264053538925     0.283862897497
    C           -0.587538109466     0.534834301459     0.722584482226
    C            0.880762475498     0.484874694932     0.382225200222
    H           -0.799782901459     1.475292553843     1.231282343317
    H           -0.823809507384    -0.277415218210     1.406466382210
    O            1.230085144105    -0.809856006944     0.012780417075
    H            1.081879067178     1.187381202613    -0.423008904228
    H            1.453703207047     0.797527402926     1.254324501524
    C            2.543349439868    -0.988209951179    -0.419584621203
    H            2.565204250739    -1.191758418686    -1.484901343040
    H            3.161641198768    -0.119539545817    -0.217522846363
    H            2.973524603963    -1.837852859312     0.096838674617

  Mulliken Charges: (a.u.)
   Center  Symbol    Alpha    Beta     Spin     Total
       1     H     0.47016  0.47016  0.00000  0.05967
       2     C     3.03201  3.03201  0.00000 -0.06403
       3     O     4.17038  4.17038  0.00000 -0.34076
       4     H     0.44644  0.44644  0.00000  0.10711
       5     H     0.47374  0.47374  0.00000  0.05252
       6     C     2.96326  2.96326  0.00000  0.07348
       7     C     2.95867  2.95867  0.00000  0.08265
       8     H     0.47616  0.47616  0.00000  0.04768
       9     H     0.47118  0.47118  0.00000  0.05764
      10     O     4.17492  4.17492  0.00000 -0.34984
      11     H     0.47089  0.47089  0.00000  0.05822
      12     H     0.47597  0.47597  0.00000  0.04806
      13     C     3.02766  3.02766  0.00000 -0.05532
      14     H     0.45841  0.45841  0.00000  0.08318
      15     H     0.47372  0.47372  0.00000  0.05257
      16     H     0.45642  0.45642  0.00000  0.08715

   Total alpha = 25.00000, Total beta = 25.00000, Total charge =  0.00000
