  ==> Input File <==

--------------------------------------------------------------------------
set {
	reference rhf
	basis 6-31G*
}

set_num_threads( 4 )
memory 2 gb

molecule MOL {
0 1

H	 2.032436	 -1.327934	 2.000203
O	 1.523287	 -1.413583	 1.200067
C	 0.542990	 -0.511678	 1.234917
C	 -0.318135	 -0.576402	 0.000164
O	 0.401788	 0.233775	 2.148897
C	 -1.454360	 0.441875	 -0.000474
H	 0.334610	 -0.439423	 -0.857836
H	 -0.698420	 -1.591511	 -0.076917
C	 -2.826123	 -0.230780	 0.000056
H	 -1.357605	 1.085198	 -0.868380
H	 -1.357504	 1.086451	 0.866496
H	 -2.959731	 -0.858053	 -0.876869
H	 -3.619374	 0.509403	 -0.000080
H	 -2.959371	 -0.857318	 0.877556

	symmetry c1
}
set optking {
	frozen_dihedral = ("
		7 4 6 10
	")
}

ee = optimize('scf')
oeprop('DIPOLE', 'QUADRUPOLE', 'MULLIKEN_CHARGES')
f=open( 'psi4out.xyz', 'w' )
f.write( "14  " )
f.write( str(ee) + "\n" )
f.write( MOL.save_string_xyz() )
f.close()
--------------------------------------------------------------------------

    Molecular point group: c1
  Charge       = 0
  Multiplicity = 1
  Basis Set: 6-31G*
  Basis Set:
  @DF-RHF Final Energy:  -305.87578428100528
    Total Energy =                       -305.8757842810051670
    Molecular point group: c1
  Basis Set: 6-31G*
  Basis Set:
  Basis Set: 6-31G*
  Basis Set:
  @DF-RHF Final Energy:  -305.87607739451539
    Total Energy =                       -305.8760773945152209
  Basis Set: 6-31G*
  Basis Set:
  Basis Set: 6-31G*
  Basis Set:
  @DF-RHF Final Energy:  -305.87594169720330
    Total Energy =                       -305.8759416972033591
  Basis Set: 6-31G*
  Basis Set:
  Basis Set: 6-31G*
  Basis Set:
  @DF-RHF Final Energy:  -305.87618426005804
    Total Energy =                       -305.8761842600578120
  Basis Set: 6-31G*
  Basis Set:
  Basis Set: 6-31G*
  Basis Set:
  @DF-RHF Final Energy:  -305.87618670458500
    Total Energy =                       -305.8761867045851659
  Basis Set: 6-31G*
  Basis Set:
  Charge       = 0
  Multiplicity = 1
  Basis Set: 6-31G*
  Basis Set:

    Orbital Energies (a.u.)
    -----------------------

    Doubly Occupied:

       1A    -20.613397     2A    -20.553008     3A    -11.382695
       4A    -11.241094     5A    -11.223655     6A    -11.215327
       7A     -1.475829     8A     -1.366783     9A     -1.079467
      10A     -0.979088    11A     -0.858318    12A     -0.789741
      13A     -0.701516    14A     -0.693166    15A     -0.658684
      16A     -0.612292    17A     -0.596561    18A     -0.566703
      19A     -0.556762    20A     -0.494221    21A     -0.490193
      22A     -0.483683    23A     -0.476299    24A     -0.446865

  @DF-RHF Final Energy:  -305.87618728777574

   => Energetics <=

    Nuclear Repulsion Energy =            240.9732606001458066
    One-Electron Energy =                -894.5882039330638236
    Two-Electron Energy =                 347.7387560451421677
    DFT Exchange-Correlation Energy =       0.0000000000000000
    Empirical Dispersion Energy =           0.0000000000000000
    PCM Polarization Energy =               0.0000000000000000
    EFP Energy =                            0.0000000000000000
    Total Energy =                       -305.8761872877759060
    Molecular point group: c1
  Basis Set: 6-31G*
  Basis Set:

  -Total Gradient:
     Atom            X                  Y                   Z
    ------   -----------------  -----------------  -----------------
       1        0.000021884703    -0.000009869194    -0.000000067379
       2       -0.000005495838    -0.000024293281     0.000000633872
       3       -0.000105707814     0.000098491665     0.000000551835
       4        0.000769242201     0.000945941827     0.000779387570
       5        0.000023435554    -0.000004281769    -0.000021745356
       6       -0.000836829761    -0.000923819199    -0.000755870010
       7       -0.000535779852    -0.000620914501    -0.000520955496
       8        0.000015823350    -0.000022549258    -0.000032051885
       9        0.000018962465    -0.000056569042    -0.000014130812
      10        0.000558219454     0.000606282836     0.000516662281
      11        0.000041515875    -0.000015588937     0.000037150588
      12        0.000003966474    -0.000009238251     0.000019512135
      13        0.000037345414     0.000023844232    -0.000010522052
      14       -0.000006582230     0.000012562870     0.000001444707

  **** Optimization is complete! (in 6 steps) ****
    Final optimized geometry and variables:
    Molecular point group: c1

    Geometry (in Angstrom), charge = 0, multiplicity = 1:

    H            2.371698329395    -0.974640158614     1.194509467900
    O            1.861249333140    -1.043839153644     0.393680664803
    C            0.873639262599    -0.151061874236     0.453843114922
    C            0.013540232683    -0.204665033848    -0.784773609115
    O            0.731115654433     0.567831136096     1.388572355399
    C           -1.145924630938     0.805639426849    -0.802197194943
    H            0.675954607374    -0.077949125932    -1.635044664110
    H           -0.348149694696    -1.226459678715    -0.860462586569
    C           -2.521768677775     0.139915554219    -0.797225275789
    H           -1.053556133693     1.441731822819    -1.676493279464
    H           -1.058150046171     1.455982655133     0.058485300559
    H           -2.655858986399    -0.501339993141    -1.663917622741
    H           -3.311642489482     0.883854373547    -0.810138095650
    H           -2.655907542865    -0.469569043962     0.091794752756

  Mulliken Charges: (a.u.)
   Center  Symbol    Alpha    Beta     Spin     Total
       1     H     0.26752  0.26752  0.00000  0.46497
       2     O     4.34940  4.34940  0.00000 -0.69880
       3     C     2.62987  2.62987  0.00000  0.74026
       4     C     3.21291  3.21291  0.00000 -0.42582
       5     O     4.27830  4.27830  0.00000 -0.55660
       6     C     3.16203  3.16203  0.00000 -0.32405
       7     H     0.39490  0.39490  0.00000  0.21020
       8     H     0.39580  0.39580  0.00000  0.20841
       9     C     3.24269  3.24269  0.00000 -0.48538
      10     H     0.41712  0.41712  0.00000  0.16576
      11     H     0.39322  0.39322  0.00000  0.21355
      12     H     0.42179  0.42179  0.00000  0.15642
      13     H     0.41627  0.41627  0.00000  0.16746
      14     H     0.41819  0.41819  0.00000  0.16362

   Total alpha = 24.00000, Total beta = 24.00000, Total charge = -0.00000
