  ==> Input File <==

--------------------------------------------------------------------------
set {
	reference rhf
	basis 6-31G*
}

set_num_threads( 4 )
memory 2 gb

molecule MOL {
0 1

H	 -0.890397	 2.169344	 -0.141580
C	 -0.450599	 1.462986	 0.554824
N	 -0.528168	 0.128977	 -0.000000
H	 -1.020983	 1.508512	 1.475490
H	 0.569207	 1.795563	 0.766136
C	 0.248044	 -0.037491	 -1.209632
H	 -0.235397	 -0.539524	 0.684411
H	 0.998722	 0.743888	 -1.266824
H	 -0.398417	 0.061950	 -2.074060
H	 0.763621	 -0.999315	 -1.275517

	symmetry c1
}
set optking {
	frozen_dihedral = ("
		2 3 6 8
	")
}

ee = optimize('scf')
oeprop('DIPOLE', 'QUADRUPOLE', 'MULLIKEN_CHARGES')
f=open( 'psi4out.xyz', 'w' )
f.write( "10  " )
f.write( str(ee) + "\n" )
f.write( MOL.save_string_xyz() )
f.close()
--------------------------------------------------------------------------

    Molecular point group: c1
  Charge       = 0
  Multiplicity = 1
  Basis Set: 6-31G*
  Basis Set:
  @DF-RHF Final Energy:  -134.23424615135349
    Total Energy =                       -134.2342461513536023
    Molecular point group: c1
  Basis Set: 6-31G*
  Basis Set:
  Basis Set: 6-31G*
  Basis Set:
  @DF-RHF Final Energy:  -134.23505086700067
    Total Energy =                       -134.2350508670006093
  Basis Set: 6-31G*
  Basis Set:
  Basis Set: 6-31G*
  Basis Set:
  @DF-RHF Final Energy:  -134.23520268894339
    Total Energy =                       -134.2352026889433319
  Basis Set: 6-31G*
  Basis Set:
  Charge       = 0
  Multiplicity = 1
  Basis Set: 6-31G*
  Basis Set:

    Orbital Energies (a.u.)
    -----------------------

    Doubly Occupied:

       1A    -15.536833     2A    -11.236130     3A    -11.235863
       4A     -1.196855     5A     -0.947820     6A     -0.854277
       7A     -0.660077     8A     -0.611565     9A     -0.589698
      10A     -0.543087    11A     -0.509174    12A     -0.505497
      13A     -0.359718

  @DF-RHF Final Energy:  -134.23520453361351

   => Energetics <=

    Nuclear Repulsion Energy =             84.4708711868887576
    One-Electron Energy =                -347.8389632876097721
    Two-Electron Energy =                 129.1328875671074741
    DFT Exchange-Correlation Energy =       0.0000000000000000
    Empirical Dispersion Energy =           0.0000000000000000
    PCM Polarization Energy =               0.0000000000000000
    EFP Energy =                            0.0000000000000000
    Total Energy =                       -134.2352045336135404
    Molecular point group: c1
  Basis Set: 6-31G*
  Basis Set:

  -Total Gradient:
     Atom            X                  Y                   Z
    ------   -----------------  -----------------  -----------------
       1       -0.000005238912    -0.000028048226    -0.000013697994
       2        0.002475751011    -0.000964668144     0.001650934231
       3       -0.004138778405     0.001989891496    -0.002915331400
       4       -0.000002268353    -0.000031583699    -0.000004253587
       5        0.000008639067    -0.000001365766     0.000005007857
       6        0.004266340224    -0.003351497013     0.003303606531
       7       -0.000052153887     0.000039642920     0.000002069964
       8       -0.002601915235     0.002374307145    -0.002023582962
       9        0.000023575183    -0.000023230109    -0.000011073249
      10        0.000026049307    -0.000003448603     0.000006320609

  **** Optimization is complete! (in 4 steps) ****
    Final optimized geometry and variables:
    Molecular point group: c1

    Geometry (in Angstrom), charge = 0, multiplicity = 1:

    H           -0.678956599430     1.649067488579     0.095848499360
    C           -0.236746726618     0.934686611295     0.782624566526
    N           -0.302163410152    -0.394000587125     0.212582055328
    H           -0.812184415943     0.963846026467     1.700890596532
    H            0.779940214016     1.270082903729     1.001727579244
    C            0.478380045495    -0.559616744839    -1.003619354521
    H           -0.002678376945    -1.056354725383     0.898177430739
    H            1.251114767745     0.200877191210    -1.114849642859
    H           -0.163351167210    -0.482740549361    -1.876795667406
    H            0.947393304541    -1.536288816106    -1.027341252459

  Mulliken Charges: (a.u.)
   Center  Symbol    Alpha    Beta     Spin     Total
       1     H     0.41779  0.41779  0.00000  0.16442
       2     C     3.14538  3.14538  0.00000 -0.29076
       3     N     3.84112  3.84112  0.00000 -0.68224
       4     H     0.41737  0.41737  0.00000  0.16526
       5     H     0.43416  0.43416  0.00000  0.13167
       6     C     3.14496  3.14496  0.00000 -0.28992
       7     H     0.33164  0.33164  0.00000  0.33671
       8     H     0.42935  0.42935  0.00000  0.14130
       9     H     0.41700  0.41700  0.00000  0.16600
      10     H     0.42123  0.42123  0.00000  0.15755

   Total alpha = 13.00000, Total beta = 13.00000, Total charge = -0.00000
