                              Psi4 1.0.54 Driver

  ==> Input File <==

--------------------------------------------------------------------------
set {
	reference rhf
	basis cc-pvtz
}

set_num_threads( 4 )
memory 2 gb

molecule MOL {
0 1

O	 -2.581479	 -0.946811	 0.838356
C	 -1.813516	 -1.372594	 0.038123
C	 -0.881910	 -0.448129	 -0.720509
C	 -1.710338	 -2.851137	 -0.251765
C	 0.376695	 -0.140025	 0.100361
H	 -1.420585	 0.469998	 -0.917951
H	 -0.603274	 -0.891516	 -1.670580
C	 1.630207	 -0.772146	 -0.501001
H	 0.486632	 0.935267	 0.162725
H	 0.248225	 -0.501310	 1.117842
C	 2.907848	 -0.545876	 0.309149
H	 1.772784	 -0.391628	 -1.509394
H	 1.468529	 -1.842059	 -0.599744
C	 3.373802	 0.906639	 0.372125
H	 3.699140	 -1.146831	 -0.127906
H	 2.764321	 -0.923458	 1.318191
H	 3.519798	 1.311927	 -0.623875
H	 4.316899	 0.983758	 0.900700
H	 2.661122	 1.540651	 0.885346
H	 -2.061693	 -3.042211	 -1.260743
H	 -2.309378	 -3.410569	 0.450201
H	 -0.678071	 -3.179464	 -0.204694

	symmetry c1
}
set optking {
	frozen_dihedral = ("
		6 3 5 8
	")
}

ee,wfn = optimize('scf', return_wfn=True)
oeprop( wfn, 'DIPOLE', 'QUADRUPOLE', 'MULLIKEN_CHARGES')
f=open( 'psi4out.xyz', 'w' )
f.write( "22  " )
f.write( str(ee) + "\n" )
f.write( MOL.save_string_xyz() )
f.close()
--------------------------------------------------------------------------

    Molecular point group: c1
  Charge       = 0
  Multiplicity = 1
  Basis Set: CC-PVTZ
  Basis Set:
  @DF-RHF Final Energy:  -348.21740672061844
    Total Energy =                       -348.2174067206192376
    Molecular point group: c1
  Basis Set: CC-PVTZ
  Basis Set:
  Basis Set: CC-PVTZ
  Basis Set:
  @DF-RHF Final Energy:  -348.21779521946013
    Total Energy =                       -348.2177952194606405
  Basis Set: CC-PVTZ
  Basis Set:
  Basis Set: CC-PVTZ
  Basis Set:
  @DF-RHF Final Energy:  -348.21720212157686
    Total Energy =                       -348.2172021215765767
  Basis Set: CC-PVTZ
  Basis Set:
  Basis Set: CC-PVTZ
  Basis Set:
  @DF-RHF Final Energy:  -348.21794802538602
    Total Energy =                       -348.2179480253860220
  Basis Set: CC-PVTZ
  Basis Set:
  @DF-RHF Final Energy:  -348.21807710919649
    Total Energy =                       -348.2180771091964289
  @DF-RHF Final Energy:  -348.21814788591564
    Total Energy =                       -348.2181478859158688
  @DF-RHF Final Energy:  -348.21816455415251
    Total Energy =                       -348.2181645541521675
  Basis Set: CC-PVTZ
  Basis Set:
  @DF-RHF Final Energy:  -348.21820024306783
    Total Energy =                       -348.2182002430675993
  Basis Set: CC-PVTZ
  Basis Set:
  Basis Set: CC-PVTZ
  Basis Set:
  @DF-RHF Final Energy:  -348.21820305551125
    Total Energy =                       -348.2182030555109122
  Basis Set: CC-PVTZ
  Basis Set:
  Basis Set: CC-PVTZ
  Basis Set:
  @DF-RHF Final Energy:  -348.21820768003937
    Total Energy =                       -348.2182076800393133
  Basis Set: CC-PVTZ
  Basis Set:
  Charge       = 0
  Multiplicity = 1
  Basis Set: CC-PVTZ
  Basis Set:

    Orbital Energies (a.u.)
    -----------------------

    Doubly Occupied:

       1A    -20.536755     2A    -11.318898     3A    -11.230548
       4A    -11.227594     5A    -11.226305     6A    -11.224286
       7A    -11.221988     8A    -11.212921     9A     -1.396538
      10A     -1.098817    11A     -1.046096    12A     -0.997732
      13A     -0.942979    14A     -0.863530    15A     -0.791150
      16A     -0.735156    17A     -0.661322    18A     -0.649105
      19A     -0.628356    20A     -0.622432    21A     -0.598120
      22A     -0.580589    23A     -0.567365    24A     -0.550630
      25A     -0.536651    26A     -0.516008    27A     -0.509610
      28A     -0.493182    29A     -0.473980    30A     -0.466415
      31A     -0.457827    32A     -0.399725

  @DF-RHF Final Energy:  -348.21820796542409

   => Energetics <=

    Nuclear Repulsion Energy =            376.3489722401733388
    One-Electron Energy =               -1217.5691411810935278
    Two-Electron Energy =                 493.0019609754962175
    DFT Exchange-Correlation Energy =       0.0000000000000000
    Empirical Dispersion Energy =           0.0000000000000000
    PCM Polarization Energy =               0.0000000000000000
    EFP Energy =                            0.0000000000000000
    Total Energy =                       -348.2182079654239715
    Molecular point group: c1
  Basis Set: CC-PVTZ
  Basis Set:

  -Total Gradient:
     Atom            X                  Y                   Z
    ------   -----------------  -----------------  -----------------
       1        0.000032560100     0.000021480805    -0.000023104380
       2       -0.000025871322     0.000000309349     0.000038145681
       3       -0.000389843423    -0.000018189851     0.000585645430
       4        0.000008404894    -0.000001039591    -0.000012341820
       5       -0.000020189895    -0.000574446491     0.000185168801
       6        0.000308392851     0.000135095523    -0.000556656668
       7       -0.000001089732    -0.000001276191    -0.000002708027
       8        0.000068927081     0.000431095532    -0.000216815976
       9       -0.000000641737    -0.000000529486    -0.000003691854
      10        0.000005164844    -0.000007040292     0.000012229185
      11       -0.000002285177    -0.000000180482     0.000007722936
      12       -0.000007195608     0.000001084472    -0.000006027327
      13        0.000006420945     0.000000799937     0.000004209458
      14       -0.000005975406     0.000002243464     0.000001099553
      15       -0.000004065934    -0.000009306019    -0.000005363302
      16       -0.000001614130     0.000002625007     0.000005282457
      17        0.000000038803     0.000002538153    -0.000003318970
      18       -0.000000156828    -0.000003830504    -0.000003805686
      19        0.000001677778     0.000002593588     0.000003721563
      20        0.000002352966    -0.000007290188    -0.000003677764
      21        0.000013771443     0.000029025670    -0.000008273505
      22        0.000011217484    -0.000005762404     0.000002560215

  **** Optimization is complete! (in 11 steps) ****
    Final optimized geometry and variables:
    Molecular point group: c1

    Geometry (in Angstrom), charge = 0, multiplicity = 1:

    O           -3.013623223830    -0.173837819827     0.557373388084
    C           -2.030968935192    -0.534478077960    -0.004575510625
    C           -1.085330416053     0.457672988807    -0.650349217628
    C           -1.677329422884    -2.001530104856    -0.099076416399
    C            0.245956493343     0.613551361593     0.125857047746
    H           -1.608352483925     1.400835222806    -0.704019165295
    H           -0.880242550991     0.137025466929    -1.666929513755
    C            1.456092800586     0.030804338965    -0.603946487953
    H            0.407371394726     1.667310225846     0.308243660375
    H            0.160657090875     0.155550074958     1.107119824637
    C            2.767924022997     0.101260746541     0.179035086343
    H            1.576276477779     0.546331495808    -1.553826757647
    H            1.257519356096    -1.008514491091    -0.849571888346
    C            3.283143775769     1.515394904864     0.436020136133
    H            3.523471169307    -0.449656118860    -0.372217618131
    H            2.647896343508    -0.416609994364     1.127008117657
    H            3.402178810821     2.061536590196    -0.494254791011
    H            4.248863016801     1.487373335717     0.927033413083
    H            2.613582315012     2.083553617191     1.070241109790
    H           -1.684132513967    -2.310742039831    -1.138920536512
    H           -2.394203790159    -2.585867253975     0.456762228754
    H           -0.680617541763    -2.184287497023     0.284346123265

  Mulliken Charges: (a.u.)
   Center  Symbol    Alpha    Beta     Spin     Total
       1     O     4.17412  4.17412  0.00000 -0.34824
       2     C     2.85412  2.85412  0.00000  0.29176
       3     C     3.10072  3.10072  0.00000 -0.20144
       4     C     3.16130  3.16130  0.00000 -0.32259
       5     C     3.12056  3.12056  0.00000 -0.24111
       6     H     0.43458  0.43458  0.00000  0.13084
       7     H     0.44993  0.44993  0.00000  0.10015
       8     C     3.09803  3.09803  0.00000 -0.19605
       9     H     0.43597  0.43597  0.00000  0.12806
      10     H     0.44564  0.44564  0.00000  0.10872
      11     C     3.09083  3.09083  0.00000 -0.18167
      12     H     0.44999  0.44999  0.00000  0.10002
      13     H     0.44728  0.44728  0.00000  0.10543
      14     C     3.15264  3.15264  0.00000 -0.30528
      15     H     0.44738  0.44738  0.00000  0.10525
      16     H     0.45352  0.45352  0.00000  0.09296
      17     H     0.45418  0.45418  0.00000  0.09164
      18     H     0.44513  0.44513  0.00000  0.10974
      19     H     0.45280  0.45280  0.00000  0.09441
      20     H     0.44844  0.44844  0.00000  0.10313
      21     H     0.43281  0.43281  0.00000  0.13438
      22     H     0.45005  0.45005  0.00000  0.09989

   Total alpha = 32.00000, Total beta = 32.00000, Total charge = -0.00000

*** Psi4 exiting successfully. Buy a developer a beer!
