  ==> Input File <==

--------------------------------------------------------------------------
set {
	reference rhf
	basis 6-31G*
}

set_num_threads( 4 )
memory 2 gb

molecule MOL {
0 1

O	 0.074228	 1.262779	 -0.000085
C	 0.028650	 0.075053	 -0.000277
C	 -1.233602	 -0.752807	 0.000328
O	 1.109162	 -0.694619	 -0.000298
C	 -2.501530	 0.091881	 0.000126
H	 -1.193807	 -1.406641	 -0.865785
H	 -1.193516	 -1.405779	 0.867015
H	 -2.545121	 0.729328	 -0.874513
H	 -3.377167	 -0.548497	 0.000561
H	 -2.544818	 0.730135	 0.874258
C	 1.632884	 -1.067020	 1.261693
H	 1.922551	 -0.192188	 1.825762
H	 2.495553	 -1.680535	 1.053691
H	 0.901682	 -1.627680	 1.826030

	symmetry c1
}
set optking {
	frozen_dihedral = ("
		11 4 2 3
	")
}

ee = optimize('scf')
oeprop('DIPOLE', 'QUADRUPOLE', 'MULLIKEN_CHARGES')
f=open( 'psi4out.xyz', 'w' )
f.write( "14  " )
f.write( str(ee) + "\n" )
f.write( MOL.save_string_xyz() )
f.close()
--------------------------------------------------------------------------

    Molecular point group: c1
  Charge       = 0
  Multiplicity = 1
  Basis Set: 6-31G*
  Basis Set:
  @DF-RHF Final Energy:  -305.85047626788025
    Total Energy =                       -305.8504762678802535
    Molecular point group: c1
  Basis Set: 6-31G*
  Basis Set:
  Basis Set: 6-31G*
  Basis Set:
  @DF-RHF Final Energy:  -305.85157802853195
    Total Energy =                       -305.8515780285318897
  Basis Set: 6-31G*
  Basis Set:
  Basis Set: 6-31G*
  Basis Set:
  @DF-RHF Final Energy:  -305.85147024116998
    Total Energy =                       -305.8514702411698636
  Basis Set: 6-31G*
  Basis Set:
  Basis Set: 6-31G*
  Basis Set:
  @DF-RHF Final Energy:  -305.85176544000780
    Total Energy =                       -305.8517654400075685
  Basis Set: 6-31G*
  Basis Set:
  Basis Set: 6-31G*
  Basis Set:
  @DF-RHF Final Energy:  -305.85178080152593
    Total Energy =                       -305.8517808015262176
  Basis Set: 6-31G*
  Basis Set:
  Charge       = 0
  Multiplicity = 1
  Basis Set: 6-31G*
  Basis Set:

    Orbital Energies (a.u.)
    -----------------------

    Doubly Occupied:

       1A    -20.586089     2A    -20.558587     3A    -11.376092
       4A    -11.292873     5A    -11.243566     6A    -11.219944
       7A     -1.459864     8A     -1.368492     9A     -1.063018
      10A     -0.976792    11A     -0.892586    12A     -0.766570
      13A     -0.700684    14A     -0.678083    15A     -0.672096
      16A     -0.624223    17A     -0.615284    18A     -0.556946
      19A     -0.545391    20A     -0.525238    21A     -0.510745
      22A     -0.490568    23A     -0.456826    24A     -0.437515

  @DF-RHF Final Energy:  -305.85178126692159

   => Energetics <=

    Nuclear Repulsion Energy =            246.6540420261631539
    One-Electron Energy =                -905.7755034918827732
    Two-Electron Energy =                 353.2696801987980280
    DFT Exchange-Correlation Energy =       0.0000000000000000
    Empirical Dispersion Energy =           0.0000000000000000
    PCM Polarization Energy =               0.0000000000000000
    EFP Energy =                            0.0000000000000000
    Total Energy =                       -305.8517812669216482
    Molecular point group: c1
  Basis Set: 6-31G*
  Basis Set:

  -Total Gradient:
     Atom            X                  Y                   Z
    ------   -----------------  -----------------  -----------------
       1       -0.000031284708     0.000010942587     0.000000781855
       2       -0.000592265562    -0.001079926333    -0.003335094501
       3        0.000014761443     0.000033148155     0.002278050580
       4        0.002063422300     0.003147968115     0.001031340855
       5       -0.000023863777    -0.000000743317     0.000009692358
       6        0.000006907657     0.000003791893     0.000010894915
       7        0.000011483733     0.000007571102     0.000009971233
       8       -0.000000129771     0.000000068501    -0.000002767922
       9       -0.000008078592     0.000005559133    -0.000002689605
      10        0.000000244102    -0.000000218974    -0.000000529036
      11       -0.001461318694    -0.002127721764    -0.000011527391
      12       -0.000002236620    -0.000000513890    -0.000013838522
      13        0.000006389461     0.000002004542     0.000005562914
      14        0.000015969031    -0.000001929748     0.000020152267

  **** Optimization is complete! (in 6 steps) ****
    Final optimized geometry and variables:
    Molecular point group: c1

    Geometry (in Angstrom), charge = 0, multiplicity = 1:

    O            0.202036164599     1.424831884449    -0.242733781441
    C            0.147575184534     0.245025765083    -0.221957630905
    C           -1.130448071196    -0.559504905040    -0.224715902954
    O            1.267015617116    -0.516603834321    -0.217590819422
    C           -2.389130848723     0.298787226308    -0.227966512082
    H           -1.093790184676    -1.212268251604    -1.092538301674
    H           -1.110039065858    -1.220431159956     0.637784205496
    H           -2.417950147656     0.940845554611    -1.099686485031
    H           -3.272694168526    -0.330391770102    -0.236835248175
    H           -2.430915960246     0.933626119091     0.649001910552
    C            1.792052067453    -0.874710727227     1.042377638975
    H            2.041509450301     0.008909985967     1.617060085692
    H            2.687772631487    -1.444526204011     0.850857404069
    H            1.093403443338    -1.488130809967     1.601453373287

  Mulliken Charges: (a.u.)
   Center  Symbol    Alpha    Beta     Spin     Total
       1     O     4.25056  4.25056  0.00000 -0.50113
       2     C     2.61682  2.61682  0.00000  0.76635
       3     C     3.21059  3.21059  0.00000 -0.42117
       4     O     4.31491  4.31491  0.00000 -0.62981
       5     C     3.23907  3.23907  0.00000 -0.47814
       6     H     0.39773  0.39773  0.00000  0.20454
       7     H     0.40710  0.40710  0.00000  0.18580
       8     H     0.40772  0.40772  0.00000  0.18455
       9     H     0.41761  0.41761  0.00000  0.16478
      10     H     0.41087  0.41087  0.00000  0.17826
      11     C     3.09267  3.09267  0.00000 -0.18534
      12     H     0.40950  0.40950  0.00000  0.18100
      13     H     0.40204  0.40204  0.00000  0.19592
      14     H     0.42281  0.42281  0.00000  0.15438

   Total alpha = 24.00000, Total beta = 24.00000, Total charge =  0.00000
