  ==> Input File <==

--------------------------------------------------------------------------
set {
	reference rhf
	basis cc-pvtz
}

set_num_threads( 4 )
memory 2 gb

molecule MOL {
0 1

H	 0.825702	 1.405809	 -0.689976
O	 0.057669	 1.301365	 -0.158528
C	 0.004145	 -0.005141	 0.363049
C	 1.199168	 -0.827145	 -0.096690
C	 -1.316386	 -0.602081	 -0.083515
H	 0.012026	 0.043363	 1.450619
H	 1.216685	 -0.896776	 -1.178167
H	 2.129940	 -0.372354	 0.228035
H	 1.160783	 -1.829622	 0.314294
H	 -1.357882	 -0.655920	 -1.165207
H	 -2.140147	 0.011735	 0.257253
H	 -1.440790	 -1.601175	 0.317669

	symmetry c1
}
set optking {
	frozen_dihedral = ("
		1 2 3 4
	")
}

ee = optimize('scf')
oeprop('DIPOLE', 'QUADRUPOLE', 'MULLIKEN_CHARGES')
f=open( 'psi4out.xyz', 'w' )
f.write( "12  " )
f.write( str(ee) + "\n" )
f.write( MOL.save_string_xyz() )
f.close()
--------------------------------------------------------------------------

    Molecular point group: c1
  Charge       = 0
  Multiplicity = 1
  Basis Set: CC-PVTZ
  Basis Set:
  @DF-RHF Final Energy:  -193.19339994842227
    Total Energy =                       -193.1933999484222682
    Molecular point group: c1
  Basis Set: CC-PVTZ
  Basis Set:
  Basis Set: CC-PVTZ
  Basis Set:
  @DF-RHF Final Energy:  -193.19374434550730
    Total Energy =                       -193.1937443455073264
  Basis Set: CC-PVTZ
  Basis Set:
  Basis Set: CC-PVTZ
  Basis Set:
  @DF-RHF Final Energy:  -193.19390321362960
    Total Energy =                       -193.1939032136297101
  Basis Set: CC-PVTZ
  Basis Set:
  Charge       = 0
  Multiplicity = 1
  Basis Set: CC-PVTZ
  Basis Set:

    Orbital Energies (a.u.)
    -----------------------

    Doubly Occupied:

       1A    -20.542078     2A    -11.274052     3A    -11.218034
       4A    -11.204907     5A     -1.362713     6A     -1.044237
       7A     -0.943850     8A     -0.813549     9A     -0.673061
      10A     -0.649073    11A     -0.608529    12A     -0.554656
      13A     -0.545658    14A     -0.519302    15A     -0.515696
      16A     -0.468462    17A     -0.430945

  @DF-RHF Final Energy:  -193.19390393884368

   => Energetics <=

    Nuclear Repulsion Energy =            135.6611053242888261
    One-Electron Energy =                -530.9724144963271328
    Two-Electron Energy =                 202.1174052331947166
    DFT Exchange-Correlation Energy =       0.0000000000000000
    Empirical Dispersion Energy =           0.0000000000000000
    PCM Polarization Energy =               0.0000000000000000
    EFP Energy =                            0.0000000000000000
    Total Energy =                       -193.1939039388435901
    Molecular point group: c1
  Basis Set: CC-PVTZ
  Basis Set:

  -Total Gradient:
     Atom            X                  Y                   Z
    ------   -----------------  -----------------  -----------------
       1       -0.000206373222    -0.000102746257    -0.000345526643
       2        0.000334163274     0.000180822690     0.000485793479
       3       -0.000248206669    -0.000117709781    -0.000396146587
       4        0.000131188538     0.000085518460     0.000226145235
       5       -0.000051798867    -0.000032115935     0.000006026930
       6        0.000034310028    -0.000040449968    -0.000018172163
       7       -0.000013883302     0.000015943689     0.000035763522
       8        0.000035026602     0.000000024028     0.000000189221
       9       -0.000013262502     0.000006044126     0.000005872977
      10        0.000004854663     0.000005654566     0.000004545420
      11       -0.000004453041    -0.000002012520     0.000000432264
      12       -0.000001565501     0.000001026904    -0.000004923655

  **** Optimization is complete! (in 4 steps) ****
    Final optimized geometry and variables:
    Molecular point group: c1

    Geometry (in Angstrom), charge = 0, multiplicity = 1:

    H            0.843979392304     1.447636107432    -0.639605141660
    O            0.069687566363     1.321346347256    -0.125000531757
    C            0.000525692916    -0.001494465508     0.360439863489
    C            1.196062147637    -0.823401163189    -0.093366292454
    C           -1.322324192937    -0.611039201935    -0.070690029894
    H            0.017310922973     0.054661170490     1.445083762306
    H            1.219624187822    -0.901855252291    -1.176261774351
    H            2.123826099984    -0.369815245386     0.239389048121
    H            1.151168142171    -1.825977343554     0.313914121399
    H           -1.364460336004    -0.706310964646    -1.150165026483
    H           -2.142533422178     0.021487258558     0.243946002990
    H           -1.457786029128    -1.593121109699     0.369242976643

  Mulliken Charges: (a.u.)
   Center  Symbol    Alpha    Beta     Spin     Total
       1     H     0.39167  0.39167  0.00000  0.21666
       2     O     4.21099  4.21099  0.00000 -0.42199
       3     C     2.91989  2.91989  0.00000  0.16022
       4     C     3.16000  3.16000  0.00000 -0.32000
       5     C     3.13674  3.13674  0.00000 -0.27348
       6     H     0.46178  0.46178  0.00000  0.07644
       7     H     0.45388  0.45388  0.00000  0.09224
       8     H     0.44862  0.44862  0.00000  0.10276
       9     H     0.45099  0.45099  0.00000  0.09802
      10     H     0.45877  0.45877  0.00000  0.08245
      11     H     0.44656  0.44656  0.00000  0.10688
      12     H     0.46010  0.46010  0.00000  0.07980

   Total alpha = 17.00000, Total beta = 17.00000, Total charge = -0.00000
