  ==> Input File <==

--------------------------------------------------------------------------
set {
	reference rhf
	basis 6-31G*
}

set_num_threads( 4 )
memory 2 gb

molecule MOL {
0 1

H	 3.647955	 0.596884	 1.492904
N	 2.825761	 0.025013	 1.515389
C	 1.724687	 0.676843	 0.820925
H	 2.597455	 -0.115697	 2.481260
C	 0.504594	 -0.236819	 0.772474
H	 2.053610	 0.889726	 -0.191670
H	 1.443099	 1.634280	 1.266370
C	 -0.679275	 0.379305	 0.025956
H	 0.795972	 -1.173651	 0.306341
H	 0.201545	 -0.480042	 1.790482
C	 -1.903357	 -0.536963	 -0.023547
H	 -0.376191	 0.625345	 -0.990633
H	 -0.956914	 1.321098	 0.496903
C	 -3.225172	 0.228290	 0.028445
H	 -1.867824	 -1.134999	 -0.931459
H	 -1.860449	 -1.239604	 0.805977
H	 -3.313397	 0.915643	 -0.808262
H	 -4.073500	 -0.448134	 -0.008893
H	 -3.306061	 0.809945	 0.942516

	symmetry c1
}
set optking {
	frozen_dihedral = ("
		12 8 11 15
	")
}

ee = optimize('scf')
oeprop('DIPOLE', 'QUADRUPOLE', 'MULLIKEN_CHARGES')
f=open( 'psi4out.xyz', 'w' )
f.write( "19  " )
f.write( str(ee) + "\n" )
f.write( MOL.save_string_xyz() )
f.close()
--------------------------------------------------------------------------

    Molecular point group: c1
  Charge       = 0
  Multiplicity = 1
  Basis Set: 6-31G*
  Basis Set:
  @DF-RHF Final Energy:  -251.34817016174173
    Total Energy =                       -251.3481701617417912
    Molecular point group: c1
  Basis Set: 6-31G*
  Basis Set:
  Basis Set: 6-31G*
  Basis Set:
  @DF-RHF Final Energy:  -251.34843845573309
    Total Energy =                       -251.3484384557330600
  Basis Set: 6-31G*
  Basis Set:
  Basis Set: 6-31G*
  Basis Set:
  @DF-RHF Final Energy:  -251.34851880058986
    Total Energy =                       -251.3485188005897726
  Basis Set: 6-31G*
  Basis Set:
  Basis Set: 6-31G*
  Basis Set:
  @DF-RHF Final Energy:  -251.34851770719894
    Total Energy =                       -251.3485177071988232
  Basis Set: 6-31G*
  Basis Set:
  Basis Set: 6-31G*
  Basis Set:
  @DF-RHF Final Energy:  -251.34852154447296
    Total Energy =                       -251.3485215444731580
  Basis Set: 6-31G*
  Basis Set:
  Charge       = 0
  Multiplicity = 1
  Basis Set: 6-31G*
  Basis Set:

    Orbital Energies (a.u.)
    -----------------------

    Doubly Occupied:

       1A    -15.532416     2A    -11.239506     3A    -11.213868
       4A    -11.212686     5A    -11.209411     6A    -11.207456
       7A     -1.176475     8A     -1.071421     9A     -0.998095
      10A     -0.899448    11A     -0.813460    12A     -0.788809
      13A     -0.663005    14A     -0.642568    15A     -0.615280
      16A     -0.590160    17A     -0.563540    18A     -0.554328
      19A     -0.523811    20A     -0.499604    21A     -0.482810
      22A     -0.464653    23A     -0.458404    24A     -0.447925
      25A     -0.380844

  @DF-RHF Final Energy:  -251.34852154128498

   => Energetics <=

    Nuclear Repulsion Energy =            245.6982215030913039
    One-Electron Energy =                -825.5935225027413935
    Two-Electron Energy =                 328.5467794583649379
    DFT Exchange-Correlation Energy =       0.0000000000000000
    Empirical Dispersion Energy =           0.0000000000000000
    PCM Polarization Energy =               0.0000000000000000
    EFP Energy =                            0.0000000000000000
    Total Energy =                       -251.3485215412851517
    Molecular point group: c1
  Basis Set: 6-31G*
  Basis Set:

  -Total Gradient:
     Atom            X                  Y                   Z
    ------   -----------------  -----------------  -----------------
       1       -0.000002170666    -0.000000263140    -0.000000545593
       2       -0.000000672251    -0.000000523251     0.000000895517
       3        0.000008294370    -0.000002106098    -0.000008944036
       4        0.000000447118     0.000000168946     0.000000160804
       5        0.000003771468     0.000005515442     0.000002590699
       6        0.000001506343     0.000003793299    -0.000001820728
       7       -0.000002115670    -0.000004707107     0.000000787737
       8       -0.003789091783     0.004922977917    -0.000404367915
       9       -0.000002136101    -0.000001071736     0.000000020706
      10       -0.000004073555     0.000009290373    -0.000001835172
      11        0.003373633341    -0.004564816626     0.002575064718
      12        0.002653917893    -0.003420024086    -0.000039642051
      13       -0.000003747075    -0.000000508602    -0.000000044556
      14       -0.000002170737    -0.000002843503     0.000003476868
      15       -0.002239203618     0.003055359623    -0.002113923246
      16       -0.000001629820     0.000000896751    -0.000011082393
      17        0.000000499410    -0.000006218030    -0.000007663305
      18       -0.000004652400     0.000000512846     0.000011331028
      19        0.000009593740     0.000004566983    -0.000004459082

  **** Optimization is complete! (in 6 steps) ****
    Final optimized geometry and variables:
    Molecular point group: c1

    Geometry (in Angstrom), charge = 0, multiplicity = 1:

    H            3.768747423447     0.475172868754     0.897494763638
    N            2.940238941015    -0.086186114094     0.942135190068
    C            1.833602734087     0.572241879200     0.262769316531
    H            2.729496452265    -0.214223984970     1.913749352676
    C            0.601110949605    -0.325232830812     0.249284971247
    H            2.144682631058     0.770162373508    -0.758536220409
    H            1.573390427156     1.538188755758     0.703135969266
    C           -0.595724480882     0.303377831979    -0.469875346055
    H            0.867328381833    -1.268117750269    -0.220311760567
    H            0.320146321000    -0.560897684951     1.275336295376
    C           -1.810591999470    -0.637628425014    -0.545449897218
    H           -0.281322110427     0.562911537047    -1.478402982990
    H           -0.870818089608     1.229782760097     0.029066162196
    C           -3.144135597869     0.112823767517    -0.555595743622
    H           -1.751782013470    -1.226926596474    -1.456572248221
    H           -1.797970170509    -1.333859941710     0.288616200657
    H           -3.192181344770     0.813132872616    -1.385113888822
    H           -3.981605235150    -0.571515993280    -0.652314836705
    H           -3.282259105008     0.679087696317     0.361241248222

  Mulliken Charges: (a.u.)
   Center  Symbol    Alpha    Beta     Spin     Total
       1     H     0.33253  0.33253  0.00000  0.33494
       2     N     3.92181  3.92181  0.00000 -0.84362
       3     C     3.06050  3.06050  0.00000 -0.12099
       4     H     0.33538  0.33538  0.00000  0.32925
       5     C     3.15303  3.15303  0.00000 -0.30606
       6     H     0.42101  0.42101  0.00000  0.15797
       7     H     0.43490  0.43490  0.00000  0.13020
       8     C     3.15670  3.15670  0.00000 -0.31340
       9     H     0.41310  0.41310  0.00000  0.17380
      10     H     0.42779  0.42779  0.00000  0.14442
      11     C     3.15223  3.15223  0.00000 -0.30446
      12     H     0.42194  0.42194  0.00000  0.15611
      13     H     0.42297  0.42297  0.00000  0.15406
      14     C     3.23990  3.23990  0.00000 -0.47980
      15     H     0.42054  0.42054  0.00000  0.15893
      16     H     0.42080  0.42080  0.00000  0.15840
      17     H     0.42198  0.42198  0.00000  0.15605
      18     H     0.42033  0.42033  0.00000  0.15934
      19     H     0.42256  0.42256  0.00000  0.15487

   Total alpha = 25.00000, Total beta = 25.00000, Total charge = -0.00000
