                              Psi4 1.0.54 Driver

  ==> Input File <==

--------------------------------------------------------------------------
set {
	reference rhf
	basis cc-pvtz
}

set_num_threads( 4 )
memory 2 gb

molecule MOL {
0 1

H	 -4.251845	 0.287719	 0.392991
O	 -3.528020	 -0.170702	 0.008124
C	 -2.316449	 0.365561	 0.469572
C	 -1.175688	 -0.398187	 -0.171891
H	 -2.245555	 1.420866	 0.214467
H	 -2.252797	 0.285601	 1.552801
C	 0.196029	 0.106276	 0.266738
H	 -1.273656	 -0.320746	 -1.250142
H	 -1.283488	 -1.449328	 0.075899
C	 1.330220	 -0.826136	 -0.155230
H	 0.359542	 1.097229	 -0.145561
H	 0.212134	 0.218135	 1.348778
C	 2.719700	 -0.407669	 0.328325
H	 1.339388	 -0.911200	 -1.239363
H	 1.119001	 -1.821953	 0.224128
C	 3.241564	 0.893452	 -0.276737
H	 3.418299	 -1.204729	 0.093035
H	 2.711776	 -0.323368	 1.411960
H	 3.254204	 0.841071	 -1.360784
H	 2.634460	 1.745075	 0.005842
H	 4.254264	 1.092401	 0.054971

	symmetry c1
}
set optking {
	frozen_dihedral = ("
		8 4 7 10
	")
}

ee,wfn = optimize('scf', return_wfn=True)
oeprop( wfn, 'DIPOLE', 'QUADRUPOLE', 'MULLIKEN_CHARGES')
f=open( 'psi4out.xyz', 'w' )
f.write( "21  " )
f.write( str(ee) + "\n" )
f.write( MOL.save_string_xyz() )
f.close()
--------------------------------------------------------------------------

    Molecular point group: c1
  Charge       = 0
  Multiplicity = 1
  Basis Set: CC-PVTZ
  Basis Set:
  @DF-RHF Final Energy:  -310.33261896076067
    Total Energy =                       -310.3326189607605556
    Molecular point group: c1
  Basis Set: CC-PVTZ
  Basis Set:
  Basis Set: CC-PVTZ
  Basis Set:
  @DF-RHF Final Energy:  -310.33266270423741
    Total Energy =                       -310.3326627042372365
  Basis Set: CC-PVTZ
  Basis Set:
  Basis Set: CC-PVTZ
  Basis Set:
  @DF-RHF Final Energy:  -310.33268101769147
    Total Energy =                       -310.3326810176913000
  Basis Set: CC-PVTZ
  Basis Set:
  Basis Set: CC-PVTZ
  Basis Set:
  @DF-RHF Final Energy:  -310.33268382210429
    Total Energy =                       -310.3326838221043431
  Basis Set: CC-PVTZ
  Basis Set:
  Charge       = 0
  Multiplicity = 1
  Basis Set: CC-PVTZ
  Basis Set:

    Orbital Energies (a.u.)
    -----------------------

    Doubly Occupied:

       1A    -20.545346     2A    -11.264908     3A    -11.213192
       4A    -11.213083     5A    -11.211317     6A    -11.208950
       7A    -11.206038     8A     -1.363177     9A     -1.087322
      10A     -1.034446    11A     -0.955535    12A     -0.876287
      13A     -0.807414    14A     -0.779473    15A     -0.696233
      16A     -0.663200    17A     -0.621830    18A     -0.609251
      19A     -0.589960    20A     -0.567580    21A     -0.541261
      22A     -0.519816    23A     -0.510157    24A     -0.490524
      25A     -0.478445    26A     -0.459850    27A     -0.456593
      28A     -0.444382    29A     -0.437318

  @DF-RHF Final Energy:  -310.33268825610122

   => Energetics <=

    Nuclear Repulsion Energy =            312.8458287984096273
    One-Electron Energy =               -1040.6512544326285479
    Two-Electron Energy =                 417.4727373781179836
    DFT Exchange-Correlation Energy =       0.0000000000000000
    Empirical Dispersion Energy =           0.0000000000000000
    PCM Polarization Energy =               0.0000000000000000
    EFP Energy =                            0.0000000000000000
    Total Energy =                       -310.3326882561008802
    Molecular point group: c1
  Basis Set: CC-PVTZ
  Basis Set:

  -Total Gradient:
     Atom            X                  Y                   Z
    ------   -----------------  -----------------  -----------------
       1       -0.000011088317     0.000001357910    -0.000008124748
       2       -0.000057231574    -0.000032068006    -0.000005983362
       3        0.000047283214     0.000040317200     0.000023032656
       4        0.000833697584    -0.002359540538     0.000137764286
       5        0.000012047989    -0.000045228275     0.000017032483
       6        0.000004268346     0.000008179346    -0.000034077683
       7       -0.000005044509     0.001374917396    -0.001510158691
       8       -0.000712850886     0.001709970603     0.000242462290
       9        0.000011809027     0.000027775831     0.000002120507
      10       -0.000114129534    -0.000707693216     0.001143867906
      11       -0.000018113896    -0.000030958579     0.000002641579
      12        0.000002743029     0.000008079784    -0.000007270836
      13       -0.000002591057     0.000009542875    -0.000008556197
      14        0.000003512445    -0.000005023279     0.000002440619
      15       -0.000004969983     0.000009600903    -0.000001414948
      16        0.000010454381    -0.000009047822    -0.000000659218
      17        0.000010290569     0.000004888570    -0.000001844347
      18       -0.000002714044     0.000001261748    -0.000003523000
      19       -0.000003321621    -0.000003752472     0.000009128579
      20       -0.000001949848    -0.000000763720     0.000004591500
      21       -0.000002101315    -0.000001816259    -0.000003469374

  **** Optimization is complete! (in 5 steps) ****
    Final optimized geometry and variables:
    Molecular point group: c1

    Geometry (in Angstrom), charge = 0, multiplicity = 1:

    H           -4.246693220868     0.350384582980     0.297404398113
    O           -3.522089918783    -0.103747460117    -0.090983578441
    C           -2.312230091795     0.391616727047     0.418268973402
    C           -1.169844547886    -0.368285621017    -0.226448216280
    H           -2.216440237457     1.454580562914     0.206206540592
    H           -2.275362185973     0.268817433814     1.498528783325
    C            0.198933958239     0.134009520155     0.226793816134
    H           -1.266657478033    -0.264282259850    -1.302315922307
    H           -1.282701003962    -1.422113885807     0.005024540461
    C            1.341638060619    -0.778329726257    -0.215524831424
    H            0.351820347286     1.139698495110    -0.150580231521
    H            0.215648552843     0.208760052952     1.312388042877
    C            2.731076598435    -0.339147293958     0.249375527269
    H            1.337502519220    -0.861823874020    -1.300059322722
    H            1.150121066203    -1.777387312589     0.164946196641
    C            3.230560434054     0.963237898378    -0.371466609565
    H            3.436910869188    -1.129239732733     0.012276449197
    H            2.734118024319    -0.246673932099     1.332405138852
    H            3.232889529407     0.901762285087    -1.455036031670
    H            2.615912407026     1.809711042675    -0.089886727921
    H            4.244002014429     1.177424940361    -0.051763601619

  Mulliken Charges: (a.u.)
   Center  Symbol    Alpha    Beta     Spin     Total
       1     H     0.39753  0.39753  0.00000  0.20493
       2     O     4.19450  4.19450  0.00000 -0.38901
       3     C     2.96298  2.96298  0.00000  0.07403
       4     C     3.08392  3.08392  0.00000 -0.16783
       5     H     0.47540  0.47540  0.00000  0.04919
       6     H     0.47453  0.47453  0.00000  0.05095
       7     C     3.10369  3.10369  0.00000 -0.20737
       8     H     0.45025  0.45025  0.00000  0.09951
       9     H     0.45126  0.45126  0.00000  0.09748
      10     C     3.09421  3.09421  0.00000 -0.18842
      11     H     0.45167  0.45167  0.00000  0.09665
      12     H     0.45717  0.45717  0.00000  0.08567
      13     C     3.08997  3.08997  0.00000 -0.17994
      14     H     0.45314  0.45314  0.00000  0.09371
      15     H     0.44864  0.44864  0.00000  0.10273
      16     C     3.15200  3.15200  0.00000 -0.30400
      17     H     0.44840  0.44840  0.00000  0.10321
      18     H     0.45519  0.45519  0.00000  0.08961
      19     H     0.45458  0.45458  0.00000  0.09083
      20     H     0.45436  0.45436  0.00000  0.09128
      21     H     0.44661  0.44661  0.00000  0.10678

   Total alpha = 29.00000, Total beta = 29.00000, Total charge = -0.00000

*** Psi4 exiting successfully. Buy a developer a beer!
