  ==> Input File <==

--------------------------------------------------------------------------
set {
	reference rhf
	basis cc-pvtz
}

set_num_threads( 4 )
memory 2 gb

molecule MOL {
0 1

H	 3.721907	 -0.933076	 -0.066039
O	 2.824271	 -1.154299	 0.131461
C	 2.076458	 -0.067370	 -0.038225
C	 0.626018	 -0.337582	 0.258241
O	 2.538288	 0.965419	 -0.381593
C	 -0.267326	 0.883135	 0.076490
H	 0.325620	 -1.161483	 -0.378003
H	 0.574537	 -0.713685	 1.275261
C	 -1.726822	 0.642622	 0.463839
H	 -0.210803	 1.217591	 -0.953497
H	 0.129920	 1.693110	 0.675679
C	 -2.480891	 -0.340606	 -0.429852
H	 -2.243098	 1.597649	 0.438609
H	 -1.776542	 0.301208	 1.495542
C	 -3.925668	 0.079631	 -0.679845
H	 -1.961831	 -0.428199	 -1.380608
H	 -2.475072	 -1.330972	 0.014105
H	 -4.436895	 -0.632405	 -1.317287
H	 -3.972745	 1.049871	 -1.162667
H	 -4.479647	 0.147613	 0.250553

	symmetry c1
}
set optking {
	frozen_dihedral = ("
		16 12 9 6
	")
}

ee = optimize('scf')
oeprop('DIPOLE', 'QUADRUPOLE', 'MULLIKEN_CHARGES')
f=open( 'psi4out.xyz', 'w' )
f.write( "20  " )
f.write( str(ee) + "\n" )
f.write( MOL.save_string_xyz() )
f.close()
--------------------------------------------------------------------------

    Molecular point group: c1
  Charge       = 0
  Multiplicity = 1
  Basis Set: CC-PVTZ
  Basis Set:
  @DF-RHF Final Energy:  -384.09158516836487
    Total Energy =                       -384.0915851683649862
    Molecular point group: c1
  Basis Set: CC-PVTZ
  Basis Set:
  Basis Set: CC-PVTZ
  Basis Set:
  @DF-RHF Final Energy:  -384.09186839712584
    Total Energy =                       -384.0918683971254950
  Basis Set: CC-PVTZ
  Basis Set:
  Basis Set: CC-PVTZ
  Basis Set:
  @DF-RHF Final Energy:  -384.09189201381298
    Total Energy =                       -384.0918920138134354
  Basis Set: CC-PVTZ
  Basis Set:
  Basis Set: CC-PVTZ
  Basis Set:
  @DF-RHF Final Energy:  -384.09193299135978
    Total Energy =                       -384.0919329913597835
  Basis Set: CC-PVTZ
  Basis Set:
  Basis Set: CC-PVTZ
  Basis Set:
  @DF-RHF Final Energy:  -384.09178737424418
    Total Energy =                       -384.0917873742442907
  Basis Set: CC-PVTZ
  Basis Set:
  Basis Set: CC-PVTZ
  Basis Set:
  @DF-RHF Final Energy:  -384.09194501015378
    Total Energy =                       -384.0919450101538359
  Basis Set: CC-PVTZ
  Basis Set:
  Charge       = 0
  Multiplicity = 1
  Basis Set: CC-PVTZ
  Basis Set:

    Orbital Energies (a.u.)
    -----------------------

    Doubly Occupied:

       1A    -20.603788     2A    -20.540401     3A    -11.373284
       4A    -11.238467     5A    -11.221206     6A    -11.218816
       7A    -11.218015     8A    -11.210982     9A     -1.477348
      10A     -1.368859    11A     -1.097028    12A     -1.041060
      13A     -0.962541    14A     -0.870526    15A     -0.819001
      16A     -0.777155    17A     -0.703584    18A     -0.692145
      19A     -0.668189    20A     -0.634888    21A     -0.601752
      22A     -0.598612    23A     -0.575105    24A     -0.564741
      25A     -0.534008    26A     -0.515022    27A     -0.499033
      28A     -0.484311    29A     -0.471463    30A     -0.464325
      31A     -0.458183    32A     -0.445936

  @DF-RHF Final Energy:  -384.09194522073318

   => Energetics <=

    Nuclear Repulsion Energy =            376.8404686298760566
    One-Electron Energy =               -1269.9652815938620734
    Two-Electron Energy =                 509.0328677432529503
    DFT Exchange-Correlation Energy =       0.0000000000000000
    Empirical Dispersion Energy =           0.0000000000000000
    PCM Polarization Energy =               0.0000000000000000
    EFP Energy =                            0.0000000000000000
    Total Energy =                       -384.0919452207330096
    Molecular point group: c1
  Basis Set: CC-PVTZ
  Basis Set:

  -Total Gradient:
     Atom            X                  Y                   Z
    ------   -----------------  -----------------  -----------------
       1        0.000004802660    -0.000002803384     0.000001595195
       2        0.000009171821     0.000001440022    -0.000001477265
       3       -0.000012891221     0.000002453025    -0.000028561459
       4       -0.000008001101    -0.000000640095    -0.000014163723
       5        0.000007259467    -0.000004264274     0.000017758867
       6       -0.000832072242     0.002296434305    -0.001781580142
       7        0.000000597293     0.000001256423     0.000011374844
       8        0.000000970817     0.000004087078     0.000011049953
       9        0.001706132763    -0.004003315497     0.002913500788
      10       -0.000000801278     0.000001532688    -0.000007734634
      11       -0.000004843687    -0.000006977424    -0.000002316031
      12       -0.003116265522     0.004801138638    -0.002658786439
      13       -0.000001519483     0.000000159531    -0.000002150214
      14        0.000003264855    -0.000001510314    -0.000002975974
      15       -0.000009685871     0.000013658761     0.000002944580
      16        0.002244309261    -0.003099652441     0.001542962015
      17        0.000012919906    -0.000003843213     0.000000248831
      18        0.000005247355    -0.000003308377     0.000006292263
      19       -0.000006360372    -0.000000398412    -0.000006834069
      20       -0.000002235417     0.000004552960    -0.000001147385

  **** Optimization is complete! (in 7 steps) ****
    Final optimized geometry and variables:
    Molecular point group: c1

    Geometry (in Angstrom), charge = 0, multiplicity = 1:

    H            3.690073943441    -1.045807597452    -0.029212508996
    O            2.794176413196    -1.247974998167     0.194905959720
    C            2.061378190416    -0.150241777362     0.029444589412
    C            0.614642206638    -0.389238379818     0.366896789932
    O            2.531663338738     0.869563895374    -0.340559667910
    C           -0.262010495653     0.845762512558     0.201864715314
    H            0.277247529190    -1.210505350417    -0.255402090671
    H            0.581968787969    -0.758808026043     1.387015701026
    C           -1.726399392246     0.599419326869     0.563894696931
    H           -0.195766173984     1.199236645073    -0.820680977595
    H            0.134535466413     1.640068013472     0.822588194458
    C           -2.460365099137    -0.388065012815    -0.359247614031
    H           -2.233059369435     1.558612890849     0.521673390910
    H           -1.803536539695     0.268316135774     1.595595913425
    C           -3.917336930654    -0.016237002682    -0.607397003574
    H           -1.929729614740    -0.473090279242    -1.303136135366
    H           -2.422793363675    -1.383970438689     0.072882573950
    H           -4.412395480520    -0.755467112829    -1.226539567050
    H           -3.995364390413     0.943342046301    -1.107050926330
    H           -4.465177593674     0.053651946645     0.326633300685

  Mulliken Charges: (a.u.)
   Center  Symbol    Alpha    Beta     Spin     Total
       1     H     0.38235  0.38235  0.00000  0.23529
       2     O     4.16036  4.16036  0.00000 -0.32072
       3     C     2.80398  2.80398  0.00000  0.39204
       4     C     3.10967  3.10967  0.00000 -0.21933
       5     O     4.19123  4.19123  0.00000 -0.38247
       6     C     3.09354  3.09354  0.00000 -0.18708
       7     H     0.43621  0.43621  0.00000  0.12757
       8     H     0.43780  0.43780  0.00000  0.12441
       9     C     3.10122  3.10122  0.00000 -0.20244
      10     H     0.44517  0.44517  0.00000  0.10966
      11     H     0.44049  0.44049  0.00000  0.11902
      12     C     3.09176  3.09176  0.00000 -0.18353
      13     H     0.44672  0.44672  0.00000  0.10657
      14     H     0.45092  0.45092  0.00000  0.09816
      15     C     3.14767  3.14767  0.00000 -0.29533
      16     H     0.45252  0.45252  0.00000  0.09497
      17     H     0.45153  0.45153  0.00000  0.09694
      18     H     0.44876  0.44876  0.00000  0.10248
      19     H     0.45428  0.45428  0.00000  0.09144
      20     H     0.45383  0.45383  0.00000  0.09234

   Total alpha = 32.00000, Total beta = 32.00000, Total charge =  0.00000
