  ==> Input File <==

--------------------------------------------------------------------------
set {
	reference rhf
	basis 6-31G*
}

set_num_threads( 1 )
memory 2 gb

molecule MOL {
0 1

O	 1.408985	 2.058496	 0.295126
C	 0.408908	 2.372634	 0.855735
C	 -0.888324	 1.601482	 0.836247
O	 0.304476	 3.470329	 1.594178
C	 -0.823008	 0.326187	 0.001381
H	 -1.152162	 1.383844	 1.867624
H	 -1.659786	 2.273104	 0.469518
C	 -2.149452	 -0.435131	 -0.000098
H	 -0.032084	 -0.311353	 0.383703
H	 -0.541358	 0.578829	 -1.016044
C	 -3.368779	 0.488503	 -0.000883
H	 -2.193746	 -1.087250	 -0.871175
H	 -2.195311	 -1.087803	 0.870418
C	 -4.693822	 -0.272754	 -0.001129
H	 -3.325798	 1.139422	 -0.871284
H	 -3.326423	 1.139959	 0.869145
H	 -4.781274	 -0.907928	 -0.878124
H	 -5.538651	 0.408946	 -0.001420
H	 -4.781694	 -0.907783	 0.875984
C	 1.456529	 4.286992	 1.698054
H	 2.273105	 3.737285	 2.143648
H	 1.175040	 5.115501	 2.329095
H	 1.758504	 4.643908	 0.723925

	symmetry c1
}
set optking {
	frozen_dihedral = ("
		15 11 8 12,
		1 2 3 6,
		9 5 3 6,
		1 2 4 20
	")
}

ee = energy('scf')
oeprop('DIPOLE', 'QUADRUPOLE', 'MULLIKEN_CHARGES')
f=open( 'psi4out.xyz', 'w' )
f.write( "23  " )
f.write( str(ee) + "\n" )
f.write( MOL.save_string_xyz() )
f.close()
--------------------------------------------------------------------------

    Molecular point group: c1

    Geometry (in Angstrom), charge = 0, multiplicity = 1:

       Center              X                  Y                   Z               Mass
    ------------   -----------------  -----------------  -----------------  -----------------
           O          2.314451801462     0.482063810170    -0.303185129960    15.994914619560
           C          1.314374801462     0.796201810170     0.257423870040    12.000000000000
           C          0.017142801462     0.025049810170     0.237935870040    12.000000000000
           O          1.209942801462     1.893896810170     0.995866870040    15.994914619560
           C          0.082458801462    -1.250245189830    -0.596930129960    12.000000000000
           H         -0.246695198538    -0.192588189830     1.269312870040     1.007825032070
           H         -0.754319198538     0.696671810170    -0.128793129960     1.007825032070
           C         -1.243985198538    -2.011563189830    -0.598409129960    12.000000000000
           H          0.873382801462    -1.887785189830    -0.214608129960     1.007825032070
           H          0.364108801462    -0.997603189830    -1.614355129960     1.007825032070
           C         -2.463312198538    -1.087929189830    -0.599194129960    12.000000000000
           H         -1.288279198538    -2.663682189830    -1.469486129960     1.007825032070
           H         -1.289844198538    -2.664235189830     0.272106870040     1.007825032070
           C         -3.788355198538    -1.849186189830    -0.599440129960    12.000000000000
           H         -2.420331198538    -0.437010189830    -1.469595129960     1.007825032070
           H         -2.420956198538    -0.436473189830     0.270833870040     1.007825032070
           H         -3.875807198538    -2.484360189830    -1.476435129960     1.007825032070
           H         -4.633184198538    -1.167486189830    -0.599731129960     1.007825032070
           H         -3.876227198538    -2.484215189830     0.277672870040     1.007825032070
           C          2.361995801462     2.710559810170     1.099742870040    12.000000000000
           H          3.178571801462     2.160852810170     1.545336870040     1.007825032070
           H          2.080506801462     3.539068810170     1.730783870040     1.007825032070
           H          2.663970801462     3.067475810170     0.125613870040     1.007825032070

  Charge       = 0
  Multiplicity = 1
  Basis Set: 6-31G*
  Basis Set:

    Orbital Energies (a.u.)
    -----------------------

    Doubly Occupied:

       1A    -20.603201     2A    -20.544645     3A    -11.371334
       4A    -11.280571     5A    -11.234091     6A    -11.218782
       7A    -11.218624     8A    -11.217333     9A    -11.211016
      10A     -1.468772    11A     -1.362129    12A     -1.097772
      13A     -1.039427    14A     -0.986949    15A     -0.932854
      16A     -0.854215    17A     -0.793530    18A     -0.759604
      19A     -0.701677    20A     -0.682503    21A     -0.671143
      22A     -0.644983    23A     -0.614681    24A     -0.600390
      25A     -0.578835    26A     -0.559267    27A     -0.553483
      28A     -0.526598    29A     -0.520439    30A     -0.512436
      31A     -0.493074    32A     -0.467753    33A     -0.461025
      34A     -0.456580    35A     -0.452570    36A     -0.436505

  @DF-RHF Final Energy:  -422.96902015993277

   => Energetics <=

    Nuclear Repulsion Energy =            461.5043400128022881
    One-Electron Energy =               -1490.6890511455667365
    Two-Electron Energy =                 606.2156909728307710
    DFT Exchange-Correlation Energy =       0.0000000000000000
    Empirical Dispersion Energy =           0.0000000000000000
    PCM Polarization Energy =               0.0000000000000000
    EFP Energy =                            0.0000000000000000
    Total Energy =                       -422.9690201599337342

  Mulliken Charges: (a.u.)
   Center  Symbol    Alpha    Beta     Spin     Total
       1     O     4.28618  4.28618  0.00000 -0.57235
       2     C     2.60270  2.60270  0.00000  0.79459
       3     C     3.21757  3.21757  0.00000 -0.43514
       4     O     4.30735  4.30735  0.00000 -0.61469
       5     C     3.15271  3.15271  0.00000 -0.30542
       6     H     0.40082  0.40082  0.00000  0.19837
       7     H     0.39638  0.39638  0.00000  0.20724
       8     C     3.15370  3.15370  0.00000 -0.30739
       9     H     0.40936  0.40936  0.00000  0.18127
      10     H     0.41140  0.41140  0.00000  0.17720
      11     C     3.16179  3.16179  0.00000 -0.32358
      12     H     0.41808  0.41808  0.00000  0.16384
      13     H     0.42233  0.42233  0.00000  0.15534
      14     C     3.23763  3.23763  0.00000 -0.47527
      15     H     0.42204  0.42204  0.00000  0.15591
      16     H     0.41925  0.41925  0.00000  0.16149
      17     H     0.42112  0.42112  0.00000  0.15777
      18     H     0.41906  0.41906  0.00000  0.16187
      19     H     0.42139  0.42139  0.00000  0.15721
      20     C     3.09236  3.09236  0.00000 -0.18472
      21     H     0.40909  0.40909  0.00000  0.18182
      22     H     0.40854  0.40854  0.00000  0.18292
      23     H     0.40915  0.40915  0.00000  0.18171

   Total alpha = 36.00000, Total beta = 36.00000, Total charge =  0.00000
