                              Psi4 1.0.54 Driver

  ==> Input File <==

--------------------------------------------------------------------------
set {
	reference rhf
	basis cc-pvtz
}

set_num_threads( 4 )
memory 2 gb

molecule MOL {
0 1

H	 2.626850	 -0.653079	 0.687114
O	 2.012307	 -0.863440	 0.000222
C	 1.050374	 0.054877	 0.000135
C	 -0.318151	 -0.570512	 0.000144
O	 1.286319	 1.213453	 -0.000040
C	 -1.454884	 0.441630	 -0.000560
H	 -0.371613	 -1.223646	 -0.864985
H	 -0.371920	 -1.222758	 0.865929
C	 -2.822577	 -0.232186	 0.000063
H	 -1.359760	 1.084704	 -0.867077
H	 -1.359641	 1.085996	 0.864983
H	 -2.954352	 -0.858985	 -0.875745
H	 -3.615886	 0.505352	 0.000019
H	 -2.953878	 -0.858359	 0.876394

	symmetry c1
}
set optking {
	frozen_dihedral = ("
		1 2 3 5
	")
}

ee,wfn = optimize('scf', return_wfn=True)
oeprop( wfn, 'DIPOLE', 'QUADRUPOLE', 'MULLIKEN_CHARGES')
f=open( 'psi4out.xyz', 'w' )
f.write( "14  " )
f.write( str(ee) + "\n" )
f.write( MOL.save_string_xyz() )
f.close()
--------------------------------------------------------------------------

    Molecular point group: c1
  Charge       = 0
  Multiplicity = 1
  Basis Set: CC-PVTZ
  Basis Set:
  @DF-RHF Final Energy:  -305.98921067866900
    Total Energy =                       -305.9892106786688828
    Molecular point group: c1
  Basis Set: CC-PVTZ
  Basis Set:
  Basis Set: CC-PVTZ
  Basis Set:
  @DF-RHF Final Energy:  -305.98691675955479
    Total Energy =                       -305.9869167595549015
  Basis Set: CC-PVTZ
  Basis Set:
  Basis Set: CC-PVTZ
  Basis Set:
  @DF-RHF Final Energy:  -305.99017529564969
    Total Energy =                       -305.9901752956496352
  Basis Set: CC-PVTZ
  Basis Set:
  Basis Set: CC-PVTZ
  Basis Set:
  @DF-RHF Final Energy:  -305.99026773670096
    Total Energy =                       -305.9902677367008437
  Basis Set: CC-PVTZ
  Basis Set:
  Basis Set: CC-PVTZ
  Basis Set:
  @DF-RHF Final Energy:  -305.99027675631328
    Total Energy =                       -305.9902767563135626
  Basis Set: CC-PVTZ
  Basis Set:
  Basis Set: CC-PVTZ
  Basis Set:
  @DF-RHF Final Energy:  -305.99027894342930
    Total Energy =                       -305.9902789434293027
  Basis Set: CC-PVTZ
  Basis Set:
  Charge       = 0
  Multiplicity = 1
  Basis Set: CC-PVTZ
  Basis Set:

    Orbital Energies (a.u.)
    -----------------------

    Doubly Occupied:

       1A    -20.594550     2A    -20.546395     3A    -11.374418
       4A    -11.239725     5A    -11.223888     6A    -11.215674
       7A     -1.469156     8A     -1.370641     9A     -1.083935
      10A     -0.979277    11A     -0.856647    12A     -0.794762
      13A     -0.707953    14A     -0.686381    15A     -0.665893
      16A     -0.628112    17A     -0.580599    18A     -0.569383
      19A     -0.546552    20A     -0.507240    21A     -0.495127
      22A     -0.484365    23A     -0.483026    24A     -0.447471

  @DF-RHF Final Energy:  -305.99027903873298

   => Energetics <=

    Nuclear Repulsion Energy =            240.0024164085543816
    One-Electron Energy =                -892.8830505338971761
    Two-Electron Energy =                 346.8903550866098158
    DFT Exchange-Correlation Energy =       0.0000000000000000
    Empirical Dispersion Energy =           0.0000000000000000
    PCM Polarization Energy =               0.0000000000000000
    EFP Energy =                            0.0000000000000000
    Total Energy =                       -305.9902790387329787
    Molecular point group: c1
  Basis Set: CC-PVTZ
  Basis Set:

  -Total Gradient:
     Atom            X                  Y                   Z
    ------   -----------------  -----------------  -----------------
       1       -0.005024298914    -0.006585063434     0.007444224252
       2        0.005826370193     0.008485491246    -0.013916976876
       3        0.000054292204    -0.002276952380     0.016448074339
       4       -0.000028371736    -0.000099039039    -0.000041094845
       5       -0.000877799719     0.000512009686    -0.009912137884
       6        0.000019770957     0.000005766462    -0.000020772889
       7       -0.000013165832    -0.000001459233    -0.000009988800
       8       -0.000011039065    -0.000023036123     0.000002671821
       9        0.000030155346    -0.000028206694     0.000003017136
      10        0.000003523911     0.000007467991    -0.000006141002
      11        0.000005821894     0.000001928081     0.000008382587
      12       -0.000003833400    -0.000002517522    -0.000003195145
      13        0.000023575150     0.000008004724     0.000000114594
      14       -0.000005000993    -0.000004393765     0.000003822712

  **** Optimization is complete! (in 7 steps) ****
    Final optimized geometry and variables:
    Molecular point group: c1

    Geometry (in Angstrom), charge = 0, multiplicity = 1:

    H            2.725995899940    -0.708956059239     0.473914162550
    O            2.022582019488    -0.860354997911    -0.136672387338
    C            1.052529805396     0.061105766810     0.020299742485
    C           -0.316469417974    -0.562132009250     0.020826860362
    O            1.282353496340     1.215925733128     0.054309861486
    C           -1.457181777136     0.444686735024     0.009135208751
    H           -0.362546785560    -1.225409019991    -0.836987376517
    H           -0.370744141613    -1.208949950404     0.891901984527
    C           -2.822510723115    -0.233949540113     0.011516927909
    H           -1.362102901073     1.080568726771    -0.862979534666
    H           -1.366853771571     1.097179036688     0.869132249435
    H           -2.949246775261    -0.869053889661    -0.858980408673
    H           -3.618501854330     0.500629368901     0.002481284327
    H           -2.954304153841    -0.852751854597     0.893081825697

  Mulliken Charges: (a.u.)
   Center  Symbol    Alpha    Beta     Spin     Total
       1     H     0.38138  0.38138  0.00000  0.23723
       2     O     4.17248  4.17248  0.00000 -0.34496
       3     C     2.80496  2.80496  0.00000  0.39009
       4     C     3.10524  3.10524  0.00000 -0.21049
       5     O     4.17513  4.17513  0.00000 -0.35026
       6     C     3.08066  3.08066  0.00000 -0.16132
       7     H     0.43790  0.43790  0.00000  0.12421
       8     H     0.44376  0.44376  0.00000  0.11247
       9     C     3.14992  3.14992  0.00000 -0.29985
      10     H     0.44601  0.44601  0.00000  0.10798
      11     H     0.44641  0.44641  0.00000  0.10718
      12     H     0.45512  0.45512  0.00000  0.08977
      13     H     0.44512  0.44512  0.00000  0.10976
      14     H     0.45591  0.45591  0.00000  0.08819

   Total alpha = 24.00000, Total beta = 24.00000, Total charge = -0.00000

*** Psi4 exiting successfully. Buy a developer a beer!
