                              Psi4 1.0.54 Driver

  ==> Input File <==

--------------------------------------------------------------------------
set {
	reference rhf
	basis cc-pvtz
}

set_num_threads( 4 )
memory 2 gb

molecule MOL {
0 1

H	 -4.024094	 -0.454727	 0.000004
C	 -2.962215	 -0.297920	 0.000004
C	 -2.454736	 0.988978	 0.000025
C	 -2.105837	 -1.382632	 -0.000016
H	 -3.120052	 1.830438	 0.000041
C	 -1.090106	 1.189676	 0.000026
H	 -2.500390	 -2.380229	 -0.000033
C	 -0.739175	 -1.183302	 -0.000016
H	 -0.680214	 2.179144	 0.000042
C	 -0.227341	 0.104540	 0.000006
H	 -0.073209	 -2.021168	 -0.000032
C	 1.238974	 0.374429	 0.000004
O	 1.916881	 -0.446319	 0.780260
O	 1.750907	 1.235916	 -0.633198
C	 3.317930	 -0.265974	 0.844293
H	 3.762030	 -0.393495	 -0.131355
H	 3.682426	 -1.020489	 1.522112
H	 3.557273	 0.718630	 1.216674

	symmetry c1
}
set optking {
	frozen_dihedral = ("
		13 12 10 6
	")
}

ee,wfn = optimize('scf', return_wfn=True)
oeprop( wfn, 'DIPOLE', 'QUADRUPOLE', 'MULLIKEN_CHARGES')
f=open( 'psi4out.xyz', 'w' )
f.write( "18  " )
f.write( str(ee) + "\n" )
f.write( MOL.save_string_xyz() )
f.close()
--------------------------------------------------------------------------

    Molecular point group: c1
  Charge       = 0
  Multiplicity = 1
  Basis Set: CC-PVTZ
  Basis Set:
  @DF-RHF Final Energy:  -457.50606462583107
    Total Energy =                       -457.5060646258311863
    Molecular point group: c1
  Basis Set: CC-PVTZ
  Basis Set:
  Basis Set: CC-PVTZ
  Basis Set:
  @DF-RHF Final Energy:  -457.50348723428061
    Total Energy =                       -457.5034872342805556
  Basis Set: CC-PVTZ
  Basis Set:
  Basis Set: CC-PVTZ
  Basis Set:
  @DF-RHF Final Energy:  -457.50626221451029
    Total Energy =                       -457.5062622145103433
  Basis Set: CC-PVTZ
  Basis Set:
  Basis Set: CC-PVTZ
  Basis Set:
  @DF-RHF Final Energy:  -457.50641938881250
    Total Energy =                       -457.5064193888126738
  Basis Set: CC-PVTZ
  Basis Set:
  Basis Set: CC-PVTZ
  Basis Set:
  @DF-RHF Final Energy:  -457.50644253981710
    Total Energy =                       -457.5064425398168169
  Basis Set: CC-PVTZ
  Basis Set:
  Charge       = 0
  Multiplicity = 1
  Basis Set: CC-PVTZ
  Basis Set:

    Orbital Energies (a.u.)
    -----------------------

    Doubly Occupied:

       1A    -20.602239     2A    -20.536566     3A    -11.372420
       4A    -11.281635     5A    -11.246950     6A    -11.242814
       7A    -11.241671     8A    -11.241143     9A    -11.237057
      10A    -11.236400    11A     -1.477877    12A     -1.369822
      13A     -1.171515    14A     -1.052454    15A     -1.029629
      16A     -0.981097    17A     -0.863179    18A     -0.840381
      19A     -0.782179    20A     -0.743699    21A     -0.688106
      22A     -0.682601    23A     -0.679081    24A     -0.633461
      25A     -0.632641    26A     -0.600831    27A     -0.591195
      28A     -0.559071    29A     -0.535232    30A     -0.519912
      31A     -0.511854    32A     -0.504384    33A     -0.463675
      34A     -0.449514    35A     -0.349241    36A     -0.347055

  @DF-RHF Final Energy:  -457.50644380205551

   => Energetics <=

    Nuclear Repulsion Energy =            493.7233419777264771
    One-Electron Energy =               -1601.8624119734681699
    Two-Electron Energy =                 650.6326261936862920
    DFT Exchange-Correlation Energy =       0.0000000000000000
    Empirical Dispersion Energy =           0.0000000000000000
    PCM Polarization Energy =               0.0000000000000000
    EFP Energy =                            0.0000000000000000
    Total Energy =                       -457.5064438020554007
    Molecular point group: c1
  Basis Set: CC-PVTZ
  Basis Set:

  -Total Gradient:
     Atom            X                  Y                   Z
    ------   -----------------  -----------------  -----------------
       1       -0.000001983462     0.000007507729     0.000005188654
       2        0.000016782921    -0.000090583142    -0.000025770932
       3        0.000076691455     0.000061488702     0.000005277520
       4       -0.000083336165     0.000029650150     0.000020404089
       5       -0.000010515301    -0.000003860601     0.000002343830
       6       -0.000169768219    -0.000042216127     0.004529883649
       7        0.000003520844    -0.000001333490    -0.000002035971
       8        0.000036219532     0.000066092950    -0.000015990358
       9        0.000008345437    -0.000004551895    -0.000000645173
      10       -0.000153203127     0.000931358599    -0.005346622331
      11       -0.000006888045    -0.000001616217     0.000002517253
      12        0.000737792333    -0.003795205694    -0.002638385626
      13       -0.000582483458     0.002960281220     0.003391456352
      14        0.000072944643    -0.000102204048     0.000072458412
      15        0.000049141378    -0.000036916538    -0.000003578075
      16        0.000000623998     0.000002268645     0.000000804885
      17        0.000019869133     0.000012887473     0.000000231777
      18       -0.000013753898     0.000006952288     0.000002462045

  **** Optimization is complete! (in 6 steps) ****
    Final optimized geometry and variables:
    Molecular point group: c1

    Geometry (in Angstrom), charge = 0, multiplicity = 1:

    H           -4.009622076807    -0.513123241849    -0.086399870464
    C           -2.949009477510    -0.349150957652    -0.099746357674
    C           -2.450102103841     0.940300732757    -0.108084489915
    C           -2.084309145453    -1.427780507758    -0.103015490304
    H           -3.120862943620     1.777486791176    -0.095481314932
    C           -1.086124179518     1.151511048309    -0.135008309723
    H           -2.471431088066    -2.428327735602    -0.093496436899
    C           -0.719408834719    -1.218125441180    -0.105379341203
    H           -0.687159759165     2.146091985799    -0.157898670849
    C           -0.218937402627     0.072299272625    -0.142905748205
    H           -0.045889757546    -2.051437894441    -0.082206147119
    C            1.248701217166     0.341322078021    -0.124632977740
    O            1.907970037997    -0.497009778366     0.652332588339
    O            1.764206783074     1.237745029357    -0.702241102220
    C            3.310388075012    -0.332012488391     0.735747160618
    H            3.764940114037    -0.436571718780    -0.238147996171
    H            3.660885341350    -1.107278283283     1.397224300216
    H            3.553565021611     0.640236352469     1.137061518813

  Mulliken Charges: (a.u.)
   Center  Symbol    Alpha    Beta     Spin     Total
       1     H     0.42077  0.42077  0.00000  0.15845
       2     C     3.07544  3.07544  0.00000 -0.15088
       3     C     3.07045  3.07045  0.00000 -0.14091
       4     C     3.07068  3.07068  0.00000 -0.14136
       5     H     0.42096  0.42096  0.00000  0.15807
       6     C     3.08771  3.08771  0.00000 -0.17542
       7     H     0.42170  0.42170  0.00000  0.15660
       8     C     3.08605  3.08605  0.00000 -0.17209
       9     H     0.41169  0.41169  0.00000  0.17662
      10     C     2.95913  2.95913  0.00000  0.08174
      11     H     0.41770  0.41770  0.00000  0.16461
      12     C     2.82112  2.82112  0.00000  0.35775
      13     O     4.14489  4.14489  0.00000 -0.28977
      14     O     4.20557  4.20557  0.00000 -0.41115
      15     C     3.03676  3.03676  0.00000 -0.07353
      16     H     0.45364  0.45364  0.00000  0.09272
      17     H     0.44394  0.44394  0.00000  0.11211
      18     H     0.45179  0.45179  0.00000  0.09642

   Total alpha = 36.00000, Total beta = 36.00000, Total charge =  0.00000

*** Psi4 exiting successfully. Buy a developer a beer!
