                              Psi4 1.0.54 Driver

  ==> Input File <==

--------------------------------------------------------------------------
set {
	reference rhf
	basis cc-pvtz
}

set_num_threads( 4 )
memory 2 gb

molecule MOL {
0 1

H	 -2.149496	 -2.244167	 0.000000
O	 -2.454378	 -1.354528	 0.000000
C	 -1.430628	 -0.482077	 0.000000
C	 -1.742547	 0.869728	 0.000000
C	 -0.111839	 -0.884589	 0.000000
H	 -2.773789	 1.162250	 0.000000
C	 -0.735212	 1.807324	 0.000000
H	 0.143660	 -1.927023	 0.000000
C	 0.892491	 0.074030	 -0.000000
H	 -0.984903	 2.850392	 -0.000000
C	 0.594103	 1.421771	 -0.000000
C	 2.269580	 -0.356009	 -0.000000
H	 1.380052	 2.149273	 -0.000000
N	 3.345334	 -0.695770	 -0.000000

	symmetry c1
}
set optking {
	frozen_dihedral = ("
		5 3 2 1
	")
}

ee,wfn = optimize('scf', return_wfn=True)
oeprop( wfn, 'DIPOLE', 'QUADRUPOLE', 'MULLIKEN_CHARGES')
f=open( 'psi4out.xyz', 'w' )
f.write( "14  " )
f.write( str(ee) + "\n" )
f.write( MOL.save_string_xyz() )
f.close()
--------------------------------------------------------------------------

    Molecular point group: c1
  Charge       = 0
  Multiplicity = 1
  Basis Set: CC-PVTZ
  Basis Set:

    Orbital Energies (a.u.)
    -----------------------

    Doubly Occupied:

       1A    -20.607211     2A    -15.565767     3A    -11.325199
       4A    -11.293075     5A    -11.269214     6A    -11.261048
       7A    -11.260380     8A    -11.255911     9A    -11.251832
      10A     -1.439516    11A     -1.238775    12A     -1.186980
      13A     -1.067084    14A     -1.042590    15A     -0.900029
      16A     -0.872053    17A     -0.783058    18A     -0.731275
      19A     -0.702664    20A     -0.668776    21A     -0.629387
      22A     -0.621025    23A     -0.598311    24A     -0.566396
      25A     -0.553859    26A     -0.545491    27A     -0.530394
      28A     -0.479894    29A     -0.479651    30A     -0.368246
      31A     -0.341688

  @DF-RHF Final Energy:  -397.43298637787404

   => Energetics <=

    Nuclear Repulsion Energy =            380.5412602383253216
    One-Electron Energy =               -1293.0749342788135436
    Two-Electron Energy =                 515.1006876626142912
    DFT Exchange-Correlation Energy =       0.0000000000000000
    Empirical Dispersion Energy =           0.0000000000000000
    PCM Polarization Energy =               0.0000000000000000
    EFP Energy =                            0.0000000000000000
    Total Energy =                       -397.4329863778739309
    Molecular point group: c1
  Basis Set: CC-PVTZ
  Basis Set:

  -Total Gradient:
     Atom            X                  Y                   Z
    ------   -----------------  -----------------  -----------------
       1       -0.000065457678     0.000032692191     0.000000011080
       2       -0.000138989685    -0.000238397245    -0.000000010766
       3        0.000261731470     0.000088122500    -0.000000006784
       4       -0.000001470243     0.000151168041    -0.000000023772
       5       -0.000207187848    -0.000139562748     0.000000007900
       6        0.000009026554    -0.000034275001    -0.000000012640
       7       -0.000151824454     0.000044170871     0.000000003503
       8        0.000020209247     0.000026934228     0.000000003464
       9        0.000122732726     0.000188344547    -0.000000007725
      10        0.000005876085     0.000004013463     0.000000002291
      11        0.000119302657    -0.000063752796     0.000000013389
      12        0.000228566589    -0.000142393735    -0.000000028178
      13       -0.000007495055    -0.000017233973     0.000000012352
      14       -0.000195020370     0.000100169659     0.000000035887

  **** Optimization is complete! (in 1 steps) ****
    Final optimized geometry and variables:
    Molecular point group: c1

    Geometry (in Angstrom), charge = 0, multiplicity = 1:

    H           -2.149495868556    -2.244166663776     0.000000000000
    O           -2.454377868556    -1.354527663776     0.000000000000
    C           -1.430627868556    -0.482076663776     0.000000000000
    C           -1.742546868556     0.869728336224     0.000000000000
    C           -0.111838868556    -0.884588663776     0.000000000000
    H           -2.773788868556     1.162250336224     0.000000000000
    C           -0.735211868556     1.807324336224     0.000000000000
    H            0.143660131444    -1.927022663776     0.000000000000
    C            0.892491131444     0.074030336224     0.000000000000
    H           -0.984902868556     2.850392336224     0.000000000000
    C            0.594103131444     1.421771336224     0.000000000000
    C            2.269580131444    -0.356008663776     0.000000000000
    H            1.380052131444     2.149273336224     0.000000000000
    N            3.345334131444    -0.695769663776     0.000000000000

  Mulliken Charges: (a.u.)
   Center  Symbol    Alpha    Beta     Spin     Total
       1     H     0.38494  0.38494  0.00000  0.23012
       2     O     4.16844  4.16844  0.00000 -0.33689
       3     C     2.84070  2.84070  0.00000  0.31860
       4     C     3.10626  3.10626  0.00000 -0.21253
       5     C     3.14633  3.14633  0.00000 -0.29266
       6     H     0.41405  0.41405  0.00000  0.17191
       7     C     3.05017  3.05017  0.00000 -0.10034
       8     H     0.42325  0.42325  0.00000  0.15349
       9     C     2.92891  2.92891  0.00000  0.14218
      10     H     0.41675  0.41675  0.00000  0.16650
      11     C     3.10552  3.10552  0.00000 -0.21103
      12     C     3.02568  3.02568  0.00000 -0.05137
      13     H     0.41437  0.41437  0.00000  0.17126
      14     N     3.57463  3.57463  0.00000 -0.14925

   Total alpha = 31.00000, Total beta = 31.00000, Total charge = -0.00000

*** Psi4 exiting successfully. Buy a developer a beer!
