                              Psi4 1.0.54 Driver

  ==> Input File <==

--------------------------------------------------------------------------
set {
	reference rhf
	basis cc-pvtz
}

set_num_threads( 4 )
memory 2 gb

molecule MOL {
0 1

H	 1.166964	 -1.062386	 0.758429
O	 1.324748	 -0.612467	 -0.052206
C	 0.706474	 0.636793	 -0.025501
C	 1.652975	 1.802424	 0.029908
H	 0.075250	 0.647826	 0.855259
H	 0.045854	 0.760931	 -0.881579
C	 2.959193	 1.727182	 0.158122
H	 1.180534	 2.768189	 -0.043215
H	 3.464457	 0.784819	 0.251037
H	 3.565170	 2.612616	 0.187444

	symmetry c1
}
set optking {
	frozen_dihedral = ("
		5 3 2 1
	")
}

ee,wfn = optimize('scf', return_wfn=True)
oeprop( wfn, 'DIPOLE', 'QUADRUPOLE', 'MULLIKEN_CHARGES')
f=open( 'psi4out.xyz', 'w' )
f.write( "10  " )
f.write( str(ee) + "\n" )
f.write( MOL.save_string_xyz() )
f.close()
--------------------------------------------------------------------------

    Molecular point group: c1
  Charge       = 0
  Multiplicity = 1
  Basis Set: CC-PVTZ
  Basis Set:
  @DF-RHF Final Energy:  -191.99568703036482
    Total Energy =                       -191.9956870303647065
    Molecular point group: c1
  Basis Set: CC-PVTZ
  Basis Set:
  Basis Set: CC-PVTZ
  Basis Set:
  @DF-RHF Final Energy:  -191.97157265840764
    Total Energy =                       -191.9715726584077515
  Basis Set: CC-PVTZ
  Basis Set:
  Basis Set: CC-PVTZ
  Basis Set:
  @DF-RHF Final Energy:  -191.99653996847570
    Total Energy =                       -191.9965399684757585
  Basis Set: CC-PVTZ
  Basis Set:
  Basis Set: CC-PVTZ
  Basis Set:
  @DF-RHF Final Energy:  -191.99704566410793
    Total Energy =                       -191.9970456641078158
  Basis Set: CC-PVTZ
  Basis Set:
  Basis Set: CC-PVTZ
  Basis Set:
  @DF-RHF Final Energy:  -191.99705448686720
    Total Energy =                       -191.9970544868672278
  Basis Set: CC-PVTZ
  Basis Set:
  Charge       = 0
  Multiplicity = 1
  Basis Set: CC-PVTZ
  Basis Set:

    Orbital Energies (a.u.)
    -----------------------

    Doubly Occupied:

       1A    -20.553526     2A    -11.278632     3A    -11.224170
       4A    -11.209382     5A     -1.373302     6A     -1.058521
       7A     -0.928278     8A     -0.761892     9A     -0.706317
      10A     -0.655240    11A     -0.615663    12A     -0.580219
      13A     -0.513137    14A     -0.510471    15A     -0.450172
      16A     -0.362660

  @DF-RHF Final Energy:  -191.99705556340973

   => Energetics <=

    Nuclear Repulsion Energy =            119.4056020882947990
    One-Electron Energy =                -497.2421531845118352
    Two-Electron Energy =                 185.8394955328072911
    DFT Exchange-Correlation Energy =       0.0000000000000000
    Empirical Dispersion Energy =           0.0000000000000000
    PCM Polarization Energy =               0.0000000000000000
    EFP Energy =                            0.0000000000000000
    Total Energy =                       -191.9970555634097309
    Molecular point group: c1
  Basis Set: CC-PVTZ
  Basis Set:

  -Total Gradient:
     Atom            X                  Y                   Z
    ------   -----------------  -----------------  -----------------
       1       -0.000588798602    -0.000454618251    -0.000709098522
       2        0.000828897307     0.000606530166     0.001108943666
       3       -0.000594214194    -0.000441640921    -0.001206971250
       4       -0.000093154471    -0.000006863918     0.000034222328
       5        0.000369769152     0.000295133710     0.000784085276
       6       -0.000011572138    -0.000007836610    -0.000030806887
       7        0.000012214919    -0.000016802185     0.000072103789
       8        0.000017316869    -0.000007426153    -0.000014133954
       9        0.000021084064     0.000014336110    -0.000018649106
      10        0.000038457094     0.000019188051    -0.000019695341

  **** Optimization is complete! (in 6 steps) ****
    Final optimized geometry and variables:
    Molecular point group: c1

    Geometry (in Angstrom), charge = 0, multiplicity = 1:

    H           -0.428803062922    -1.988370144711     0.330565601183
    O           -0.062961584510    -1.403003360988    -0.304065902856
    C           -0.831291967835    -0.237801100879    -0.395158860492
    C           -0.115545698864     0.980918802697     0.112496787188
    H           -1.764832917813    -0.343951465979     0.151878449730
    H           -1.096606248786    -0.082963570937    -1.436432198008
    C            1.093872484572     1.000473796474     0.625192310899
    H           -0.675248064412     1.897762415131     0.024218589956
    H            1.677202627462     0.105105097633     0.714719207908
    H            1.536815315786     1.918453877697     0.962348024720

  Mulliken Charges: (a.u.)
   Center  Symbol    Alpha    Beta     Spin     Total
       1     H     0.38984  0.38984  0.00000  0.22032
       2     O     4.19917  4.19917  0.00000 -0.39833
       3     C     2.94863  2.94863  0.00000  0.10275
       4     C     3.07997  3.07997  0.00000 -0.15994
       5     H     0.47152  0.47152  0.00000  0.05696
       6     H     0.46113  0.46113  0.00000  0.07774
       7     C     3.17530  3.17530  0.00000 -0.35060
       8     H     0.42425  0.42425  0.00000  0.15149
       9     H     0.42068  0.42068  0.00000  0.15863
      10     H     0.42951  0.42951  0.00000  0.14097

   Total alpha = 16.00000, Total beta = 16.00000, Total charge = -0.00000

*** Psi4 exiting successfully. Buy a developer a beer!
