  ==> Input File <==

--------------------------------------------------------------------------
set {
	reference rhf
	basis 6-31G*
}

set_num_threads( 4 )
memory 2 gb

molecule MOL {
0 1

O	 0.749854	 1.307668	 -0.000040
C	 0.576249	 0.131685	 -0.000108
C	 -0.766779	 -0.556801	 -0.000461
O	 1.568443	 -0.749345	 -0.000005
C	 -1.945214	 0.412366	 0.000161
H	 -0.796911	 -1.211249	 -0.867467
H	 -0.796854	 -1.212390	 0.865687
C	 -3.287791	 -0.317055	 0.000105
H	 -1.876087	 1.060580	 -0.866812
H	 -1.875822	 1.059691	 0.867761
H	 -3.394745	 -0.949193	 -0.877058
H	 -4.111778	 0.388953	 0.000015
H	 -3.394954	 -0.949187	 0.877259
C	 2.467762	 -0.704342	 1.092884
H	 2.958857	 0.256910	 1.141484
H	 3.190421	 -1.484804	 0.912574
H	 1.946172	 -0.884172	 2.021924

	symmetry c1
}
set optking {
	frozen_dihedral = ("
		14 4 2 1
	")
}

ee = optimize('scf')
oeprop('DIPOLE', 'QUADRUPOLE', 'MULLIKEN_CHARGES')
f=open( 'psi4out.xyz', 'w' )
f.write( "17  " )
f.write( str(ee) + "\n" )
f.write( MOL.save_string_xyz() )
f.close()
--------------------------------------------------------------------------

    Molecular point group: c1
  Charge       = 0
  Multiplicity = 1
  Basis Set: 6-31G*
  Basis Set:
  @DF-RHF Final Energy:  -344.89175265519253
    Total Energy =                       -344.8917526551928177
    Molecular point group: c1
  Basis Set: 6-31G*
  Basis Set:
  Basis Set: 6-31G*
  Basis Set:
  @DF-RHF Final Energy:  -344.88948414746341
    Total Energy =                       -344.8894841474633495
  Basis Set: 6-31G*
  Basis Set:
  Basis Set: 6-31G*
  Basis Set:
  @DF-RHF Final Energy:  -344.89266199630987
    Total Energy =                       -344.8926619963101530
  Basis Set: 6-31G*
  Basis Set:
  Basis Set: 6-31G*
  Basis Set:
  @DF-RHF Final Energy:  -344.89276158229808
    Total Energy =                       -344.8927615822981352
  Basis Set: 6-31G*
  Basis Set:
  Basis Set: 6-31G*
  Basis Set:
  @DF-RHF Final Energy:  -344.89276707067711
    Total Energy =                       -344.8927670706771096
  Basis Set: 6-31G*
  Basis Set:
  Charge       = 0
  Multiplicity = 1
  Basis Set: 6-31G*
  Basis Set:

    Orbital Energies (a.u.)
    -----------------------

    Doubly Occupied:

       1A    -20.589923     2A    -20.554264     3A    -11.374893
       4A    -11.287548     5A    -11.237896     6A    -11.223221
       7A    -11.215748     8A     -1.461211     9A     -1.365822
      10A     -1.080714    11A     -0.996022    12A     -0.945411
      13A     -0.831051    14A     -0.765207    15A     -0.699360
      16A     -0.677917    17A     -0.672856    18A     -0.634559
      19A     -0.610574    20A     -0.577517    21A     -0.566192
      22A     -0.533746    23A     -0.519773    24A     -0.497104
      25A     -0.489958    26A     -0.480058    27A     -0.453303
      28A     -0.435401

  @DF-RHF Final Energy:  -344.89276772418447

   => Energetics <=

    Nuclear Repulsion Energy =            311.8568466952593212
    One-Electron Energy =               -1087.9447373163225166
    Two-Electron Energy =                 431.1951228968785585
    DFT Exchange-Correlation Energy =       0.0000000000000000
    Empirical Dispersion Energy =           0.0000000000000000
    PCM Polarization Energy =               0.0000000000000000
    EFP Energy =                            0.0000000000000000
    Total Energy =                       -344.8927677241846936
    Molecular point group: c1
  Basis Set: 6-31G*
  Basis Set:

  -Total Gradient:
     Atom            X                  Y                   Z
    ------   -----------------  -----------------  -----------------
       1       -0.000559775576    -0.000075427486    -0.008728228532
       2       -0.000950626391    -0.002038560360     0.014630304649
       3        0.000034347685     0.000019534864     0.000053304333
       4        0.005190438098     0.006556598085    -0.009660254399
       5       -0.000009149825    -0.000009039437    -0.000031462619
       6        0.000006578525     0.000004706365    -0.000015820758
       7        0.000003232027    -0.000003684812    -0.000024364868
       8       -0.000013079048     0.000009652482     0.000012138711
       9        0.000004194254    -0.000004965179     0.000004414382
      10       -0.000005778820     0.000003271253     0.000002550294
      11       -0.000000001799     0.000004626505    -0.000004188738
      12       -0.000004939732    -0.000003674189     0.000003534679
      13        0.000001509139    -0.000003495660    -0.000000894033
      14       -0.003708878921    -0.004438208807     0.003763518263
      15        0.000008317717    -0.000014460244    -0.000005527432
      16        0.000000708319     0.000005746817     0.000001787806
      17        0.000002904347    -0.000012620198    -0.000000811738

  **** Optimization is complete! (in 6 steps) ****
    Final optimized geometry and variables:
    Molecular point group: c1

    Geometry (in Angstrom), charge = 0, multiplicity = 1:

    O            0.805797780393     1.369385100079    -0.123470872144
    C            0.626092487263     0.199271895519    -0.103604902855
    C           -0.722376508276    -0.474425932143    -0.130538360902
    O            1.635353926351    -0.690408031287    -0.160103142465
    C           -1.896978536526     0.495935254500    -0.202646267945
    H           -0.720474265756    -1.158478664976    -0.975126048332
    H           -0.786386446732    -1.105342819412     0.753770074073
    C           -3.241831747770    -0.228905939583    -0.226910033138
    H           -1.794014241877     1.114634339445    -1.087751921744
    H           -1.856159019143     1.171887451412     0.644903941846
    H           -3.320359521555    -0.888215914629    -1.086813960001
    H           -4.062379154087     0.479149250814    -0.278376689523
    H           -3.382471830879    -0.832524719881     0.665534996950
    C            2.600411918955    -0.634383677212     0.872286853625
    H            3.026383077739     0.356153659176     0.948778166590
    H            3.369045253498    -1.345466210212     0.612498736290
    H            2.154678872865    -0.917417741229     1.819494987134

  Mulliken Charges: (a.u.)
   Center  Symbol    Alpha    Beta     Spin     Total
       1     O     4.26407  4.26407  0.00000 -0.52813
       2     C     2.60857  2.60857  0.00000  0.78287
       3     C     3.20931  3.20931  0.00000 -0.41863
       4     O     4.31503  4.31503  0.00000 -0.63005
       5     C     3.15261  3.15261  0.00000 -0.30522
       6     H     0.39824  0.39824  0.00000  0.20353
       7     H     0.40620  0.40620  0.00000  0.18760
       8     C     3.24263  3.24263  0.00000 -0.48525
       9     H     0.41006  0.41006  0.00000  0.17989
      10     H     0.41157  0.41157  0.00000  0.17685
      11     H     0.42076  0.42076  0.00000  0.15848
      12     H     0.41487  0.41487  0.00000  0.17025
      13     H     0.42186  0.42186  0.00000  0.15627
      14     C     3.09476  3.09476  0.00000 -0.18953
      15     H     0.40390  0.40390  0.00000  0.19220
      16     H     0.40502  0.40502  0.00000  0.18995
      17     H     0.42054  0.42054  0.00000  0.15893

   Total alpha = 28.00000, Total beta = 28.00000, Total charge =  0.00000
