                              Psi4 1.0.54 Driver

  ==> Input File <==

--------------------------------------------------------------------------
set {
	reference rhf
	basis cc-pvtz
}

set_num_threads( 4 )
memory 2 gb

molecule MOL {
0 1

H	 -3.162190	 0.493205	 -0.000107
C	 -2.363908	 -0.234727	 0.000005
O	 -1.158738	 0.454634	 -0.000087
H	 -2.464314	 -0.863616	 -0.882153
H	 -2.464327	 -0.863359	 0.882345
C	 -0.028611	 -0.359694	 0.000037
C	 0.360928	 -0.672764	 1.430645
H	 0.793223	 0.141247	 -0.512099
H	 -0.232366	 -1.282075	 -0.544334
C	 1.594960	 -1.563919	 1.516428
H	 0.537497	 0.261091	 1.952817
H	 -0.479916	 -1.150958	 1.920812
H	 2.455493	 -1.093355	 1.052597
H	 1.850647	 -1.771351	 2.548231
H	 1.431184	 -2.514943	 1.020646

	symmetry c1
}
set optking {
	frozen_dihedral = ("
		8 6 3 2
	")
}

ee,wfn = optimize('scf', return_wfn=True)
oeprop( wfn, 'DIPOLE', 'QUADRUPOLE', 'MULLIKEN_CHARGES')
f=open( 'psi4out.xyz', 'w' )
f.write( "15  " )
f.write( str(ee) + "\n" )
f.write( MOL.save_string_xyz() )
f.close()
--------------------------------------------------------------------------

    Molecular point group: c1
  Charge       = 0
  Multiplicity = 1
  Basis Set: CC-PVTZ
  Basis Set:
  @DF-RHF Final Energy:  -232.22387298603942
    Total Energy =                       -232.2238729860393960
    Molecular point group: c1
  Basis Set: CC-PVTZ
  Basis Set:
  Basis Set: CC-PVTZ
  Basis Set:
  @DF-RHF Final Energy:  -232.22495595510114
    Total Energy =                       -232.2249559551011089
  Basis Set: CC-PVTZ
  Basis Set:
  Basis Set: CC-PVTZ
  Basis Set:
  @DF-RHF Final Energy:  -232.22522684713752
    Total Energy =                       -232.2252268471374350
  Basis Set: CC-PVTZ
  Basis Set:
  Basis Set: CC-PVTZ
  Basis Set:
  @DF-RHF Final Energy:  -232.22523090192641
    Total Energy =                       -232.2252309019262952
  Basis Set: CC-PVTZ
  Basis Set:
  Charge       = 0
  Multiplicity = 1
  Basis Set: CC-PVTZ
  Basis Set:

    Orbital Energies (a.u.)
    -----------------------

    Doubly Occupied:

       1A    -20.545445     2A    -11.264179     3A    -11.261680
       4A    -11.214210     5A    -11.212193     6A     -1.377909
       7A     -1.057214     8A     -0.958952     9A     -0.881820
      10A     -0.807169    11A     -0.670392    12A     -0.657388
      13A     -0.638160    14A     -0.600520    15A     -0.567727
      16A     -0.533809    17A     -0.516316    18A     -0.497567
      19A     -0.484211    20A     -0.459999    21A     -0.408126

  @DF-RHF Final Energy:  -232.22523110760011

   => Energetics <=

    Nuclear Repulsion Energy =            191.3280749241209264
    One-Electron Energy =                -693.8766419624871560
    Two-Electron Energy =                 270.3233359307661203
    DFT Exchange-Correlation Energy =       0.0000000000000000
    Empirical Dispersion Energy =           0.0000000000000000
    PCM Polarization Energy =               0.0000000000000000
    EFP Energy =                            0.0000000000000000
    Total Energy =                       -232.2252311076001092
    Molecular point group: c1
  Basis Set: CC-PVTZ
  Basis Set:

  -Total Gradient:
     Atom            X                  Y                   Z
    ------   -----------------  -----------------  -----------------
       1       -0.000001154780    -0.000004412331     0.000001612469
       2        0.000031510640    -0.000002407736    -0.000556718050
       3       -0.000055102047    -0.000047339427     0.000662715969
       4       -0.000009053151    -0.000001649941    -0.000000451067
       5       -0.000006848235    -0.000005750248     0.000001302164
       6        0.000235110525     0.000332993604     0.000476940446
       7       -0.000007854416    -0.000014528286    -0.000014567770
       8       -0.000177156347    -0.000262300367    -0.000596349647
       9       -0.000012202745     0.000003413266     0.000002705344
      10       -0.000005435273     0.000012758239     0.000016572799
      11       -0.000001548688    -0.000002922482    -0.000002006453
      12       -0.000002340804     0.000000261020     0.000005969829
      13        0.000002709750    -0.000004551740    -0.000001035249
      14        0.000012325988    -0.000007711285     0.000002400234
      15       -0.000002960415     0.000004147716     0.000000908983

  **** Optimization is complete! (in 5 steps) ****
    Final optimized geometry and variables:
    Molecular point group: c1

    Geometry (in Angstrom), charge = 0, multiplicity = 1:

    H           -2.834681434996     1.021134148134    -0.637834051792
    C           -2.055207444563     0.273110873715    -0.616610448921
    O           -0.835355850712     0.937747724683    -0.567801862836
    H           -2.136369773030    -0.339645080482    -1.511565938780
    H           -2.213354330042    -0.362586138499     0.250587756460
    C            0.300263004732     0.124497670162    -0.534078768679
    C            0.723171634119    -0.242875782383     0.880694142414
    H            1.093627184155     0.679465508981    -1.020868565423
    H            0.134987712832    -0.777043826219    -1.122266327604
    C            1.993878329921    -1.085976179596     0.901302997365
    H            0.874109524045     0.673522923063     1.440904987967
    H           -0.079420931103    -0.781454364966     1.374074795855
    H            2.821618327055    -0.560724811128     0.436459848201
    H            2.285433283947    -1.326061382087     1.916511472204
    H            1.856128338354    -2.021188032118     0.368548353730

  Mulliken Charges: (a.u.)
   Center  Symbol    Alpha    Beta     Spin     Total
       1     H     0.44689  0.44689  0.00000  0.10623
       2     C     3.03227  3.03227  0.00000 -0.06454
       3     O     4.17885  4.17885  0.00000 -0.35770
       4     H     0.47027  0.47027  0.00000  0.05947
       5     H     0.47268  0.47268  0.00000  0.05463
       6     C     2.97553  2.97553  0.00000  0.04894
       7     C     3.08261  3.08261  0.00000 -0.16521
       8     H     0.44919  0.44919  0.00000  0.10161
       9     H     0.47411  0.47411  0.00000  0.05178
      10     C     3.15365  3.15365  0.00000 -0.30730
      11     H     0.45092  0.45092  0.00000  0.09817
      12     H     0.45674  0.45674  0.00000  0.08651
      13     H     0.45413  0.45413  0.00000  0.09174
      14     H     0.44669  0.44669  0.00000  0.10663
      15     H     0.45549  0.45549  0.00000  0.08903

   Total alpha = 21.00000, Total beta = 21.00000, Total charge =  0.00000

*** Psi4 exiting successfully. Buy a developer a beer!
