  ==> Input File <==

--------------------------------------------------------------------------
set {
	reference rhf
	basis 6-31G*
}

set_num_threads( 4 )
memory 2 gb

molecule MOL {
0 1

H	 -0.218089	 1.879899	 2.716071
C	 -0.831579	 0.970439	 2.704447
C	 -1.844825	 0.899427	 1.590490
O	 -0.672195	 0.131924	 3.531029
C	 -1.220012	 1.144545	 0.209990
H	 -2.339414	 -0.063774	 1.638809
H	 -2.591061	 1.668196	 1.787419
C	 -0.252658	 0.041456	 -0.226725
H	 -2.020149	 1.232076	 -0.518985
H	 -0.705779	 2.104398	 0.211469
C	 1.180775	 0.282413	 0.250794
H	 -0.266029	 -0.034465	 -1.312038
H	 -0.597733	 -0.921000	 0.146291
C	 2.148627	 -0.814315	 -0.201312
H	 1.516199	 1.249228	 -0.115937
H	 1.192670	 0.346017	 1.338083
C	 3.580890	 -0.659131	 0.322722
H	 2.166869	 -0.852443	 -1.289387
H	 1.762857	 -1.776509	 0.128956
C	 4.324889	 0.564933	 -0.213704
H	 4.142010	 -1.551473	 0.056605
H	 3.564836	 -0.624694	 1.410140
H	 4.342616	 0.565491	 -1.300421
H	 3.866655	 1.493402	 0.110242
H	 5.353900	 0.572371	 0.132816

	symmetry c1
}
set optking {
	frozen_dihedral = ("
		3 5 8 12
	")
}

ee = optimize('scf')
oeprop('DIPOLE', 'QUADRUPOLE', 'MULLIKEN_CHARGES')
f=open( 'psi4out.xyz', 'w' )
f.write( "25  " )
f.write( str(ee) + "\n" )
f.write( MOL.save_string_xyz() )
f.close()
--------------------------------------------------------------------------

    Molecular point group: c1
  Charge       = 0
  Multiplicity = 1
  Basis Set: 6-31G*
  Basis Set:
  @DF-RHF Final Energy:  -387.11762620364698
    Total Energy =                       -387.1176262036469780
    Molecular point group: c1
  Basis Set: 6-31G*
  Basis Set:
  Basis Set: 6-31G*
  Basis Set:
  @DF-RHF Final Energy:  -387.11726041228519
    Total Energy =                       -387.1172604122848497
  Basis Set: 6-31G*
  Basis Set:
  Basis Set: 6-31G*
  Basis Set:
  @DF-RHF Final Energy:  -387.11629096848270
    Total Energy =                       -387.1162909684826445
  Basis Set: 6-31G*
  Basis Set:
  Basis Set: 6-31G*
  Basis Set:
  @DF-RHF Final Energy:  -387.11847171745154
    Total Energy =                       -387.1184717174511434
  Basis Set: 6-31G*
  Basis Set:
  @DF-RHF Final Energy:  -387.11851197839019
    Total Energy =                       -387.1185119783900745
  @DF-RHF Final Energy:  -387.11853219920431
    Total Energy =                       -387.1185321992039690
  Basis Set: 6-31G*
  Basis Set:
  @DF-RHF Final Energy:  -387.11854660684497
    Total Energy =                       -387.1185466068448022
  Basis Set: 6-31G*
  Basis Set:
  Basis Set: 6-31G*
  Basis Set:
  @DF-RHF Final Energy:  -387.11854778300813
    Total Energy =                       -387.1185477830089212
  Basis Set: 6-31G*
  Basis Set:
  Basis Set: 6-31G*
  Basis Set:
  @DF-RHF Final Energy:  -387.11855062580452
    Total Energy =                       -387.1185506258054829
  Basis Set: 6-31G*
  Basis Set:
  Charge       = 0
  Multiplicity = 1
  Basis Set: 6-31G*
  Basis Set:

    Orbital Energies (a.u.)
    -----------------------

    Doubly Occupied:

       1A    -20.561643     2A    -11.326301     3A    -11.235636
       4A    -11.234976     5A    -11.223210     6A    -11.218287
       7A    -11.215769     8A    -11.215183     9A    -11.208937
      10A     -1.401748    11A     -1.101791    12A     -1.067293
      13A     -1.010703    14A     -0.943368    15A     -0.879202
      16A     -0.815101    17A     -0.788310    18A     -0.779358
      19A     -0.664543    20A     -0.652857    21A     -0.643416
      22A     -0.618522    23A     -0.612792    24A     -0.576260
      25A     -0.570273    26A     -0.561441    27A     -0.533009
      28A     -0.521653    29A     -0.509372    30A     -0.506285
      31A     -0.485033    32A     -0.472501    33A     -0.459057
      34A     -0.456648    35A     -0.442868    36A     -0.408495

  @DF-RHF Final Energy:  -387.11855053320687

   => Energetics <=

    Nuclear Repulsion Energy =            451.3659188034228009
    One-Electron Energy =               -1419.1252589408013591
    Two-Electron Energy =                 580.6407896041719141
    DFT Exchange-Correlation Energy =       0.0000000000000000
    Empirical Dispersion Energy =           0.0000000000000000
    PCM Polarization Energy =               0.0000000000000000
    EFP Energy =                            0.0000000000000000
    Total Energy =                       -387.1185505332066441
    Molecular point group: c1
  Basis Set: 6-31G*
  Basis Set:

  -Total Gradient:
     Atom            X                  Y                   Z
    ------   -----------------  -----------------  -----------------
       1        0.000003573862     0.000004008673    -0.000021009529
       2       -0.000025693418    -0.000006647070     0.000029318959
       3       -0.001172890289    -0.000780791722    -0.000625302804
       4        0.000004208216    -0.000015074892     0.000001854671
       5        0.001297309773     0.000759781727     0.000952757784
       6       -0.000000965892     0.000007517529    -0.000010824023
       7        0.000022794710     0.000006260107     0.000004295892
       8        0.001427193949     0.001500006406    -0.000380230162
       9        0.000010747501    -0.000000071732    -0.000041522755
      10        0.000003668267    -0.000012922315     0.000013615889
      11        0.000001072546    -0.000002252847    -0.000014861805
      12       -0.001541174576    -0.001465790071     0.000087733363
      13       -0.000006935279     0.000010847833     0.000018541850
      14        0.000007541705     0.000001632576    -0.000020125771
      15       -0.000000961004     0.000005118279     0.000006352149
      16       -0.000035101585     0.000001568491     0.000006594357
      17        0.000001804050    -0.000001978888    -0.000006910076
      18        0.000000451751    -0.000014210684    -0.000001460733
      19        0.000004639866     0.000001600139     0.000008270776
      20        0.000000315929     0.000004100850     0.000001408537
      21        0.000002567910     0.000000578638    -0.000005098299
      22       -0.000001463944    -0.000004796403    -0.000002524666
      23        0.000003396427    -0.000000790816    -0.000002372744
      24       -0.000005885708    -0.000001239190    -0.000000578677
      25       -0.000000214765     0.000003545384     0.000002077815

  **** Optimization is complete! (in 10 steps) ****
    Final optimized geometry and variables:
    Molecular point group: c1

    Geometry (in Angstrom), charge = 0, multiplicity = 1:

    H           -1.131257360731     1.727309164838     1.888627557750
    C           -1.657315849307     0.765491825564     1.855742448157
    C           -2.599748936234     0.593198878093     0.692781052354
    O           -1.474333319763    -0.045045517795     2.705793311841
    C           -1.947072400879     0.829045580323    -0.679835307613
    H           -3.040447581208    -0.395003805314     0.752779439222
    H           -3.397508538816     1.322743956729     0.828359743107
    C           -0.943547123177    -0.252648210715    -1.116358706577
    H           -2.750631765820     0.874814378462    -1.408056333952
    H           -1.472513404657     1.808303773529    -0.698888793328
    C            0.496097428001    -0.032749992538    -0.641922846002
    H           -0.952669288760    -0.314966694708    -2.201675487811
    H           -1.293149101447    -1.222006188510    -0.766920220693
    C            1.449134525571    -1.119459927864    -1.147598281708
    H            0.831743391448     0.943986625516    -0.981494965125
    H            0.533835887811    -0.013439932768     0.444708148253
    C            2.889214983668    -0.995137330427    -0.637240437362
    H            1.452893809192    -1.116532751702    -2.236640329372
    H            1.059612236922    -2.089737832588    -0.847360860869
    C            3.634912583854     0.245001700797    -1.133549265320
    H            3.440176013102    -1.879799426768    -0.946657299592
    H            2.886663852394    -1.004991530837     0.450546213560
    H            3.642217666467     0.287861407198    -2.219532081344
    H            3.185668120420     1.162933463838    -0.769050361424
    H            4.667145426870     0.233570834434    -0.797494962252

  Mulliken Charges: (a.u.)
   Center  Symbol    Alpha    Beta     Spin     Total
       1     H     0.43186  0.43186  0.00000  0.13629
       2     C     2.82896  2.82896  0.00000  0.34208
       3     C     3.20806  3.20806  0.00000 -0.41611
       4     O     4.24038  4.24038  0.00000 -0.48076
       5     C     3.16766  3.16766  0.00000 -0.33532
       6     H     0.39952  0.39952  0.00000  0.20096
       7     H     0.40769  0.40769  0.00000  0.18462
       8     C     3.15643  3.15643  0.00000 -0.31286
       9     H     0.41142  0.41142  0.00000  0.17717
      10     H     0.41852  0.41852  0.00000  0.16295
      11     C     3.16090  3.16090  0.00000 -0.32179
      12     H     0.41807  0.41807  0.00000  0.16385
      13     H     0.41685  0.41685  0.00000  0.16631
      14     C     3.15279  3.15279  0.00000 -0.30557
      15     H     0.42179  0.42179  0.00000  0.15643
      16     H     0.41745  0.41745  0.00000  0.16509
      17     C     3.15332  3.15332  0.00000 -0.30664
      18     H     0.42451  0.42451  0.00000  0.15099
      19     H     0.41968  0.41968  0.00000  0.16063
      20     C     3.24119  3.24119  0.00000 -0.48237
      21     H     0.42044  0.42044  0.00000  0.15912
      22     H     0.42032  0.42032  0.00000  0.15937
      23     H     0.42270  0.42270  0.00000  0.15459
      24     H     0.42099  0.42099  0.00000  0.15802
      25     H     0.41852  0.41852  0.00000  0.16295

   Total alpha = 36.00000, Total beta = 36.00000, Total charge =  0.00000
