                              Psi4 1.0.54 Driver

  ==> Input File <==

--------------------------------------------------------------------------
set {
	reference rhf
	basis cc-pvtz
}

set_num_threads( 4 )
memory 2 gb

molecule MOL {
0 1

H	 2.023377	 -5.042120	 -2.720749
C	 1.988191	 -4.124748	 -2.166399
C	 0.886834	 -3.818825	 -1.379471
C	 3.033167	 -3.232192	 -2.223357
H	 0.061720	 -4.503291	 -1.322663
C	 0.837600	 -2.644593	 -0.667587
H	 3.893747	 -3.451432	 -2.826701
C	 2.999773	 -2.041636	 -1.510706
H	 -0.008581	 -2.398743	 -0.056683
C	 1.897691	 -1.746255	 -0.729525
H	 3.829008	 -1.368183	 -1.576214
O	 1.760432	 -0.625184	 0.000000
C	 2.773565	 0.334879	 0.000000
H	 2.728295	 0.960928	 -0.884150
H	 3.706387	 -0.206610	 0.000000
H	 2.728295	 0.960928	 0.884150

	symmetry c1
}
set optking {
	frozen_dihedral = ("
		10 12 13 14
	")
}

ee,wfn = optimize('scf', return_wfn=True)
oeprop( wfn, 'DIPOLE', 'QUADRUPOLE', 'MULLIKEN_CHARGES')
f=open( 'psi4out.xyz', 'w' )
f.write( "16  " )
f.write( str(ee) + "\n" )
f.write( MOL.save_string_xyz() )
f.close()
--------------------------------------------------------------------------

    Molecular point group: c1
  Charge       = 0
  Multiplicity = 1
  Basis Set: CC-PVTZ
  Basis Set:
  @DF-RHF Final Energy:  -344.69959320855963
    Total Energy =                       -344.6995932085595769
    Molecular point group: c1
  Basis Set: CC-PVTZ
  Basis Set:
  Basis Set: CC-PVTZ
  Basis Set:
  @DF-RHF Final Energy:  -344.70147363700903
    Total Energy =                       -344.7014736370088599
  Basis Set: CC-PVTZ
  Basis Set:
  Basis Set: CC-PVTZ
  Basis Set:
  @DF-RHF Final Energy:  -344.70288764050861
    Total Energy =                       -344.7028876405084930
  Basis Set: CC-PVTZ
  Basis Set:
  Basis Set: CC-PVTZ
  Basis Set:
  @DF-RHF Final Energy:  -344.70295514160489
    Total Energy =                       -344.7029551416050595
  Basis Set: CC-PVTZ
  Basis Set:
  Basis Set: CC-PVTZ
  Basis Set:
  @DF-RHF Final Energy:  -344.70296399917930
    Total Energy =                       -344.7029639991790759
  Basis Set: CC-PVTZ
  Basis Set:
  Charge       = 0
  Multiplicity = 1
  Basis Set: CC-PVTZ
  Basis Set:

    Orbital Energies (a.u.)
    -----------------------

    Doubly Occupied:

       1A    -20.579442     2A    -11.293422     3A    -11.278264
       4A    -11.231268     5A    -11.229996     6A    -11.221883
       7A    -11.218031     8A    -11.217073     9A     -1.418717
      10A     -1.150957    11A     -1.025468    12A     -1.016702
      13A     -0.943943    14A     -0.834768    15A     -0.808298
      16A     -0.725592    17A     -0.667489    18A     -0.666529
      19A     -0.660257    20A     -0.618925    21A     -0.590368
      22A     -0.580042    23A     -0.528826    24A     -0.522489
      25A     -0.512125    26A     -0.480390    27A     -0.465205
      28A     -0.339688    29A     -0.310372

  @DF-RHF Final Energy:  -344.70296446378478

   => Energetics <=

    Nuclear Repulsion Energy =            348.8006521157242901
    One-Electron Energy =               -1158.7341787158031821
    Two-Electron Energy =                 465.2305621362937700
    DFT Exchange-Correlation Energy =       0.0000000000000000
    Empirical Dispersion Energy =           0.0000000000000000
    PCM Polarization Energy =               0.0000000000000000
    EFP Energy =                            0.0000000000000000
    Total Energy =                       -344.7029644637851789
    Molecular point group: c1
  Basis Set: CC-PVTZ
  Basis Set:

  -Total Gradient:
     Atom            X                  Y                   Z
    ------   -----------------  -----------------  -----------------
       1       -0.000008600180    -0.000011105345    -0.000000976663
       2        0.000124556229     0.000029985623    -0.000060252124
       3       -0.000055509942     0.000068094227     0.000064771629
       4       -0.000093194976    -0.000138833229    -0.000040688314
       5        0.000016585357    -0.000010066498    -0.000014916429
       6       -0.000078715448    -0.000099098323    -0.000072356370
       7       -0.000006029825    -0.000004582283     0.000006773996
       8       -0.000080045820     0.000085912517     0.000079085375
       9        0.000016129049     0.000016263755     0.000002416467
      10        0.001065698628    -0.000903453343     0.001719536400
      11       -0.000011165893    -0.000000640629     0.000001907310
      12       -0.001706591162     0.001812464360    -0.002176133117
      13        0.002356089790    -0.002321596823    -0.000623499823
      14       -0.001490341657     0.001483989325     0.001130941006
      15       -0.000046572205    -0.000002793645    -0.000011867480
      16       -0.000002291945    -0.000004539686    -0.000004741860

  **** Optimization is complete! (in 6 steps) ****
    Final optimized geometry and variables:
    Molecular point group: c1

    Geometry (in Angstrom), charge = 0, multiplicity = 1:

    H            0.086640202334    -2.897410296637    -1.666767819356
    C            0.017746429157    -1.978216112883    -1.118557854091
    C           -0.967863031898    -1.803570579154    -0.157986492507
    C            0.903032593231    -0.952528865831    -1.357927902012
    H           -1.667963979105    -2.592702545550     0.041152491951
    C           -1.058631018685    -0.628124678195     0.548917418660
    H            1.669063742368    -1.067397149501    -2.101341921092
    C            0.823209866755     0.241281946657    -0.655469277799
    H           -1.815521142431    -0.483436839158     1.294459184434
    C           -0.158261570812     0.402777059085     0.305158393466
    H            1.518063013567     1.026521557898    -0.872026143214
    O           -0.331991789232     1.522874185712     1.029578984890
    C            0.669349752194     2.496801837098     1.065400118364
    H            0.644255036491     3.121631810812     0.179224436262
    H            1.652584102589     2.058263977345     1.179567205986
    H            0.460130781366     3.117376277328     1.923465995264

  Mulliken Charges: (a.u.)
   Center  Symbol    Alpha    Beta     Spin     Total
       1     H     0.42440  0.42440  0.00000  0.15120
       2     C     3.10048  3.10048  0.00000 -0.20095
       3     C     3.05831  3.05831  0.00000 -0.11662
       4     C     3.06195  3.06195  0.00000 -0.12391
       5     H     0.42297  0.42297  0.00000  0.15406
       6     C     3.11077  3.11077  0.00000 -0.22155
       7     H     0.42342  0.42342  0.00000  0.15317
       8     C     3.14129  3.14129  0.00000 -0.28259
       9     H     0.42064  0.42064  0.00000  0.15871
      10     C     2.85238  2.85238  0.00000  0.29523
      11     H     0.42271  0.42271  0.00000  0.15457
      12     O     4.15286  4.15286  0.00000 -0.30573
      13     C     3.04413  3.04413  0.00000 -0.08825
      14     H     0.46017  0.46017  0.00000  0.07966
      15     H     0.46322  0.46322  0.00000  0.07356
      16     H     0.44029  0.44029  0.00000  0.11942

   Total alpha = 29.00000, Total beta = 29.00000, Total charge = -0.00000

*** Psi4 exiting successfully. Buy a developer a beer!
