  ==> Input File <==

--------------------------------------------------------------------------
set {
	reference rhf
	basis cc-pvtz
}

set_num_threads( 4 )
memory 2 gb

molecule MOL {
0 1

O	 0.074770	 1.259872	 0.000487
C	 0.029490	 0.077183	 0.000078
C	 -1.232113	 -0.748027	 0.000015
O	 1.106773	 -0.690081	 -0.000204
C	 -2.501422	 0.088592	 -0.000052
H	 -1.188777	 -1.400384	 -0.865133
H	 -1.188857	 -1.400312	 0.865225
H	 -2.548170	 0.725504	 -0.873205
H	 -3.371613	 -0.556398	 -0.000040
H	 -2.548215	 0.725571	 0.873047
C	 1.077396	 -1.850166	 0.806631
H	 0.936358	 -1.588892	 1.844936
H	 2.031951	 -2.331926	 0.670400
H	 0.279638	 -2.509200	 0.497597

	symmetry c1
}
set optking {
	frozen_dihedral = ("
		11 4 2 3
	")
}

ee = optimize('scf')
oeprop('DIPOLE', 'QUADRUPOLE', 'MULLIKEN_CHARGES')
f=open( 'psi4out.xyz', 'w' )
f.write( "14  " )
f.write( str(ee) + "\n" )
f.write( MOL.save_string_xyz() )
f.close()
--------------------------------------------------------------------------

    Molecular point group: c1
  Charge       = 0
  Multiplicity = 1
  Basis Set: CC-PVTZ
  Basis Set:
  @DF-RHF Final Energy:  -305.96321622980855
    Total Energy =                       -305.9632162298082108
    Molecular point group: c1
  Basis Set: CC-PVTZ
  Basis Set:
  Basis Set: CC-PVTZ
  Basis Set:
  @DF-RHF Final Energy:  -305.96484872029407
    Total Energy =                       -305.9648487202940714
  Basis Set: CC-PVTZ
  Basis Set:
  Basis Set: CC-PVTZ
  Basis Set:
  @DF-RHF Final Energy:  -305.96979115873660
    Total Energy =                       -305.9697911587364842
  Basis Set: CC-PVTZ
  Basis Set:
  Basis Set: CC-PVTZ
  Basis Set:
  @DF-RHF Final Energy:  -305.97080622946885
    Total Energy =                       -305.9708062294689626
  Basis Set: CC-PVTZ
  Basis Set:
  @DF-RHF Final Energy:  -305.97081924223079
    Total Energy =                       -305.9708192422310731
  Basis Set: CC-PVTZ
  Basis Set:
  @DF-RHF Final Energy:  -305.97096197414430
    Total Energy =                       -305.9709619741444158
  Basis Set: CC-PVTZ
  Basis Set:
  Basis Set: CC-PVTZ
  Basis Set:
  @DF-RHF Final Energy:  -305.97099629412037
    Total Energy =                       -305.9709962941206527
  Basis Set: CC-PVTZ
  Basis Set:
  Basis Set: CC-PVTZ
  Basis Set:
  @DF-RHF Final Energy:  -305.97099915723464
    Total Energy =                       -305.9709991572347576
  Basis Set: CC-PVTZ
  Basis Set:
  Charge       = 0
  Multiplicity = 1
  Basis Set: CC-PVTZ
  Basis Set:

    Orbital Energies (a.u.)
    -----------------------

    Doubly Occupied:

       1A    -20.590143     2A    -20.535186     3A    -11.367183
       4A    -11.293472     5A    -11.245684     6A    -11.218978
       7A     -1.465005     8A     -1.370241     9A     -1.063821
      10A     -0.984151    11A     -0.899253    12A     -0.769065
      13A     -0.705763    14A     -0.686662    15A     -0.676411
      16A     -0.628110    17A     -0.610235    18A     -0.560819
      19A     -0.550376    20A     -0.526501    21A     -0.513495
      22A     -0.498149    23A     -0.456503    24A     -0.437548

  @DF-RHF Final Energy:  -305.97099947037725

   => Energetics <=

    Nuclear Repulsion Energy =            247.7848921089165799
    One-Electron Energy =                -908.2062768283118430
    Two-Electron Energy =                 354.4503852490182112
    DFT Exchange-Correlation Energy =       0.0000000000000000
    Empirical Dispersion Energy =           0.0000000000000000
    PCM Polarization Energy =               0.0000000000000000
    EFP Energy =                            0.0000000000000000
    Total Energy =                       -305.9709994703770803
    Molecular point group: c1
  Basis Set: CC-PVTZ
  Basis Set:

  -Total Gradient:
     Atom            X                  Y                   Z
    ------   -----------------  -----------------  -----------------
       1        0.000010392653     0.000003749459    -0.000005603320
       2        0.000717477236     0.000720115459     0.005505439678
       3       -0.000085373163     0.000111673986    -0.002695273370
       4       -0.001821221882    -0.002436082250    -0.005205164679
       5        0.000013094969    -0.000011783556    -0.000022298002
       6        0.000020977891    -0.000001927206    -0.000027102801
       7       -0.000013202691     0.000001744897    -0.000039601510
       8        0.000001274792    -0.000003974566     0.000006297046
       9        0.000002090145    -0.000000381630     0.000004759200
      10       -0.000005185253     0.000007936745     0.000010262023
      11        0.001148588304     0.001606097219     0.002480548244
      12        0.000006523393    -0.000015234215     0.000002387449
      13       -0.000000642085     0.000010085494    -0.000007141218
      14        0.000005205692     0.000007980164    -0.000007508742

  **** Optimization is complete! (in 9 steps) ****
    Final optimized geometry and variables:
    Molecular point group: c1

    Geometry (in Angstrom), charge = 0, multiplicity = 1:

    O            0.287574217423     1.536354159550    -0.133425808976
    C            0.218636564357     0.362159872631    -0.083100534641
    C           -1.088501814923    -0.400713544196    -0.085966349170
    O            1.339088476888    -0.366994428514    -0.125239567394
    C           -2.302496600055     0.505217958993    -0.221868691615
    H           -1.041546023436    -1.115672454935    -0.900978822335
    H           -1.156298156423    -0.986713639589     0.824361465398
    H           -2.260893005978     1.074488663181    -1.140163775709
    H           -3.208918013623    -0.087938445568    -0.224980207550
    H           -2.354847976650     1.208520806265     0.597739546751
    C            1.462926274715    -1.561561842815     0.606642716836
    H            1.242413665084    -1.402497596359     1.654914752333
    H            2.491843806709    -1.867074689350     0.509065120245
    H            0.825884853696    -2.344942540431     0.216861174090

  Mulliken Charges: (a.u.)
   Center  Symbol    Alpha    Beta     Spin     Total
       1     O     4.17335  4.17335  0.00000 -0.34671
       2     C     2.80535  2.80535  0.00000  0.38930
       3     C     3.11952  3.11952  0.00000 -0.23903
       4     O     4.13822  4.13822  0.00000 -0.27644
       5     C     3.13916  3.13916  0.00000 -0.27831
       6     H     0.43750  0.43750  0.00000  0.12500
       7     H     0.44463  0.44463  0.00000  0.11073
       8     H     0.44542  0.44542  0.00000  0.10916
       9     H     0.45129  0.45129  0.00000  0.09742
      10     H     0.44629  0.44629  0.00000  0.10742
      11     C     3.04601  3.04601  0.00000 -0.09201
      12     H     0.45787  0.45787  0.00000  0.08425
      13     H     0.43489  0.43489  0.00000  0.13021
      14     H     0.46049  0.46049  0.00000  0.07902

   Total alpha = 24.00000, Total beta = 24.00000, Total charge = -0.00000
