  ==> Input File <==

--------------------------------------------------------------------------
set {
	reference rhf
	basis 6-31G*
}

set_num_threads( 4 )
memory 2 gb

molecule MOL {
0 1

O	 -2.042549	 -1.228399	 -0.269030
C	 -1.653912	 -0.146171	 0.050137
C	 -0.332303	 0.024011	 0.778412
C	 -2.438579	 1.106236	 -0.272369
C	 0.845713	 -0.001731	 -0.208243
H	 -0.323783	 0.953829	 1.340327
H	 -0.235459	 -0.796807	 1.480410
C	 2.200309	 0.136118	 0.488247
H	 0.733710	 0.800019	 -0.936072
H	 0.811185	 -0.933796	 -0.764304
C	 3.005517	 1.332787	 -0.016559
H	 2.047400	 0.229325	 1.561260
H	 2.774037	 -0.775424	 0.338263
H	 2.471799	 2.264042	 0.150658
H	 3.202175	 1.251221	 -1.081508
H	 3.961591	 1.403818	 0.492268
H	 -3.277823	 0.863061	 -0.908988
H	 -1.806773	 1.843019	 -0.759671
H	 -2.802853	 1.554979	 0.648059

	symmetry c1
}
set optking {
	frozen_dihedral = ("
		11 8 5 9
	")
}

ee = optimize('scf')
oeprop('DIPOLE', 'QUADRUPOLE', 'MULLIKEN_CHARGES')
f=open( 'psi4out.xyz', 'w' )
f.write( "19  " )
f.write( str(ee) + "\n" )
f.write( MOL.save_string_xyz() )
f.close()
--------------------------------------------------------------------------

    Molecular point group: c1
  Charge       = 0
  Multiplicity = 1
  Basis Set: 6-31G*
  Basis Set:
  @DF-RHF Final Energy:  -309.05912256262536
    Total Energy =                       -309.0591225626253618
    Molecular point group: c1
  Basis Set: 6-31G*
  Basis Set:
  Basis Set: 6-31G*
  Basis Set:
  @DF-RHF Final Energy:  -309.05935391904654
    Total Energy =                       -309.0593539190463730
  Basis Set: 6-31G*
  Basis Set:
  Basis Set: 6-31G*
  Basis Set:
  @DF-RHF Final Energy:  -309.05932361712786
    Total Energy =                       -309.0593236171279727
  Basis Set: 6-31G*
  Basis Set:
  Basis Set: 6-31G*
  Basis Set:
  @DF-RHF Final Energy:  -309.05942036191317
    Total Energy =                       -309.0594203619129985
  Basis Set: 6-31G*
  Basis Set:
  Basis Set: 6-31G*
  Basis Set:
  @DF-RHF Final Energy:  -309.05943042450610
    Total Energy =                       -309.0594304245061039
  Basis Set: 6-31G*
  Basis Set:
  Basis Set: 6-31G*
  Basis Set:
  @DF-RHF Final Energy:  -309.05944232519948
    Total Energy =                       -309.0594423251994272
  Basis Set: 6-31G*
  Basis Set:
  Charge       = 0
  Multiplicity = 1
  Basis Set: 6-31G*
  Basis Set:

    Orbital Energies (a.u.)
    -----------------------

    Doubly Occupied:

       1A    -20.547659     2A    -11.324440     3A    -11.230310
       4A    -11.229705     5A    -11.228312     6A    -11.224551
       7A    -11.216426     8A     -1.393347     9A     -1.089059
      10A     -1.028635    11A     -0.983993    12A     -0.890672
      13A     -0.806934    14A     -0.734776    15A     -0.660758
      16A     -0.643576    17A     -0.619713    18A     -0.612109
      19A     -0.591339    20A     -0.570096    21A     -0.555954
      22A     -0.532692    23A     -0.516536    24A     -0.501676
      25A     -0.482552    26A     -0.468887    27A     -0.466415
      28A     -0.396615

  @DF-RHF Final Energy:  -309.05944214419583

   => Energetics <=

    Nuclear Repulsion Energy =            301.8416182005021255
    One-Electron Energy =               -1016.7066447248873828
    Two-Electron Energy =                 405.8055843801892024
    DFT Exchange-Correlation Energy =       0.0000000000000000
    Empirical Dispersion Energy =           0.0000000000000000
    PCM Polarization Energy =               0.0000000000000000
    EFP Energy =                            0.0000000000000000
    Total Energy =                       -309.0594421441960549
    Molecular point group: c1
  Basis Set: 6-31G*
  Basis Set:

  -Total Gradient:
     Atom            X                  Y                   Z
    ------   -----------------  -----------------  -----------------
       1        0.000037207903     0.000127551298     0.000047289051
       2       -0.000068239087    -0.000077725456    -0.000062547654
       3        0.000026607152     0.000004662758    -0.000033434336
       4       -0.000004400975    -0.000009843860    -0.000027605934
       5       -0.000274235183     0.000550338091     0.000731690245
       6        0.000016136863    -0.000020690607    -0.000032505078
       7        0.000040861260     0.000011405689    -0.000026297834
       8        0.000137504398    -0.000376207187    -0.000620048203
       9        0.000222603019    -0.000321766553    -0.000349689797
      10       -0.000000464870    -0.000046504095     0.000002664088
      11       -0.000186081825     0.000200285212     0.000367358092
      12        0.000020283887     0.000048051476    -0.000008822571
      13        0.000026841845    -0.000013909820    -0.000043009408
      14       -0.000004197174    -0.000047433811    -0.000002322511
      15       -0.000021033729    -0.000039916463     0.000037494082
      16        0.000026781466     0.000037438562    -0.000008486790
      17        0.000018887357     0.000008079523     0.000015956511
      18       -0.000019391348    -0.000029368797     0.000020253759
      19        0.000004329052    -0.000004445959    -0.000007935713

  **** Optimization is complete! (in 7 steps) ****
    Final optimized geometry and variables:
    Molecular point group: c1

    Geometry (in Angstrom), charge = 0, multiplicity = 1:

    O           -1.992804599334    -1.413098257846    -0.346424369353
    C           -1.605371580290    -0.331853384679    -0.022492486845
    C           -0.284284077086    -0.163869695745     0.707114248195
    C           -2.391045033444     0.921130774521    -0.340159520495
    C            0.895802735947    -0.188984276308    -0.277914761242
    H           -0.273962967278     0.765636317396     1.269853197958
    H           -0.187269091819    -0.985286965035     1.408337570199
    C            2.267869685443    -0.043659479697     0.418344292464
    H            0.771803239205     0.606091076709    -1.009618243404
    H            0.850924184553    -1.118801951872    -0.834078785079
    C            3.080416301397     1.149378821831    -0.085329758656
    H            2.125933164983     0.058038403645     1.490967063164
    H            2.845285411518    -0.952547043247     0.280018031095
    H            2.546179871306     2.081755483714     0.075891408857
    H            3.282412082733     1.064681879960    -1.149168259674
    H            4.034019672248     1.220620254965     0.428424993304
    H           -3.228998000556     0.680065180558    -0.979224168182
    H           -1.759446505138     1.661091409653    -0.822795857746
    H           -2.757350863915     1.364886854250     0.581882742781

  Mulliken Charges: (a.u.)
   Center  Symbol    Alpha    Beta     Spin     Total
       1     O     4.26203  4.26203  0.00000 -0.52407
       2     C     2.73780  2.73780  0.00000  0.52439
       3     C     3.20190  3.20190  0.00000 -0.40380
       4     C     3.28957  3.28957  0.00000 -0.57913
       5     C     3.16563  3.16563  0.00000 -0.33126
       6     H     0.41683  0.41683  0.00000  0.16634
       7     H     0.40048  0.40048  0.00000  0.19904
       8     C     3.15498  3.15498  0.00000 -0.30995
       9     H     0.41831  0.41831  0.00000  0.16337
      10     H     0.40354  0.40354  0.00000  0.19293
      11     C     3.24083  3.24083  0.00000 -0.48166
      12     H     0.41875  0.41875  0.00000  0.16250
      13     H     0.41540  0.41540  0.00000  0.16920
      14     H     0.42264  0.42264  0.00000  0.15471
      15     H     0.41956  0.41956  0.00000  0.16087
      16     H     0.41818  0.41818  0.00000  0.16364
      17     H     0.39698  0.39698  0.00000  0.20603
      18     H     0.40983  0.40983  0.00000  0.18035
      19     H     0.40675  0.40675  0.00000  0.18649

   Total alpha = 28.00000, Total beta = 28.00000, Total charge = -0.00000
