  ==> Input File <==

--------------------------------------------------------------------------
set {
	reference rhf
	basis 6-31G*
}

set_num_threads( 4 )
memory 2 gb

molecule MOL {
0 1

H	 2.591676	 2.013956	 0.335017
O	 3.341076	 1.666752	 -0.126416
C	 3.569581	 0.339145	 0.272707
C	 2.539767	 -0.640285	 -0.279495
H	 4.553106	 0.084646	 -0.100901
H	 3.608576	 0.269204	 1.359154
C	 1.115811	 -0.397273	 0.226630
H	 2.556196	 -0.582511	 -1.364741
H	 2.852081	 -1.648031	 -0.010655
C	 0.301634	 -1.688808	 0.344407
H	 0.610312	 0.290247	 -0.445791
H	 1.156064	 0.089657	 1.201114
C	 -1.104950	 -1.512325	 0.928116
H	 0.228391	 -2.156459	 -0.635790
H	 0.849941	 -2.387462	 0.972851
C	 -2.069643	 -0.707568	 0.052781
H	 -1.531130	 -2.499079	 1.096944
H	 -1.031094	 -1.043911	 1.908407
C	 -3.487014	 -0.648539	 0.626377
H	 -2.104030	 -1.148338	 -0.942533
H	 -1.700507	 0.307064	 -0.075921
C	 -4.450450	 0.159570	 -0.242194
H	 -3.869903	 -1.659948	 0.744426
H	 -3.453438	 -0.217325	 1.624782
H	 -4.531112	 -0.265999	 -1.238492
H	 -5.446306	 0.181062	 0.189596
H	 -4.114535	 1.187216	 -0.349281

	symmetry c1
}
set optking {
	frozen_dihedral = ("
		10 7 4 8
	")
}

ee = optimize('scf')
oeprop('DIPOLE', 'QUADRUPOLE', 'MULLIKEN_CHARGES')
f=open( 'psi4out.xyz', 'w' )
f.write( "27  " )
f.write( str(ee) + "\n" )
f.write( MOL.save_string_xyz() )
f.close()
--------------------------------------------------------------------------

    Molecular point group: c1
  Charge       = 0
  Multiplicity = 1
  Basis Set: 6-31G*
  Basis Set:
  @DF-RHF Final Energy:  -388.27897878668847
    Total Energy =                       -388.2789787866886400
    Molecular point group: c1
  Basis Set: 6-31G*
  Basis Set:
  Basis Set: 6-31G*
  Basis Set:
  @DF-RHF Final Energy:  -388.27928951697987
    Total Energy =                       -388.2792895169798157
  Basis Set: 6-31G*
  Basis Set:
  Basis Set: 6-31G*
  Basis Set:
  @DF-RHF Final Energy:  -388.27931333021161
    Total Energy =                       -388.2793133302118349
  Basis Set: 6-31G*
  Basis Set:
  Basis Set: 6-31G*
  Basis Set:
  @DF-RHF Final Energy:  -388.27937247427394
    Total Energy =                       -388.2793724742736003
  Basis Set: 6-31G*
  Basis Set:
  Basis Set: 6-31G*
  Basis Set:
  @DF-RHF Final Energy:  -388.27937633728192
    Total Energy =                       -388.2793763372824287
  Basis Set: 6-31G*
  Basis Set:
  Basis Set: 6-31G*
  Basis Set:
  @DF-RHF Final Energy:  -388.27937911996372
    Total Energy =                       -388.2793791199630959
  Basis Set: 6-31G*
  Basis Set:
  Charge       = 0
  Multiplicity = 1
  Basis Set: 6-31G*
  Basis Set:

    Orbital Energies (a.u.)
    -----------------------

    Doubly Occupied:

       1A    -20.551802     2A    -11.266459     3A    -11.220851
       4A    -11.218510     5A    -11.216426     6A    -11.216298
       7A    -11.215460     8A    -11.214683     9A    -11.209543
      10A     -1.358689    11A     -1.095387    12A     -1.061263
      13A     -1.011607    14A     -0.948655    15A     -0.888225
      16A     -0.821151    17A     -0.801445    18A     -0.779331
      19A     -0.694865    20A     -0.648925    21A     -0.632756
      22A     -0.618891    23A     -0.604121    24A     -0.584225
      25A     -0.577255    26A     -0.553780    27A     -0.542675
      28A     -0.528038    29A     -0.507268    30A     -0.496230
      31A     -0.486362    32A     -0.475313    33A     -0.469222
      34A     -0.461548    35A     -0.449182    36A     -0.441512
      37A     -0.423319

  @DF-RHF Final Energy:  -388.27937932111371

   => Energetics <=

    Nuclear Repulsion Energy =            459.0201124652823523
    One-Electron Energy =               -1436.0164365712978451
    Two-Electron Energy =                 588.7169447849017843
    DFT Exchange-Correlation Energy =       0.0000000000000000
    Empirical Dispersion Energy =           0.0000000000000000
    PCM Polarization Energy =               0.0000000000000000
    EFP Energy =                            0.0000000000000000
    Total Energy =                       -388.2793793211136517
    Molecular point group: c1
  Basis Set: 6-31G*
  Basis Set:

  -Total Gradient:
     Atom            X                  Y                   Z
    ------   -----------------  -----------------  -----------------
       1        0.000002911591     0.000017644171    -0.000001320876
       2       -0.000029859209     0.000005664169     0.000036688329
       3        0.000044055959    -0.000009215863    -0.000045602931
       4       -0.000626952214    -0.004902756229     0.000611852520
       5        0.000011711146    -0.000021175899     0.000007208365
       6       -0.000017013252     0.000007521952    -0.000011753023
       7       -0.001135663290     0.001512194523    -0.003548358956
       8        0.000790164107     0.003851311473     0.000365424293
       9       -0.000009087261    -0.000005013340    -0.000008112245
      10        0.000967266605    -0.000439189945     0.002618124420
      11       -0.000019044971    -0.000024894932    -0.000022017003
      12        0.000037028915     0.000017136987    -0.000008682178
      13        0.000008973879     0.000012641548    -0.000005980483
      14        0.000001636269    -0.000003106956     0.000004636647
      15       -0.000027243575    -0.000002831309     0.000017970304
      16       -0.000009591153    -0.000001251196    -0.000000301690
      17        0.000010014391    -0.000006465283     0.000001099429
      18        0.000005246098     0.000004761780    -0.000008223005
      19        0.000000122396    -0.000004412370    -0.000003962547
      20        0.000002467414    -0.000006492363    -0.000003395899
      21       -0.000006510233    -0.000004173198     0.000003345401
      22        0.000001125180     0.000001376670     0.000001455037
      23       -0.000006307808     0.000001980555    -0.000003861323
      24        0.000003589032    -0.000004713674     0.000002463313
      25        0.000000496719     0.000000331131     0.000000755313
      26        0.000000725914     0.000001267736     0.000000636962
      27       -0.000000262656     0.000001859858    -0.000000088175

  **** Optimization is complete! (in 7 steps) ****
    Final optimized geometry and variables:
    Molecular point group: c1

    Geometry (in Angstrom), charge = 0, multiplicity = 1:

    H            2.505443201048     2.295839375222     0.164628174782
    O            3.277262119958     2.008687727027    -0.302285073531
    C            3.568172005055     0.678533496256     0.043600039342
    C            2.534942523444    -0.308906205533    -0.488308514405
    H            4.538945569263     0.467672421514    -0.386368924551
    H            3.662165541832     0.577549120037     1.124305885117
    C            1.123417773420    -0.073669887463     0.075571663375
    H            2.519646818431    -0.204731857676    -1.569420511496
    H            2.871595053940    -1.316415319997    -0.255292073312
    C            0.291814829036    -1.356802990625     0.167210952145
    H            0.612655460833     0.669515781345    -0.527906510220
    H            1.199005873309     0.344822744691     1.080589166726
    C           -1.117434331103    -1.171375384253     0.741018087663
    H            0.221372211419    -1.814541539402    -0.818418811790
    H            0.829693260370    -2.066188923913     0.791994650033
    C           -2.076458373986    -0.376974916917    -0.149925861154
    H           -1.546011566671    -2.155302305259     0.919866169143
    H           -1.048371411495    -0.691000751160     1.716010296149
    C           -3.494295619585    -0.299899301526     0.420420887736
    H           -2.111904926929    -0.836071335182    -1.136848547483
    H           -1.701820300887     0.633019209947    -0.297138739164
    C           -4.452362286867     0.496222043741    -0.464977835391
    H           -3.882493591451    -1.306910940344     0.557351301739
    H           -3.459957325909     0.150308479631     1.410381979428
    H           -4.534008263001     0.051780161409    -1.452911829002
    H           -5.448615069984     0.531197644180    -0.035018278309
    H           -4.110912327561     1.519793327002    -0.591525236499

  Mulliken Charges: (a.u.)
   Center  Symbol    Alpha    Beta     Spin     Total
       1     H     0.27950  0.27950  0.00000  0.44101
       2     O     4.37160  4.37160  0.00000 -0.74321
       3     C     2.99856  2.99856  0.00000  0.00289
       4     C     3.16165  3.16165  0.00000 -0.32331
       5     H     0.41519  0.41519  0.00000  0.16961
       6     H     0.43208  0.43208  0.00000  0.13584
       7     C     3.16695  3.16695  0.00000 -0.33390
       8     H     0.41354  0.41354  0.00000  0.17291
       9     H     0.42216  0.42216  0.00000  0.15568
      10     C     3.15333  3.15333  0.00000 -0.30666
      11     H     0.41509  0.41509  0.00000  0.16982
      12     H     0.42891  0.42891  0.00000  0.14218
      13     C     3.15411  3.15411  0.00000 -0.30823
      14     H     0.42180  0.42180  0.00000  0.15640
      15     H     0.42129  0.42129  0.00000  0.15741
      16     C     3.15235  3.15235  0.00000 -0.30470
      17     H     0.42107  0.42107  0.00000  0.15785
      18     H     0.42451  0.42451  0.00000  0.15099
      19     C     3.15123  3.15123  0.00000 -0.30246
      20     H     0.42368  0.42368  0.00000  0.15263
      21     H     0.42327  0.42327  0.00000  0.15347
      22     C     3.23922  3.23922  0.00000 -0.47844
      23     H     0.42290  0.42290  0.00000  0.15420
      24     H     0.42332  0.42332  0.00000  0.15337
      25     H     0.42151  0.42151  0.00000  0.15697
      26     H     0.41919  0.41919  0.00000  0.16162
      27     H     0.42197  0.42197  0.00000  0.15605

   Total alpha = 37.00000, Total beta = 37.00000, Total charge = -0.00000
