                              Psi4 1.0.54 Driver

  ==> Input File <==

--------------------------------------------------------------------------
set {
	reference rhf
	basis cc-pvtz
}

set_num_threads( 4 )
memory 2 gb

molecule MOL {
0 1

H	 -0.000105	 1.988529	 0.748933
O	 -0.000098	 1.879786	 -0.188206
C	 -0.000014	 0.545691	 -0.532416
C	 -1.286000	 -0.125171	 -0.046657
C	 1.286016	 -0.125031	 -0.046584
H	 0.000021	 0.481103	 -1.610604
F	 -1.555192	 0.283354	 1.168868
F	 -2.314143	 0.162331	 -0.804269
F	 -1.158198	 -1.434214	 -0.008615
F	 2.317750	 0.468717	 -0.594166
F	 1.336617	 -1.393765	 -0.365123
F	 1.414467	 -0.024806	 1.259108

	symmetry c1
}
set optking {
	frozen_dihedral = ("
		7 4 3 6
	")
}

ee,wfn = optimize('scf', return_wfn=True)
oeprop( wfn, 'DIPOLE', 'QUADRUPOLE', 'MULLIKEN_CHARGES')
f=open( 'psi4out.xyz', 'w' )
f.write( "12  " )
f.write( str(ee) + "\n" )
f.write( MOL.save_string_xyz() )
f.close()
--------------------------------------------------------------------------

    Molecular point group: c1
  Charge       = 0
  Multiplicity = 1
  Basis Set: CC-PVTZ
  Basis Set:
  @DF-RHF Final Energy:  -786.58723121577555
    Total Energy =                       -786.5872312157760007
    Molecular point group: c1
  Basis Set: CC-PVTZ
  Basis Set:
  Basis Set: CC-PVTZ
  Basis Set:
  @DF-RHF Final Energy:  -786.58830881064023
    Total Energy =                       -786.5883088106395462
  Basis Set: CC-PVTZ
  Basis Set:
  Basis Set: CC-PVTZ
  Basis Set:
  @DF-RHF Final Energy:  -786.58866605989749
    Total Energy =                       -786.5886660598971503
  Basis Set: CC-PVTZ
  Basis Set:
  Basis Set: CC-PVTZ
  Basis Set:
  @DF-RHF Final Energy:  -786.58873901115430
    Total Energy =                       -786.5887390111548712
  Basis Set: CC-PVTZ
  Basis Set:
  Basis Set: CC-PVTZ
  Basis Set:
  @DF-RHF Final Energy:  -786.58874654492979
    Total Energy =                       -786.5887465449295632
  Basis Set: CC-PVTZ
  Basis Set:
  Basis Set: CC-PVTZ
  Basis Set:
  @DF-RHF Final Energy:  -786.58874926308249
    Total Energy =                       -786.5887492630829456
  Basis Set: CC-PVTZ
  Basis Set:
  Charge       = 0
  Multiplicity = 1
  Basis Set: CC-PVTZ
  Basis Set:

    Orbital Energies (a.u.)
    -----------------------

    Doubly Occupied:

       1A    -26.359559     2A    -26.359268     3A    -26.358071
       4A    -26.356044     5A    -26.354243     6A    -26.353283
       7A    -20.609012     8A    -11.521307     9A    -11.518759
      10A    -11.351456    11A     -1.772430    12A     -1.766462
      13A     -1.668372    14A     -1.663878    15A     -1.662974
      16A     -1.660822    17A     -1.438997    18A     -1.102570
      19A     -1.002017    20A     -0.945029    21A     -0.871853
      22A     -0.868648    23A     -0.859389    24A     -0.852913
      25A     -0.840421    26A     -0.822692    27A     -0.747852
      28A     -0.734681    29A     -0.732160    30A     -0.727371
      31A     -0.695688    32A     -0.692377    33A     -0.689525
      34A     -0.682233    35A     -0.677782    36A     -0.668176
      37A     -0.664759    38A     -0.656141    39A     -0.625079
      40A     -0.554572    41A     -0.509767

  @DF-RHF Final Energy:  -786.58874950665404

   => Energetics <=

    Nuclear Repulsion Energy =            670.8334225823612087
    One-Electron Energy =               -2428.8470830080195810
    Two-Electron Energy =                 971.4249109190041054
    DFT Exchange-Correlation Energy =       0.0000000000000000
    Empirical Dispersion Energy =           0.0000000000000000
    PCM Polarization Energy =               0.0000000000000000
    EFP Energy =                            0.0000000000000000
    Total Energy =                       -786.5887495066542670
    Molecular point group: c1
  Basis Set: CC-PVTZ
  Basis Set:

  -Total Gradient:
     Atom            X                  Y                   Z
    ------   -----------------  -----------------  -----------------
       1       -0.000001053356     0.000011227905     0.000009216953
       2        0.000006869280    -0.000029220542     0.000004495082
       3        0.001267373706    -0.002537285398    -0.000093949598
       4        0.001544949845    -0.001929807281     0.001213315567
       5        0.000034060659    -0.000010999070    -0.000020326500
       6       -0.001405149324     0.002581276109    -0.000200029203
       7       -0.001355976557     0.001831044602    -0.000892718979
       8       -0.000044071544     0.000000734431    -0.000056939586
       9       -0.000003006684     0.000092107891     0.000005503262
      10       -0.000036501359     0.000011838623     0.000002540436
      11       -0.000001460370    -0.000037363787    -0.000022468373
      12       -0.000006034288     0.000016446527     0.000051360945

  **** Optimization is complete! (in 7 steps) ****
    Final optimized geometry and variables:
    Molecular point group: c1

    Geometry (in Angstrom), charge = 0, multiplicity = 1:

    H           -0.065376098865     2.021457001384     0.665426053430
    O           -0.018133279569     1.874222647885    -0.264921801665
    C           -0.007348664945     0.527010343830    -0.556392960546
    C           -1.281162047586    -0.133798152065    -0.014590310585
    C            1.287962361476    -0.121540436591    -0.069188318582
    H           -0.034778271437     0.438439384733    -1.631990261674
    F           -1.544698457608     0.285526220547     1.204498801612
    F           -2.298930825903     0.201745743358    -0.771522911617
    F           -1.210618372030    -1.439540923499     0.009284592194
    F            2.314954412783     0.550584540208    -0.524468436475
    F            1.402558085069    -1.358153867801    -0.484713883980
    F            1.357661050665    -0.120174313144     1.245588783440

  Mulliken Charges: (a.u.)
   Center  Symbol    Alpha    Beta     Spin     Total
       1     H     0.38078  0.38078  0.00000  0.23843
       2     O     4.18974  4.18974  0.00000 -0.37947
       3     C     3.00962  3.00962  0.00000 -0.01924
       4     C     2.68098  2.68098  0.00000  0.63805
       5     C     2.68372  2.68372  0.00000  0.63256
       6     H     0.42454  0.42454  0.00000  0.15091
       7     F     4.61102  4.61102  0.00000 -0.22203
       8     F     4.60363  4.60363  0.00000 -0.20727
       9     F     4.60062  4.60062  0.00000 -0.20125
      10     F     4.60099  4.60099  0.00000 -0.20198
      11     F     4.60360  4.60360  0.00000 -0.20720
      12     F     4.61076  4.61076  0.00000 -0.22152

   Total alpha = 41.00000, Total beta = 41.00000, Total charge = -0.00000

*** Psi4 exiting successfully. Buy a developer a beer!
