  ==> Input File <==

--------------------------------------------------------------------------
set {
	reference rhf
	basis 6-31G*
}

set_num_threads( 4 )
memory 2 gb

molecule MOL {
0 1

O	 0.749854	 1.307668	 -0.000040
C	 0.576249	 0.131685	 -0.000108
C	 -0.766779	 -0.556801	 -0.000461
O	 1.568443	 -0.749345	 -0.000005
C	 -1.945214	 0.412366	 0.000161
H	 -0.796911	 -1.211249	 -0.867467
H	 -0.796854	 -1.212390	 0.865687
C	 -3.287791	 -0.317055	 0.000105
H	 -1.876087	 1.060580	 -0.866812
H	 -1.875822	 1.059691	 0.867761
H	 -3.394745	 -0.949193	 -0.877058
H	 -4.111778	 0.388953	 0.000015
H	 -3.394954	 -0.949187	 0.877259
C	 2.774661	 -0.358923	 -0.630733
H	 2.604343	 -0.142665	 -1.675609
H	 3.446423	 -1.196668	 -0.526886
H	 3.189204	 0.515447	 -0.149962

	symmetry c1
}
set optking {
	frozen_dihedral = ("
		14 4 2 1
	")
}

ee = optimize('scf')
oeprop('DIPOLE', 'QUADRUPOLE', 'MULLIKEN_CHARGES')
f=open( 'psi4out.xyz', 'w' )
f.write( "17  " )
f.write( str(ee) + "\n" )
f.write( MOL.save_string_xyz() )
f.close()
--------------------------------------------------------------------------

    Molecular point group: c1
  Charge       = 0
  Multiplicity = 1
  Basis Set: 6-31G*
  Basis Set:
  @DF-RHF Final Energy:  -344.90159974270682
    Total Energy =                       -344.9015997427069351
    Molecular point group: c1
  Basis Set: 6-31G*
  Basis Set:
  Basis Set: 6-31G*
  Basis Set:
  @DF-RHF Final Energy:  -344.89825644973916
    Total Energy =                       -344.8982564497391650
  Basis Set: 6-31G*
  Basis Set:
  Basis Set: 6-31G*
  Basis Set:
  @DF-RHF Final Energy:  -344.90202781210218
    Total Energy =                       -344.9020278121020624
  Basis Set: 6-31G*
  Basis Set:
  Basis Set: 6-31G*
  Basis Set:
  @DF-RHF Final Energy:  -344.90209562399184
    Total Energy =                       -344.9020956239914426
  Basis Set: 6-31G*
  Basis Set:
  @DF-RHF Final Energy:  -344.90210621381533
    Total Energy =                       -344.9021062138158413
  @DF-RHF Final Energy:  -344.90210899837746
    Total Energy =                       -344.9021089983779120
  @DF-RHF Final Energy:  -344.90207337022804
    Total Energy =                       -344.9020733702282087
  Basis Set: 6-31G*
  Basis Set:
  @DF-RHF Final Energy:  -344.90211079228942
    Total Energy =                       -344.9021107922893634
  Basis Set: 6-31G*
  Basis Set:
  Basis Set: 6-31G*
  Basis Set:
  @DF-RHF Final Energy:  -344.90203234292676
    Total Energy =                       -344.9020323429268728
  Basis Set: 6-31G*
  Basis Set:
  Basis Set: 6-31G*
  Basis Set:
  @DF-RHF Final Energy:  -344.90210992016131
    Total Energy =                       -344.9021099201610809
  Basis Set: 6-31G*
  Basis Set:
  Charge       = 0
  Multiplicity = 1
  Basis Set: 6-31G*
  Basis Set:

    Orbital Energies (a.u.)
    -----------------------

    Doubly Occupied:

       1A    -20.599674     2A    -20.548225     3A    -11.373389
       4A    -11.283351     5A    -11.236342     6A    -11.222118
       7A    -11.214765     8A     -1.466688     9A     -1.364048
      10A     -1.080447    11A     -0.999976    12A     -0.941341
      13A     -0.828365    14A     -0.766762    15A     -0.699769
      16A     -0.681239    17A     -0.672462    18A     -0.636435
      19A     -0.599658    20A     -0.575982    21A     -0.567349
      22A     -0.529351    23A     -0.522672    24A     -0.498036
      25A     -0.487403    26A     -0.478866    27A     -0.455158
      28A     -0.436924

  @DF-RHF Final Energy:  -344.90211058512182

   => Energetics <=

    Nuclear Repulsion Energy =            312.1724597722385397
    One-Electron Energy =               -1088.6155500106260661
    Two-Electron Energy =                 431.5409796532657083
    DFT Exchange-Correlation Energy =       0.0000000000000000
    Empirical Dispersion Energy =           0.0000000000000000
    PCM Polarization Energy =               0.0000000000000000
    EFP Energy =                            0.0000000000000000
    Total Energy =                       -344.9021105851218181
    Molecular point group: c1
  Basis Set: 6-31G*
  Basis Set:

  -Total Gradient:
     Atom            X                  Y                   Z
    ------   -----------------  -----------------  -----------------
       1       -0.000676856371     0.000568458236     0.008829481211
       2        0.000076486026    -0.002254482018    -0.016069384417
       3       -0.000036131562     0.000045902506     0.000096273941
       4        0.002520398239     0.004608091553     0.013152208194
       5        0.000007544761     0.000008602637    -0.000052878918
       6        0.000008293959    -0.000025572464    -0.000018269962
       7       -0.000008618787     0.000013967741    -0.000010778898
       8        0.000004296303    -0.000004821864     0.000019530802
       9        0.000002029457    -0.000005848499     0.000008066252
      10       -0.000005686509     0.000009257439     0.000009621508
      11       -0.000000315403     0.000004920800    -0.000002915475
      12        0.000003393289     0.000001050262     0.000005122536
      13       -0.000001816944    -0.000005547947    -0.000003218436
      14       -0.001900501167    -0.002989498781    -0.005986395352
      15       -0.000000897808     0.000012283017     0.000012115004
      16       -0.000003892970     0.000002930037     0.000010086820
      17        0.000012275484     0.000010307344     0.000001335189

  **** Optimization is complete! (in 11 steps) ****
    Final optimized geometry and variables:
    Molecular point group: c1

    Geometry (in Angstrom), charge = 0, multiplicity = 1:

    O            0.750703234974     1.331478778235    -0.041071641399
    C            0.585516675460     0.157199839624     0.018621998506
    C           -0.754076108910    -0.534870969409     0.067073111115
    O            1.587032963072    -0.714395742927     0.134110537381
    C           -1.936175234416     0.427369062345     0.131112085174
    H           -0.817363576290    -1.174908164172    -0.810066494692
    H           -0.743263469530    -1.206802668590     0.920545097887
    C           -3.274490242240    -0.308774752028     0.170328275249
    H           -1.903685955414     1.092018391898    -0.725252974289
    H           -1.835932339969     1.058713250953     1.007790655332
    H           -3.414012707550    -0.923497199444    -0.714656126515
    H           -4.100874238828     0.392782528699     0.217794985461
    H           -3.343386411760    -0.959151291616     1.037864022231
    C            2.828512067962    -0.349867068891    -0.442017175637
    H            2.700936957327    -0.113622632651    -1.490161891595
    H            3.470854258018    -1.209870035837    -0.333938242569
    H            3.256058400364     0.501372800965     0.066953239217

  Mulliken Charges: (a.u.)
   Center  Symbol    Alpha    Beta     Spin     Total
       1     O     4.27936  4.27936  0.00000 -0.55871
       2     C     2.60582  2.60582  0.00000  0.78836
       3     C     3.20780  3.20780  0.00000 -0.41559
       4     O     4.30946  4.30946  0.00000 -0.61892
       5     C     3.15219  3.15219  0.00000 -0.30439
       6     H     0.40329  0.40329  0.00000  0.19341
       7     H     0.39932  0.39932  0.00000  0.20136
       8     C     3.24271  3.24271  0.00000 -0.48542
       9     H     0.41035  0.41035  0.00000  0.17929
      10     H     0.41132  0.41132  0.00000  0.17735
      11     H     0.42162  0.42162  0.00000  0.15675
      12     H     0.41508  0.41508  0.00000  0.16984
      13     H     0.42109  0.42109  0.00000  0.15782
      14     C     3.09331  3.09331  0.00000 -0.18662
      15     H     0.41510  0.41510  0.00000  0.16981
      16     H     0.40733  0.40733  0.00000  0.18534
      17     H     0.40484  0.40484  0.00000  0.19032

   Total alpha = 28.00000, Total beta = 28.00000, Total charge =  0.00000
