  ==> Input File <==

--------------------------------------------------------------------------
set {
	reference rhf
	basis 6-31G*
}

set_num_threads( 1 )
memory 2 gb

molecule MOL {
0 1

O	 3.225979	 0.970355	 -0.599647
C	 2.701189	 0.057885	 -0.047330
C	 1.245376	 -0.013843	 0.345420
O	 3.347903	 -1.046386	 0.304773
C	 0.455112	 1.231400	 -0.050772
H	 0.838542	 -0.913825	 -0.103701
H	 1.208210	 -0.175333	 1.419774
C	 -0.998893	 1.219485	 0.433193
H	 0.482531	 1.345121	 -1.130325
H	 0.957290	 2.103070	 0.354729
C	 -1.883438	 0.145884	 -0.207175
H	 -1.431207	 2.195402	 0.224832
H	 -1.019646	 1.105716	 1.516076
C	 -3.347647	 0.245583	 0.225435
H	 -1.822183	 0.231698	 -1.291012
H	 -1.510341	 -0.844814	 0.042401
C	 -3.673712	 1.543573	 0.966403
H	 -3.593033	 -0.602336	 0.862659
H	 -3.988527	 0.162506	 -0.650962
C	 -5.136950	 1.633557	 1.398304
H	 -3.033486	 1.628673	 1.841909
H	 -3.433180	 2.392195	 0.329406
H	 -5.336863	 2.564113	 1.920517
H	 -5.399781	 0.817160	 2.065096
H	 -5.802477	 1.585935	 0.540936
C	 4.728119	 -1.109107	 -0.004993
H	 4.882018	 -1.033965	 -1.071845
H	 5.068212	 -2.067527	 0.355250
H	 5.265056	 -0.311663	 0.488280

	symmetry c1
}
set optking {
	frozen_dihedral = ("
		21 17 14 11,
		15 11 8 5,
		6 3 5 9,
		11 8 5 9,
		2 4 26 27,
		1 2 4 26,
		6 3 2 1
	")
}

ee = energy('scf')
oeprop('DIPOLE', 'QUADRUPOLE', 'MULLIKEN_CHARGES')
f=open( 'psi4out.xyz', 'w' )
f.write( "29  " )
f.write( str(ee) + "\n" )
f.write( MOL.save_string_xyz() )
f.close()
--------------------------------------------------------------------------

    Molecular point group: c1

    Geometry (in Angstrom), charge = 0, multiplicity = 1:

       Center              X                  Y                   Z               Mass
    ------------   -----------------  -----------------  -----------------  -----------------
           O          3.122195035415     0.537177224577    -0.851082825398    15.994914619560
           C          2.597405035415    -0.375292775423    -0.298765825398    12.000000000000
           C          1.141592035415    -0.447020775423     0.093984174602    12.000000000000
           O          3.244119035415    -1.479563775423     0.053337174602    15.994914619560
           C          0.351328035415     0.798222224577    -0.302207825398    12.000000000000
           H          0.734758035415    -1.347002775423    -0.355136825398     1.007825032070
           H          1.104426035415    -0.608510775423     1.168338174602     1.007825032070
           C         -1.102676964585     0.786307224577     0.181757174602    12.000000000000
           H          0.378747035415     0.911943224577    -1.381760825398     1.007825032070
           H          0.853506035415     1.669892224577     0.103293174602     1.007825032070
           C         -1.987221964585    -0.287293775423    -0.458610825398    12.000000000000
           H         -1.534990964585     1.762224224577    -0.026603825398     1.007825032070
           H         -1.123429964585     0.672538224577     1.264640174602     1.007825032070
           C         -3.451430964585    -0.187594775423    -0.026000825398    12.000000000000
           H         -1.925966964585    -0.201479775423    -1.542447825398     1.007825032070
           H         -1.614124964585    -1.277991775423    -0.209034825398     1.007825032070
           C         -3.777495964585     1.110395224577     0.714967174602    12.000000000000
           H         -3.696816964585    -1.035513775423     0.611223174602     1.007825032070
           H         -4.092310964585    -0.270671775423    -0.902397825398     1.007825032070
           C         -5.240733964585     1.200379224577     1.146868174602    12.000000000000
           H         -3.137269964585     1.195495224577     1.590473174602     1.007825032070
           H         -3.536963964585     1.959017224577     0.077970174602     1.007825032070
           H         -5.440646964585     2.130935224577     1.669081174602     1.007825032070
           H         -5.503564964585     0.383982224577     1.813660174602     1.007825032070
           H         -5.906260964585     1.152757224577     0.289500174602     1.007825032070
           C          4.624335035415    -1.542284775423    -0.256428825398    12.000000000000
           H          4.778234035415    -1.467142775423    -1.323280825398     1.007825032070
           H          4.964428035415    -2.500704775423     0.103814174602     1.007825032070
           H          5.161272035415    -0.744840775423     0.236844174602     1.007825032070

  Charge       = 0
  Multiplicity = 1
  Basis Set: 6-31G*
  Basis Set:

    Orbital Energies (a.u.)
    -----------------------

    Doubly Occupied:

       1A    -20.602994     2A    -20.544751     3A    -11.371490
       4A    -11.280411     5A    -11.234016     6A    -11.217746
       7A    -11.215601     8A    -11.214612     9A    -11.214102
      10A    -11.213134    11A    -11.207662    12A     -1.468673
      13A     -1.362097    14A     -1.100716    15A     -1.065757
      16A     -1.014971    17A     -0.976688    18A     -0.928544
      19A     -0.861538    20A     -0.825971    21A     -0.771238
      22A     -0.753141    23A     -0.700579    24A     -0.681717
      25A     -0.671947    26A     -0.650935    27A     -0.627240
      28A     -0.607676    29A     -0.590841    30A     -0.582011
      31A     -0.568391    32A     -0.553511    33A     -0.548327
      34A     -0.523652    35A     -0.520590    36A     -0.498610
      37A     -0.491134    38A     -0.484840    39A     -0.481650
      40A     -0.456664    41A     -0.452402    42A     -0.441842
      43A     -0.438914    44A     -0.436574

  @DF-RHF Final Energy:  -501.02993560199855

   => Energetics <=

    Nuclear Repulsion Energy =            618.6596667689169635
    One-Electron Energy =               -1908.4675439246288988
    Two-Electron Energy =                 788.7779415537152090
    DFT Exchange-Correlation Energy =       0.0000000000000000
    Empirical Dispersion Energy =           0.0000000000000000
    PCM Polarization Energy =               0.0000000000000000
    EFP Energy =                            0.0000000000000000
    Total Energy =                       -501.0299356019968400

  Mulliken Charges: (a.u.)
   Center  Symbol    Alpha    Beta     Spin     Total
       1     O     4.28614  4.28614  0.00000 -0.57228
       2     C     2.60467  2.60467  0.00000  0.79067
       3     C     3.20999  3.20999  0.00000 -0.41998
       4     O     4.30757  4.30757  0.00000 -0.61515
       5     C     3.15044  3.15044  0.00000 -0.30088
       6     H     0.39898  0.39898  0.00000  0.20205
       7     H     0.40160  0.40160  0.00000  0.19681
       8     C     3.16499  3.16499  0.00000 -0.32998
       9     H     0.41371  0.41371  0.00000  0.17258
      10     H     0.40939  0.40939  0.00000  0.18123
      11     C     3.15775  3.15775  0.00000 -0.31550
      12     H     0.41431  0.41431  0.00000  0.17138
      13     H     0.42270  0.42270  0.00000  0.15460
      14     C     3.15300  3.15300  0.00000 -0.30600
      15     H     0.42063  0.42063  0.00000  0.15874
      16     H     0.42067  0.42067  0.00000  0.15866
      17     C     3.15987  3.15987  0.00000 -0.31974
      18     H     0.42193  0.42193  0.00000  0.15615
      19     H     0.42048  0.42048  0.00000  0.15904
      20     C     3.23662  3.23662  0.00000 -0.47324
      21     H     0.41970  0.41970  0.00000  0.16060
      22     H     0.42108  0.42108  0.00000  0.15784
      23     H     0.41977  0.41977  0.00000  0.16045
      24     H     0.42248  0.42248  0.00000  0.15504
      25     H     0.42226  0.42226  0.00000  0.15548
      26     C     3.09238  3.09238  0.00000 -0.18476
      27     H     0.40913  0.40913  0.00000  0.18175
      28     H     0.40859  0.40859  0.00000  0.18281
      29     H     0.40919  0.40919  0.00000  0.18163

   Total alpha = 44.00000, Total beta = 44.00000, Total charge =  0.00000
