                              Psi4 1.0.54 Driver

  ==> Input File <==

--------------------------------------------------------------------------
set {
	reference rhf
	basis cc-pvtz
}

set_num_threads( 4 )
memory 2 gb

molecule MOL {
0 1

H	 -3.813473	 1.068113	 0.475027
O	 -2.963772	 1.370240	 0.212795
C	 -2.021813	 0.336996	 0.342658
C	 -0.669613	 0.837286	 -0.127252
H	 -1.951443	 0.019757	 1.380026
H	 -2.322354	 -0.527245	 -0.246532
C	 0.490865	 -0.082543	 0.241244
H	 -0.708709	 0.967192	 -1.204587
H	 -0.507562	 1.822272	 0.303070
C	 1.839800	 0.429565	 -0.255472
H	 0.305636	 -1.070211	 -0.165276
H	 0.527397	 -0.195943	 1.322876
C	 3.001144	 -0.485193	 0.119072
H	 1.804373	 0.541073	 -1.335756
H	 2.020437	 1.423114	 0.146921
H	 2.866892	 -1.477297	 -0.298806
H	 3.943543	 -0.095749	 -0.249061
H	 3.085064	 -0.590459	 1.195790

	symmetry c1
}
set optking {
	frozen_dihedral = ("
		2 3 4 8
	")
}

ee,wfn = optimize('scf', return_wfn=True)
oeprop( wfn, 'DIPOLE', 'QUADRUPOLE', 'MULLIKEN_CHARGES')
f=open( 'psi4out.xyz', 'w' )
f.write( "18  " )
f.write( str(ee) + "\n" )
f.write( MOL.save_string_xyz() )
f.close()
--------------------------------------------------------------------------

    Molecular point group: c1
  Charge       = 0
  Multiplicity = 1
  Basis Set: CC-PVTZ
  Basis Set:
  @DF-RHF Final Energy:  -271.28631330407893
    Total Energy =                       -271.2863133040789307
    Molecular point group: c1
  Basis Set: CC-PVTZ
  Basis Set:
  Basis Set: CC-PVTZ
  Basis Set:
  @DF-RHF Final Energy:  -271.28645615348461
    Total Energy =                       -271.2864561534847780
  Basis Set: CC-PVTZ
  Basis Set:
  Basis Set: CC-PVTZ
  Basis Set:
  @DF-RHF Final Energy:  -271.28647253944314
    Total Energy =                       -271.2864725394429684
  Basis Set: CC-PVTZ
  Basis Set:
  Charge       = 0
  Multiplicity = 1
  Basis Set: CC-PVTZ
  Basis Set:

    Orbital Energies (a.u.)
    -----------------------

    Doubly Occupied:

       1A    -20.545468     2A    -11.265229     3A    -11.213880
       4A    -11.213233     5A    -11.209259     6A    -11.206705
       7A     -1.363229     8A     -1.081691     9A     -1.012358
      10A     -0.914048    11A     -0.820470    12A     -0.792573
      13A     -0.697253    14A     -0.662615    15A     -0.622684
      16A     -0.589153    17A     -0.573099    18A     -0.557303
      19A     -0.532509    20A     -0.495006    21A     -0.490898
      22A     -0.468878    23A     -0.464720    24A     -0.452250
      25A     -0.437091

  @DF-RHF Final Energy:  -271.28647309566355

   => Energetics <=

    Nuclear Repulsion Energy =            245.6694484416953514
    One-Electron Energy =                -854.5486512151210263
    Two-Electron Energy =                 337.5927296777618949
    DFT Exchange-Correlation Energy =       0.0000000000000000
    Empirical Dispersion Energy =           0.0000000000000000
    PCM Polarization Energy =               0.0000000000000000
    EFP Energy =                            0.0000000000000000
    Total Energy =                       -271.2864730956638368
    Molecular point group: c1
  Basis Set: CC-PVTZ
  Basis Set:

  -Total Gradient:
     Atom            X                  Y                   Z
    ------   -----------------  -----------------  -----------------
       1        0.000005718164    -0.000001102772     0.000003006899
       2        0.000365946891     0.000599263660     0.001721027266
       3       -0.000285195547    -0.001305386011    -0.002344042174
       4       -0.000845924491     0.002967917593     0.000873238793
       5        0.000009670202     0.000000290789    -0.000003093604
       6       -0.000011491211     0.000000897243     0.000008304364
       7       -0.000037312827     0.000055091518     0.000047010470
       8        0.000777708341    -0.002269503302    -0.000295583985
       9        0.000008371110    -0.000039972889     0.000004421074
      10        0.000036235042     0.000022217482    -0.000010629155
      11       -0.000021938475    -0.000015378007    -0.000001430583
      12        0.000010074498    -0.000015903167     0.000008995825
      13       -0.000010378439     0.000000071813    -0.000001966372
      14       -0.000000792452     0.000002255937    -0.000004681157
      15        0.000012411588    -0.000001632144     0.000003028233
      16        0.000000736268    -0.000004796261    -0.000002807044
      17       -0.000012945037     0.000004135949    -0.000005226067
      18       -0.000000893623     0.000001532568     0.000000427217

  **** Optimization is complete! (in 4 steps) ****
    Final optimized geometry and variables:
    Molecular point group: c1

    Geometry (in Angstrom), charge = 0, multiplicity = 1:

    H           -3.698053578628     0.614635979647     0.360321520062
    O           -2.849406137619     0.935765367780     0.117745074353
    C           -1.891186574917    -0.080139564443     0.255112210017
    C           -0.549767469301     0.451589543774    -0.211714151346
    H           -1.821262315558    -0.390069574814     1.295831114862
    H           -2.169750390642    -0.954638486263    -0.328404908408
    C            0.607265666000    -0.475956569269     0.149504419665
    H           -0.579923675503     0.582255122308    -1.288883762932
    H           -0.396315988837     1.430345449752     0.229251537346
    C            1.956327380410     0.018624240071    -0.364734889538
    H            0.416628650415    -1.469235177176    -0.251757154960
    H            0.657372864370    -0.589244128115     1.229769686229
    C            3.113008344331    -0.904074484125     0.003977572064
    H            1.910809396342     0.125375513167    -1.444880719837
    H            2.147309642829     1.012171049025     0.031111902433
    H            2.967322456897    -1.897893767663    -0.406439925168
    H            4.054442284844    -0.524660168872    -0.376326490244
    H            3.207265184680    -1.003070839262     1.080326238481

  Mulliken Charges: (a.u.)
   Center  Symbol    Alpha    Beta     Spin     Total
       1     H     0.39711  0.39711  0.00000  0.20578
       2     O     4.19501  4.19501  0.00000 -0.39002
       3     C     2.96320  2.96320  0.00000  0.07360
       4     C     3.08386  3.08386  0.00000 -0.16772
       5     H     0.47660  0.47660  0.00000  0.04680
       6     H     0.47320  0.47320  0.00000  0.05361
       7     C     3.09719  3.09719  0.00000 -0.19437
       8     H     0.45332  0.45332  0.00000  0.09336
       9     H     0.44900  0.44900  0.00000  0.10199
      10     C     3.08373  3.08373  0.00000 -0.16746
      11     H     0.45675  0.45675  0.00000  0.08650
      12     H     0.45515  0.45515  0.00000  0.08970
      13     C     3.14949  3.14949  0.00000 -0.29898
      14     H     0.45386  0.45386  0.00000  0.09229
      15     H     0.45347  0.45347  0.00000  0.09305
      16     H     0.45556  0.45556  0.00000  0.08888
      17     H     0.44823  0.44823  0.00000  0.10355
      18     H     0.45527  0.45527  0.00000  0.08946

   Total alpha = 25.00000, Total beta = 25.00000, Total charge = -0.00000

*** Psi4 exiting successfully. Buy a developer a beer!
