  ==> Input File <==

--------------------------------------------------------------------------
set {
	reference rhf
	basis 6-31G*
}

set_num_threads( 1 )
memory 2 gb

molecule MOL {
0 1

H	 -3.135461	 -1.215070	 0.001379
O	 -2.310168	 -0.871793	 -0.309793
C	 -2.026376	 0.340750	 0.341611
C	 -0.673256	 0.843270	 -0.132153
H	 -2.792215	 1.080697	 0.115987
H	 -2.013526	 0.200402	 1.421792
C	 0.486613	 -0.083066	 0.235839
H	 -0.715586	 0.970948	 -1.210718
H	 -0.508072	 1.829858	 0.297090
C	 0.611305	 -0.312001	 1.743106
H	 1.411486	 0.335699	 -0.147253
H	 0.351057	 -1.042375	 -0.262350
C	 1.766780	 -1.242382	 2.110448
H	 0.747559	 0.645285	 2.241859
H	 -0.319772	 -0.725335	 2.126115
H	 2.716542	 -0.839022	 1.771119
H	 1.832337	 -1.384506	 3.184900
H	 1.642633	 -2.220723	 1.654435

	symmetry c1
}
set optking {
	frozen_dihedral = ("
		14 10 7 11,
		2 3 4 8,
		1 2 3 4
	")
}

ee = energy('scf')
oeprop('DIPOLE', 'QUADRUPOLE', 'MULLIKEN_CHARGES')
f=open( 'psi4out.xyz', 'w' )
f.write( "18  " )
f.write( str(ee) + "\n" )
f.write( MOL.save_string_xyz() )
f.close()
--------------------------------------------------------------------------

    Molecular point group: c1

    Geometry (in Angstrom), charge = 0, multiplicity = 1:

       Center              X                  Y                   Z               Mass
    ------------   -----------------  -----------------  -----------------  -----------------
           H         -2.729515102601    -0.967955266003    -0.656060319615     1.007825032070
           O         -1.904222102601    -0.624678266003    -0.967232319615    15.994914619560
           C         -1.620430102601     0.587864733997    -0.315828319615    12.000000000000
           C         -0.267310102601     1.090384733997    -0.789592319615    12.000000000000
           H         -2.386269102601     1.327811733997    -0.541452319615     1.007825032070
           H         -1.607580102601     0.447516733997     0.764352680385     1.007825032070
           C          0.892558897399     0.164048733997    -0.421600319615    12.000000000000
           H         -0.309640102601     1.218062733997    -1.868157319615     1.007825032070
           H         -0.102126102601     2.076972733997    -0.360349319615     1.007825032070
           C          1.017250897399    -0.064886266003     1.085666680385    12.000000000000
           H          1.817431897399     0.582813733997    -0.804692319615     1.007825032070
           H          0.757002897399    -0.795260266003    -0.919789319615     1.007825032070
           C          2.172725897399    -0.995267266003     1.453008680385    12.000000000000
           H          1.153504897399     0.892399733997     1.584419680385     1.007825032070
           H          0.086173897399    -0.478220266003     1.468675680385     1.007825032070
           H          3.122487897399    -0.591907266003     1.113679680385     1.007825032070
           H          2.238282897399    -1.137391266003     2.527460680385     1.007825032070
           H          2.048578897399    -1.973608266003     0.996995680385     1.007825032070

  Charge       = 0
  Multiplicity = 1
  Basis Set: 6-31G*
  Basis Set:

    Orbital Energies (a.u.)
    -----------------------

    Doubly Occupied:

       1A    -20.553283     2A    -11.266714     3A    -11.211952
       4A    -11.210844     5A    -11.206637     6A    -11.204986
       7A     -1.359870     8A     -1.076672     9A     -1.006067
      10A     -0.912643    11A     -0.832297    12A     -0.769894
      13A     -0.703542    14A     -0.649738    15A     -0.621782
      16A     -0.584400    17A     -0.562036    18A     -0.554807
      19A     -0.536500    20A     -0.501420    21A     -0.488834
      22A     -0.464416    23A     -0.454811    24A     -0.448636
      25A     -0.428226

  @DF-RHF Final Energy:  -271.17727881287016

   => Energetics <=

    Nuclear Repulsion Energy =            254.7125766328342138
    One-Electron Energy =                -872.5575237867822125
    Two-Electron Energy =                 346.6676683410778423
    DFT Exchange-Correlation Energy =       0.0000000000000000
    Empirical Dispersion Energy =           0.0000000000000000
    PCM Polarization Energy =               0.0000000000000000
    EFP Energy =                            0.0000000000000000
    Total Energy =                       -271.1772788128700995

  Mulliken Charges: (a.u.)
   Center  Symbol    Alpha    Beta     Spin     Total
       1     H     0.28067  0.28067  0.00000  0.43865
       2     O     4.36993  4.36993  0.00000 -0.73986
       3     C     3.00093  3.00093  0.00000 -0.00186
       4     C     3.16198  3.16198  0.00000 -0.32396
       5     H     0.42867  0.42867  0.00000  0.14266
       6     H     0.43038  0.43038  0.00000  0.13923
       7     C     3.15286  3.15286  0.00000 -0.30572
       8     H     0.41301  0.41301  0.00000  0.17397
       9     H     0.42415  0.42415  0.00000  0.15170
      10     C     3.15651  3.15651  0.00000 -0.31302
      11     H     0.42268  0.42268  0.00000  0.15465
      12     H     0.40984  0.40984  0.00000  0.18032
      13     C     3.23823  3.23823  0.00000 -0.47645
      14     H     0.42607  0.42607  0.00000  0.14787
      15     H     0.42031  0.42031  0.00000  0.15939
      16     H     0.42246  0.42246  0.00000  0.15508
      17     H     0.42098  0.42098  0.00000  0.15805
      18     H     0.42035  0.42035  0.00000  0.15930

   Total alpha = 25.00000, Total beta = 25.00000, Total charge = -0.00000
