  ==> Input File <==

--------------------------------------------------------------------------
set {
	reference rhf
	basis cc-pvtz
}

set_num_threads( 4 )
memory 2 gb

molecule MOL {
0 1

H	 -0.366580	 2.045936	 -0.305741
C	 0.351829	 1.335402	 0.083179
N	 -0.000018	 0.000080	 -0.334836
H	 1.327156	 1.599860	 -0.305475
H	 0.380566	 1.445403	 1.171445
C	 -0.875773	 -0.648455	 0.611121
C	 -0.539460	 -0.022316	 -1.673022
H	 -1.062430	 -1.669212	 0.302406
H	 -0.410129	 -0.674867	 1.588190
H	 -1.841266	 -0.143447	 0.710431
H	 0.172026	 0.408852	 -2.365888
H	 -0.726716	 -1.043733	 -1.979235
H	 -1.477124	 0.534487	 -1.761720

	symmetry c1
}
set optking {
	frozen_dihedral = ("
		6 3 2 1
	")
}

ee = optimize('scf')
oeprop('DIPOLE', 'QUADRUPOLE', 'MULLIKEN_CHARGES')
f=open( 'psi4out.xyz', 'w' )
f.write( "13  " )
f.write( str(ee) + "\n" )
f.write( MOL.save_string_xyz() )
f.close()
--------------------------------------------------------------------------

    Molecular point group: c1
  Charge       = 0
  Multiplicity = 1
  Basis Set: CC-PVTZ
  Basis Set:
  @DF-RHF Final Energy:  -173.33066093800826
    Total Energy =                       -173.3306609380082932
    Molecular point group: c1
  Basis Set: CC-PVTZ
  Basis Set:
  Basis Set: CC-PVTZ
  Basis Set:
  @DF-RHF Final Energy:  -173.33153370029865
    Total Energy =                       -173.3315337002986212
  Basis Set: CC-PVTZ
  Basis Set:
  Basis Set: CC-PVTZ
  Basis Set:
  @DF-RHF Final Energy:  -173.33164096407867
    Total Energy =                       -173.3316409640787015
  Basis Set: CC-PVTZ
  Basis Set:
  Basis Set: CC-PVTZ
  Basis Set:
  @DF-RHF Final Energy:  -173.33164673251142
    Total Energy =                       -173.3316467325114729
  Basis Set: CC-PVTZ
  Basis Set:
  Charge       = 0
  Multiplicity = 1
  Basis Set: CC-PVTZ
  Basis Set:

    Orbital Energies (a.u.)
    -----------------------

    Doubly Occupied:

       1A    -15.536514     2A    -11.234368     3A    -11.234295
       4A    -11.234091     5A     -1.224538     6A     -0.953452
       7A     -0.952235     8A     -0.805776     9A     -0.640447
      10A     -0.632323    11A     -0.630336    12A     -0.547487
      13A     -0.541583    14A     -0.517294    15A     -0.504610
      16A     -0.502543    17A     -0.342771

  @DF-RHF Final Energy:  -173.33164726499231

   => Energetics <=

    Nuclear Repulsion Energy =            139.1681783036670765
    One-Electron Energy =                -508.9303280030932228
    Two-Electron Energy =                 196.4305024344338335
    DFT Exchange-Correlation Energy =       0.0000000000000000
    Empirical Dispersion Energy =           0.0000000000000000
    PCM Polarization Energy =               0.0000000000000000
    EFP Energy =                            0.0000000000000000
    Total Energy =                       -173.3316472649922844
    Molecular point group: c1
  Basis Set: CC-PVTZ
  Basis Set:

  -Total Gradient:
     Atom            X                  Y                   Z
    ------   -----------------  -----------------  -----------------
       1        0.002475628069     0.000479346067    -0.003922741700
       2       -0.002051715191    -0.001123059890     0.005770905804
       3       -0.003288643903     0.001980469409    -0.003469573793
       4       -0.000008788561     0.000003417029    -0.000016280133
       5        0.000003921845    -0.000001939751     0.000003167623
       6        0.002853032225    -0.001307573180     0.001635570775
       7        0.000005512290    -0.000018999400    -0.000006718506
       8       -0.000004283596    -0.000001385703     0.000002621595
       9        0.000001195172    -0.000003951823     0.000005369682
      10        0.000012672974    -0.000000491745    -0.000006430636
      11       -0.000005371552     0.000000766126     0.000004349405
      12       -0.000005341388    -0.000006075685    -0.000015820049
      13        0.000012181616    -0.000000521453     0.000015579932

  **** Optimization is complete! (in 5 steps) ****
    Final optimized geometry and variables:
    Molecular point group: c1

    Geometry (in Angstrom), charge = 0, multiplicity = 1:

    H           -0.054739990658     1.934878246210     0.058170483697
    C            0.642905264304     1.168330991487     0.404065869304
    N            0.256504158510    -0.164083000127     0.000068731342
    H            1.610617970503     1.418009546356    -0.018790849314
    H            0.726038165047     1.230656074419     1.479980919835
    C           -0.597138871531    -0.834448253978     0.948128000960
    C           -0.238430935189    -0.211571068135    -1.350424945688
    H           -0.773492731267    -1.853041092386     0.625141589201
    H           -0.115960832255    -0.872416601172     1.916753102277
    H           -1.571742825550    -0.351352535765     1.073145100645
    H            0.486667466614     0.228609742602    -2.024303327040
    H           -0.394353792223    -1.238867586858    -1.655280612377
    H           -1.182968353870     0.327006790193    -1.476833666147

  Mulliken Charges: (a.u.)
   Center  Symbol    Alpha    Beta     Spin     Total
       1     H     0.47178  0.47178  0.00000  0.05644
       2     C     3.08795  3.08795  0.00000 -0.17589
       3     N     3.59654  3.59654  0.00000 -0.19309
       4     H     0.45183  0.45183  0.00000  0.09633
       5     H     0.45453  0.45453  0.00000  0.09094
       6     C     3.08796  3.08796  0.00000 -0.17591
       7     C     3.08955  3.08955  0.00000 -0.17909
       8     H     0.45339  0.45339  0.00000  0.09322
       9     H     0.45260  0.45260  0.00000  0.09480
      10     H     0.47456  0.47456  0.00000  0.05088
      11     H     0.45288  0.45288  0.00000  0.09424
      12     H     0.45315  0.45315  0.00000  0.09370
      13     H     0.47328  0.47328  0.00000  0.05344

   Total alpha = 17.00000, Total beta = 17.00000, Total charge = -0.00000
