  ==> Input File <==

--------------------------------------------------------------------------
set {
	reference rhf
	basis 6-31G*
}

set_num_threads( 1 )
memory 2 gb

molecule MOL {
0 1

O	 -0.988096	 -1.408613	 0.050699
C	 -0.676749	 -0.249230	 -0.009274
C	 -1.746085	 0.827156	 -0.009539
N	 0.623947	 0.147590	 -0.102813
H	 -1.701500	 1.431508	 -0.908902
H	 -2.703425	 0.330732	 0.036390
H	 -1.647323	 1.487769	 0.845106
C	 1.045084	 1.325749	 0.629622
C	 1.535008	 -0.299263	 -1.133607
H	 2.043375	 1.168754	 1.023050
H	 0.364293	 1.504178	 1.443641
H	 1.063937	 2.204048	 -0.011983
H	 2.540978	 -0.322257	 -0.731695
H	 1.295661	 -1.295326	 -1.470514
H	 1.532946	 0.366973	 -1.994385

	symmetry c1
}
set optking {
	frozen_dihedral = ("
		2 4 8 10
	")
}

ee = energy('scf')
oeprop('DIPOLE', 'QUADRUPOLE', 'MULLIKEN_CHARGES')
f=open( 'psi4out.xyz', 'w' )
f.write( "15  " )
f.write( str(ee) + "\n" )
f.write( MOL.save_string_xyz() )
f.close()
--------------------------------------------------------------------------

    Molecular point group: c1

    Geometry (in Angstrom), charge = 0, multiplicity = 1:

       Center              X                  Y                   Z               Mass
    ------------   -----------------  -----------------  -----------------  -----------------
           O         -0.960882071633    -1.474299276510     0.150453712963    15.994914619560
           C         -0.649535071633    -0.314916276510     0.090480712963    12.000000000000
           C         -1.718871071633     0.761469723490     0.090215712963    12.000000000000
           N          0.651160928367     0.081903723490    -0.003058287037    14.003074004780
           H         -1.674286071633     1.365821723490    -0.809147287037     1.007825032070
           H         -2.676211071633     0.265045723490     0.136144712963     1.007825032070
           H         -1.620109071633     1.422082723490     0.944860712963     1.007825032070
           C          1.072297928367     1.260062723490     0.729376712963    12.000000000000
           C          1.562221928367    -0.364949276510    -1.033852287037    12.000000000000
           H          2.070588928367     1.103067723490     1.122804712963     1.007825032070
           H          0.391506928367     1.438491723490     1.543395712963     1.007825032070
           H          1.091150928367     2.138361723490     0.087771712963     1.007825032070
           H          2.568191928367    -0.387943276510    -0.631940287037     1.007825032070
           H          1.322874928367    -1.361012276510    -1.370759287037     1.007825032070
           H          1.560159928367     0.301286723490    -1.894630287037     1.007825032070

  Charge       = 0
  Multiplicity = 1
  Basis Set: 6-31G*
  Basis Set:

    Orbital Energies (a.u.)
    -----------------------

    Doubly Occupied:

       1A    -20.528158     2A    -15.567122     3A    -11.343874
       4A    -11.261916     5A    -11.258195     6A    -11.227079
       7A     -1.388044     8A     -1.241851     9A     -1.011873
      10A     -0.971825    11A     -0.921226    12A     -0.739632
      13A     -0.676470    14A     -0.658080    15A     -0.650998
      16A     -0.594496    17A     -0.584502    18A     -0.568821
      19A     -0.561480    20A     -0.554510    21A     -0.533498
      22A     -0.490224    23A     -0.415953    24A     -0.358079

  @DF-RHF Final Energy:  -286.00831769328272

   => Energetics <=

    Nuclear Repulsion Energy =            251.7578948838903159
    One-Electron Energy =                -887.3163640391438776
    Two-Electron Energy =                 349.5501514619706995
    DFT Exchange-Correlation Energy =       0.0000000000000000
    Empirical Dispersion Energy =           0.0000000000000000
    PCM Polarization Energy =               0.0000000000000000
    EFP Energy =                            0.0000000000000000
    Total Energy =                       -286.0083176932828337

  Mulliken Charges: (a.u.)
   Center  Symbol    Alpha    Beta     Spin     Total
       1     O     4.27776  4.27776  0.00000 -0.55551
       2     C     2.64568  2.64568  0.00000  0.70863
       3     C     3.28957  3.28957  0.00000 -0.57914
       4     N     3.81852  3.81852  0.00000 -0.63704
       5     H     0.40674  0.40674  0.00000  0.18652
       6     H     0.39394  0.39394  0.00000  0.21212
       7     H     0.40940  0.40940  0.00000  0.18119
       8     C     3.14246  3.14246  0.00000 -0.28493
       9     C     3.13900  3.13900  0.00000 -0.27801
      10     H     0.40887  0.40887  0.00000  0.18227
      11     H     0.41107  0.41107  0.00000  0.17786
      12     H     0.42301  0.42301  0.00000  0.15398
      13     H     0.41539  0.41539  0.00000  0.16922
      14     H     0.39567  0.39567  0.00000  0.20865
      15     H     0.42291  0.42291  0.00000  0.15419

   Total alpha = 24.00000, Total beta = 24.00000, Total charge = -0.00000
