  ==> Input File <==

--------------------------------------------------------------------------
set {
	reference rhf
	basis cc-pvtz
}

set_num_threads( 4 )
memory 2 gb

molecule MOL {
0 1

O	 0.480949	 0.638822	 0.938986
C	 0.029490	 0.077183	 0.000078
C	 -1.232113	 -0.748027	 0.000015
O	 0.588377	 0.102547	 -1.198352
C	 -2.501422	 0.088592	 -0.000052
H	 -1.188777	 -1.400384	 -0.865133
H	 -1.188857	 -1.400312	 0.865225
H	 -2.548170	 0.725504	 -0.873205
H	 -3.371613	 -0.556398	 -0.000040
H	 -2.548215	 0.725571	 0.873047
C	 1.783315	 0.843672	 -1.341525
H	 1.617808	 1.883701	 -1.102398
H	 2.075504	 0.741073	 -2.373962
H	 2.554543	 0.451862	 -0.695043

	symmetry c1
}
set optking {
	frozen_dihedral = ("
		4 2 3 6
	")
}

ee = optimize('scf')
oeprop('DIPOLE', 'QUADRUPOLE', 'MULLIKEN_CHARGES')
f=open( 'psi4out.xyz', 'w' )
f.write( "14  " )
f.write( str(ee) + "\n" )
f.write( MOL.save_string_xyz() )
f.close()
--------------------------------------------------------------------------

    Molecular point group: c1
  Charge       = 0
  Multiplicity = 1
  Basis Set: CC-PVTZ
  Basis Set:
  @DF-RHF Final Energy:  -305.98519274776851
    Total Energy =                       -305.9851927477686218
    Molecular point group: c1
  Basis Set: CC-PVTZ
  Basis Set:
  Basis Set: CC-PVTZ
  Basis Set:
  @DF-RHF Final Energy:  -305.98562545002648
    Total Energy =                       -305.9856254500266459
  Basis Set: CC-PVTZ
  Basis Set:
  Basis Set: CC-PVTZ
  Basis Set:
  @DF-RHF Final Energy:  -305.98592100055146
    Total Energy =                       -305.9859210005509453
  Basis Set: CC-PVTZ
  Basis Set:
  Basis Set: CC-PVTZ
  Basis Set:
  @DF-RHF Final Energy:  -305.98596684762344
    Total Energy =                       -305.9859668476232173
  Basis Set: CC-PVTZ
  Basis Set:
  Charge       = 0
  Multiplicity = 1
  Basis Set: CC-PVTZ
  Basis Set:

    Orbital Energies (a.u.)
    -----------------------

    Doubly Occupied:

       1A    -20.599257     2A    -20.532210     3A    -11.364441
       4A    -11.279193     5A    -11.235676     6A    -11.224507
       7A     -1.473189     8A     -1.365382     9A     -1.067286
      10A     -0.979663    11A     -0.882570    12A     -0.775687
      13A     -0.700357    14A     -0.683101    15A     -0.676171
      16A     -0.618144    17A     -0.600765    18A     -0.566779
      19A     -0.542398    20A     -0.520887    21A     -0.509590
      22A     -0.505350    23A     -0.459479    24A     -0.438517

  @DF-RHF Final Energy:  -305.98596815940220

   => Energetics <=

    Nuclear Repulsion Energy =            248.1777937242460155
    One-Electron Energy =                -909.1263289369233007
    Two-Electron Energy =                 354.9625670532748813
    DFT Exchange-Correlation Energy =       0.0000000000000000
    Empirical Dispersion Energy =           0.0000000000000000
    PCM Polarization Energy =               0.0000000000000000
    EFP Energy =                            0.0000000000000000
    Total Energy =                       -305.9859681594023755
    Molecular point group: c1
  Basis Set: CC-PVTZ
  Basis Set:

  -Total Gradient:
     Atom            X                  Y                   Z
    ------   -----------------  -----------------  -----------------
       1        0.000010887591    -0.000030681910    -0.000062955152
       2       -0.000197237785     0.000311607027    -0.000038621735
       3        0.000108294309    -0.000213855800     0.000155996253
       4        0.000106554437    -0.000176960757     0.000079615081
       5        0.000066364675    -0.000036331285     0.000032154352
       6       -0.000085677589     0.000137906851    -0.000171621918
       7        0.000020958597     0.000013071696    -0.000007361614
       8        0.000005385465    -0.000018342567     0.000017542739
       9       -0.000012983531     0.000000526651    -0.000009052453
      10       -0.000021253401     0.000027873997     0.000003346297
      11       -0.000022394425    -0.000037372812     0.000005105410
      12       -0.000001194265     0.000004627635    -0.000000634853
      13        0.000013164598     0.000012514668    -0.000003412902
      14        0.000009131321     0.000005416605    -0.000000099505

  **** Optimization is complete! (in 5 steps) ****
    Final optimized geometry and variables:
    Molecular point group: c1

    Geometry (in Angstrom), charge = 0, multiplicity = 1:

    O            0.582835777391     0.429524971121     1.217765318116
    C            0.150581965979    -0.134501995902     0.270134471650
    C           -1.109830116477    -0.961320918629     0.279109393376
    O            0.714838384730    -0.083098777316    -0.923791470946
    C           -2.348763500863    -0.062563762887     0.270436088156
    H           -1.115970681276    -1.621576044581    -0.576228237868
    H           -1.094674384612    -1.557357877819     1.181543192628
    H           -2.385743918359     0.541732243208    -0.628274263100
    H           -3.246994034437    -0.665738137915     0.304544718035
    H           -2.348476565058     0.598465057944     1.126968327727
    C            1.885461163868     0.699227830257    -1.053106214637
    H            1.683539654515     1.730475148500    -0.804411532824
    H            2.186299730373     0.616378126823    -2.084824595207
    H            2.665054495545     0.326712124598    -0.405529390119

  Mulliken Charges: (a.u.)
   Center  Symbol    Alpha    Beta     Spin     Total
       1     O     4.20485  4.20485  0.00000 -0.40969
       2     C     2.79881  2.79881  0.00000  0.40238
       3     C     3.08453  3.08453  0.00000 -0.16905
       4     O     4.14744  4.14744  0.00000 -0.29489
       5     C     3.14885  3.14885  0.00000 -0.29770
       6     H     0.44240  0.44240  0.00000  0.11521
       7     H     0.44192  0.44192  0.00000  0.11616
       8     H     0.45153  0.45153  0.00000  0.09694
       9     H     0.44821  0.44821  0.00000  0.10358
      10     H     0.44351  0.44351  0.00000  0.11298
      11     C     3.03466  3.03466  0.00000 -0.06932
      12     H     0.45424  0.45424  0.00000  0.09152
      13     H     0.44552  0.44552  0.00000  0.10896
      14     H     0.45354  0.45354  0.00000  0.09292

   Total alpha = 24.00000, Total beta = 24.00000, Total charge = -0.00000
