                              Psi4 1.0.54 Driver

  ==> Input File <==

--------------------------------------------------------------------------
set {
	reference rhf
	basis cc-pvtz
}

set_num_threads( 4 )
memory 2 gb

molecule MOL {
0 1

H	 -3.162190	 0.493205	 -0.000107
C	 -2.363908	 -0.234727	 0.000005
O	 -1.158738	 0.454634	 -0.000087
H	 -2.464314	 -0.863616	 -0.882153
H	 -2.464327	 -0.863359	 0.882345
C	 -0.028611	 -0.359694	 0.000037
C	 1.026982	 0.251234	 -0.899342
H	 -0.287892	 -1.359103	 -0.350097
H	 0.356812	 -0.464174	 1.014520
C	 2.300905	 -0.584582	 -0.953043
H	 0.610753	 0.362170	 -1.894516
H	 1.250362	 1.249953	 -0.540715
H	 2.103902	 -1.581657	 -1.332670
H	 3.036848	 -0.125769	 -1.601810
H	 2.747943	 -0.687691	 0.030112

	symmetry c1
}
set optking {
	frozen_dihedral = ("
		8 6 3 2
	")
}

ee,wfn = optimize('scf', return_wfn=True)
oeprop( wfn, 'DIPOLE', 'QUADRUPOLE', 'MULLIKEN_CHARGES')
f=open( 'psi4out.xyz', 'w' )
f.write( "15  " )
f.write( str(ee) + "\n" )
f.write( MOL.save_string_xyz() )
f.close()
--------------------------------------------------------------------------

    Molecular point group: c1
  Charge       = 0
  Multiplicity = 1
  Basis Set: CC-PVTZ
  Basis Set:
  @DF-RHF Final Energy:  -232.22533403701857
    Total Energy =                       -232.2253340370185697
    Molecular point group: c1
  Basis Set: CC-PVTZ
  Basis Set:
  Basis Set: CC-PVTZ
  Basis Set:
  @DF-RHF Final Energy:  -232.22540439720916
    Total Energy =                       -232.2254043972091040
  Basis Set: CC-PVTZ
  Basis Set:
  Basis Set: CC-PVTZ
  Basis Set:
  @DF-RHF Final Energy:  -232.22558142328535
    Total Energy =                       -232.2255814232853481
  Basis Set: CC-PVTZ
  Basis Set:
  Basis Set: CC-PVTZ
  Basis Set:
  @DF-RHF Final Energy:  -232.22558334728993
    Total Energy =                       -232.2255833472900122
  Basis Set: CC-PVTZ
  Basis Set:
  Charge       = 0
  Multiplicity = 1
  Basis Set: CC-PVTZ
  Basis Set:

    Orbital Energies (a.u.)
    -----------------------

    Doubly Occupied:

       1A    -20.545150     2A    -11.264097     3A    -11.262331
       4A    -11.212813     5A    -11.210764     6A     -1.378302
       7A     -1.058037     8A     -0.956632     9A     -0.878156
      10A     -0.809425    11A     -0.673340    12A     -0.654944
      13A     -0.634448    14A     -0.604812    15A     -0.567472
      16A     -0.540025    17A     -0.504045    18A     -0.491901
      19A     -0.480853    20A     -0.463948    21A     -0.410256

  @DF-RHF Final Energy:  -232.22558359924344

   => Energetics <=

    Nuclear Repulsion Energy =            189.9851516911777765
    One-Electron Energy =                -691.2179644473637836
    Two-Electron Energy =                 269.0072291569426284
    DFT Exchange-Correlation Energy =       0.0000000000000000
    Empirical Dispersion Energy =           0.0000000000000000
    PCM Polarization Energy =               0.0000000000000000
    EFP Energy =                            0.0000000000000000
    Total Energy =                       -232.2255835992434072
    Molecular point group: c1
  Basis Set: CC-PVTZ
  Basis Set:

  -Total Gradient:
     Atom            X                  Y                   Z
    ------   -----------------  -----------------  -----------------
       1        0.000002613130    -0.000000974520     0.000001113119
       2       -0.000218958348    -0.000076827424    -0.002125948503
       3        0.000248340866    -0.000107332565     0.003710314658
       4        0.000002261167     0.000004663744     0.000006922401
       5       -0.000000377510     0.000004148226    -0.000003626082
       6        0.000270920775     0.000882130880    -0.004094194844
       7       -0.000030001310    -0.000003489651     0.000003608512
       8       -0.000302220241    -0.000719353362     0.002494128825
       9        0.000009608176     0.000003731365     0.000003813888
      10        0.000006540119     0.000008162953     0.000012916348
      11       -0.000006042819     0.000006175720    -0.000001756232
      12        0.000007965962     0.000004533928    -0.000004850065
      13       -0.000002935868     0.000003606451    -0.000000156016
      14        0.000006483254    -0.000003778831    -0.000005036711
      15        0.000005802644    -0.000005396913     0.000002750701

  **** Optimization is complete! (in 5 steps) ****
    Final optimized geometry and variables:
    Molecular point group: c1

    Geometry (in Angstrom), charge = 0, multiplicity = 1:

    H           -3.073639140432     0.559191196431     0.583933528306
    C           -2.276178737289    -0.168328127237     0.533909655282
    O           -1.077857219895     0.524643701044     0.421032210408
    H           -2.445986798463    -0.813740139945    -0.324694888021
    H           -2.308142764439    -0.778530805853     1.434308980218
    C            0.073446168939    -0.262986451121     0.335626241191
    C            1.059752726619     0.365221621843    -0.629460842787
    H           -0.179332333386    -1.274068129028     0.023246806013
    H            0.523307181655    -0.349545164740     1.323716781025
    C            2.370657009852    -0.409056769470    -0.710708274831
    H            0.598555700214     0.424900090924    -1.609635850969
    H            1.247863868084     1.384858437581    -0.311350896161
    H            2.208221809085    -1.427799242095    -1.047416743307
    H            3.055631169403     0.060950501623    -1.405806460420
    H            2.862155850019    -0.455166618624     0.255361165606

  Mulliken Charges: (a.u.)
   Center  Symbol    Alpha    Beta     Spin     Total
       1     H     0.44910  0.44910  0.00000  0.10180
       2     C     3.03159  3.03159  0.00000 -0.06318
       3     O     4.17642  4.17642  0.00000 -0.35283
       4     H     0.47215  0.47215  0.00000  0.05570
       5     H     0.47123  0.47123  0.00000  0.05754
       6     C     2.96077  2.96077  0.00000  0.07847
       7     C     3.07944  3.07944  0.00000 -0.15889
       8     H     0.47635  0.47635  0.00000  0.04729
       9     H     0.46534  0.46534  0.00000  0.06932
      10     C     3.15560  3.15560  0.00000 -0.31119
      11     H     0.45397  0.45397  0.00000  0.09205
      12     H     0.45021  0.45021  0.00000  0.09958
      13     H     0.45613  0.45613  0.00000  0.08775
      14     H     0.44644  0.44644  0.00000  0.10712
      15     H     0.45526  0.45526  0.00000  0.08948

   Total alpha = 21.00000, Total beta = 21.00000, Total charge =  0.00000

*** Psi4 exiting successfully. Buy a developer a beer!
