  ==> Input File <==

--------------------------------------------------------------------------
set {
	reference rhf
	basis 6-31G*
}

set_num_threads( 1 )
memory 2 gb

molecule MOL {
0 1

H	 2.334800	 4.457286	 1.920440
C	 2.447602	 3.803067	 2.793879
C	 1.239024	 2.963758	 3.121764
O	 3.466663	 3.792829	 3.404749
C	 0.731756	 2.164856	 1.913173
H	 1.488867	 2.314103	 3.952568
H	 0.456989	 3.645300	 3.454296
C	 1.704201	 1.077850	 1.448341
H	 -0.218771	 1.710162	 2.175923
H	 0.523523	 2.847339	 1.090609
C	 1.180775	 0.282413	 0.250794
H	 1.902342	 0.399983	 2.276038
H	 2.662137	 1.525424	 1.190317
C	 2.148627	 -0.814315	 -0.201312
H	 0.219436	 -0.153478	 0.510714
H	 0.994727	 0.961968	 -0.579854
C	 3.580890	 -0.659131	 0.322722
H	 2.166869	 -0.852443	 -1.289387
H	 1.762857	 -1.776509	 0.128956
C	 4.324889	 0.564933	 -0.213704
H	 4.142010	 -1.551473	 0.056605
H	 3.564836	 -0.624694	 1.410140
H	 4.342616	 0.565491	 -1.300421
H	 3.866655	 1.493402	 0.110242
H	 5.353900	 0.572371	 0.132816

	symmetry c1
}
set optking {
	frozen_dihedral = ("
		6 3 5 8,
		6 3 2 4,
		3 5 8 12,
		12 8 11 14,
		20 17 14 18
	")
}

ee = energy('scf')
oeprop('DIPOLE', 'QUADRUPOLE', 'MULLIKEN_CHARGES')
f=open( 'psi4out.xyz', 'w' )
f.write( "25  " )
f.write( str(ee) + "\n" )
f.write( MOL.save_string_xyz() )
f.close()
--------------------------------------------------------------------------

    Molecular point group: c1

    Geometry (in Angstrom), charge = 0, multiplicity = 1:

       Center              X                  Y                   Z               Mass
    ------------   -----------------  -----------------  -----------------  -----------------
           H         -0.003507510966     2.982709305392     0.491735312443     1.007825032070
           C          0.109294489034     2.328490305392     1.365174312443    12.000000000000
           C         -1.099283510966     1.489181305392     1.693059312443    12.000000000000
           O          1.128355489034     2.318252305392     1.976044312443    15.994914619560
           C         -1.606551510966     0.690279305392     0.484468312443    12.000000000000
           H         -0.849440510966     0.839526305392     2.523863312443     1.007825032070
           H         -1.881318510966     2.170723305392     2.025591312443     1.007825032070
           C         -0.634106510966    -0.396726694608     0.019636312443    12.000000000000
           H         -2.557078510966     0.235585305392     0.747218312443     1.007825032070
           H         -1.814784510966     1.372762305392    -0.338095687557     1.007825032070
           C         -1.157532510966    -1.192163694608    -1.177910687557    12.000000000000
           H         -0.435965510966    -1.074593694608     0.847333312443     1.007825032070
           H          0.323829489034     0.050847305392    -0.238387687557     1.007825032070
           C         -0.189680510966    -2.288891694608    -1.630016687557    12.000000000000
           H         -2.118871510966    -1.628054694608    -0.917990687557     1.007825032070
           H         -1.343580510966    -0.512608694608    -2.008558687557     1.007825032070
           C          1.242582489034    -2.133707694608    -1.105982687557    12.000000000000
           H         -0.171438510966    -2.327019694608    -2.718091687557     1.007825032070
           H         -0.575450510966    -3.251085694608    -1.299748687557     1.007825032070
           C          1.986581489034    -0.909643694608    -1.642408687557    12.000000000000
           H          1.803702489034    -3.026049694608    -1.372099687557     1.007825032070
           H          1.226528489034    -2.099270694608    -0.018564687557     1.007825032070
           H          2.004308489034    -0.909085694608    -2.729125687557     1.007825032070
           H          1.528347489034     0.018825305392    -1.318462687557     1.007825032070
           H          3.015592489034    -0.902205694608    -1.295888687557     1.007825032070

  Charge       = 0
  Multiplicity = 1
  Basis Set: 6-31G*
  Basis Set:

    Orbital Energies (a.u.)
    -----------------------

    Doubly Occupied:

       1A    -20.562041     2A    -11.326078     3A    -11.234211
       4A    -11.233304     5A    -11.219550     6A    -11.218527
       7A    -11.216009     8A    -11.215393     9A    -11.208032
      10A     -1.402062    11A     -1.106809    12A     -1.068435
      13A     -1.006086    14A     -0.948090    15A     -0.874700
      16A     -0.830547    17A     -0.788926    18A     -0.765646
      19A     -0.667646    20A     -0.662702    21A     -0.634882
      22A     -0.628645    23A     -0.608927    24A     -0.588579
      25A     -0.561885    26A     -0.559562    27A     -0.539992
      28A     -0.521181    29A     -0.513501    30A     -0.496207
      31A     -0.493188    32A     -0.479473    33A     -0.449857
      34A     -0.446164    35A     -0.444304    36A     -0.409232

  @DF-RHF Final Energy:  -387.10319958552549

   => Energetics <=

    Nuclear Repulsion Energy =            460.3064431559269565
    One-Electron Energy =               -1436.9584923008833357
    Two-Electron Energy =                 589.5488495594285041
    DFT Exchange-Correlation Energy =       0.0000000000000000
    Empirical Dispersion Energy =           0.0000000000000000
    PCM Polarization Energy =               0.0000000000000000
    EFP Energy =                            0.0000000000000000
    Total Energy =                       -387.1031995855279320

  Mulliken Charges: (a.u.)
   Center  Symbol    Alpha    Beta     Spin     Total
       1     H     0.43271  0.43271  0.00000  0.13457
       2     C     2.83147  2.83147  0.00000  0.33706
       3     C     3.20761  3.20761  0.00000 -0.41522
       4     O     4.23797  4.23797  0.00000 -0.47594
       5     C     3.16375  3.16375  0.00000 -0.32750
       6     H     0.40011  0.40011  0.00000  0.19978
       7     H     0.40679  0.40679  0.00000  0.18643
       8     C     3.16181  3.16181  0.00000 -0.32361
       9     H     0.41369  0.41369  0.00000  0.17262
      10     H     0.42056  0.42056  0.00000  0.15887
      11     C     3.15546  3.15546  0.00000 -0.31091
      12     H     0.41734  0.41734  0.00000  0.16532
      13     H     0.41813  0.41813  0.00000  0.16374
      14     C     3.15475  3.15475  0.00000 -0.30950
      15     H     0.41912  0.41912  0.00000  0.16176
      16     H     0.42168  0.42168  0.00000  0.15664
      17     C     3.16302  3.16302  0.00000 -0.32605
      18     H     0.42065  0.42065  0.00000  0.15870
      19     H     0.41985  0.41985  0.00000  0.16030
      20     C     3.24090  3.24090  0.00000 -0.48180
      21     H     0.41761  0.41761  0.00000  0.16478
      22     H     0.41797  0.41797  0.00000  0.16407
      23     H     0.42205  0.42205  0.00000  0.15591
      24     H     0.41901  0.41901  0.00000  0.16198
      25     H     0.41600  0.41600  0.00000  0.16800

   Total alpha = 36.00000, Total beta = 36.00000, Total charge = -0.00000
