  ==> Input File <==

--------------------------------------------------------------------------
set {
	reference rhf
	basis cc-pvtz
}

set_num_threads( 4 )
memory 2 gb

molecule MOL {
0 1

O	 0.749630	 1.305591	 -0.000460
C	 0.576499	 0.134701	 -0.003900
C	 -0.765656	 -0.550508	 -0.002152
O	 1.564816	 -0.744612	 -0.000631
C	 -1.945526	 0.411052	 0.000603
H	 -0.794329	 -1.203792	 -0.868145
H	 -0.791555	 -1.205429	 0.862701
C	 -2.336043	 0.836530	 1.411769
H	 -2.789429	 -0.057480	 -0.491027
H	 -1.697411	 1.282691	 -0.592746
H	 -2.619846	 -0.017877	 2.017372
H	 -3.176731	 1.519362	 1.390633
H	 -1.515631	 1.338415	 1.914128
C	 2.884339	 -0.237801	 0.002883
H	 3.064150	 0.362814	 -0.876312
H	 3.533055	 -1.098529	 0.004958
H	 3.059365	 0.363432	 0.882614

	symmetry c1
}
set optking {
	frozen_dihedral = ("
		9 5 3 6
	")
}

ee = optimize('scf')
oeprop('DIPOLE', 'QUADRUPOLE', 'MULLIKEN_CHARGES')
f=open( 'psi4out.xyz', 'w' )
f.write( "17  " )
f.write( str(ee) + "\n" )
f.write( MOL.save_string_xyz() )
f.close()
--------------------------------------------------------------------------

    Molecular point group: c1
  Charge       = 0
  Multiplicity = 1
  Basis Set: CC-PVTZ
  Basis Set:
  @DF-RHF Final Energy:  -345.03347606432743
    Total Energy =                       -345.0334760643276013
    Molecular point group: c1
  Basis Set: CC-PVTZ
  Basis Set:
  Basis Set: CC-PVTZ
  Basis Set:
  @DF-RHF Final Energy:  -345.03346882828623
    Total Energy =                       -345.0334688282864590
  Basis Set: CC-PVTZ
  Basis Set:
  Basis Set: CC-PVTZ
  Basis Set:
  @DF-RHF Final Energy:  -345.03249711914560
    Total Energy =                       -345.0324971191454324
  Basis Set: CC-PVTZ
  Basis Set:
  Basis Set: CC-PVTZ
  Basis Set:
  @DF-RHF Final Energy:  -345.03372252248101
    Total Energy =                       -345.0337225224806730
  Basis Set: CC-PVTZ
  Basis Set:
  Basis Set: CC-PVTZ
  Basis Set:
  @DF-RHF Final Energy:  -345.03373335603192
    Total Energy =                       -345.0337333560318029
  Basis Set: CC-PVTZ
  Basis Set:
  Basis Set: CC-PVTZ
  Basis Set:
  @DF-RHF Final Energy:  -345.03373511297423
    Total Energy =                       -345.0337351129742274
  Basis Set: CC-PVTZ
  Basis Set:
  Charge       = 0
  Multiplicity = 1
  Basis Set: CC-PVTZ
  Basis Set:

    Orbital Energies (a.u.)
    -----------------------

    Doubly Occupied:

       1A    -20.597280     2A    -20.535321     3A    -11.365892
       4A    -11.279198     5A    -11.234184     6A    -11.219548
       7A    -11.207666     8A     -1.473400     9A     -1.366920
      10A     -1.079697    11A     -1.001270    12A     -0.939176
      13A     -0.829898    14A     -0.768606    15A     -0.705157
      16A     -0.684975    17A     -0.676063    18A     -0.619632
      19A     -0.613989    20A     -0.568917    21A     -0.568157
      22A     -0.535746    23A     -0.525564    24A     -0.488172
      25A     -0.482887    26A     -0.482438    27A     -0.461092
      28A     -0.442106

  @DF-RHF Final Energy:  -345.03373530931088

   => Energetics <=

    Nuclear Repulsion Energy =            317.1078172356333766
    One-Electron Energy =               -1098.7772023174470633
    Two-Electron Energy =                 436.6356497725026884
    DFT Exchange-Correlation Energy =       0.0000000000000000
    Empirical Dispersion Energy =           0.0000000000000000
    PCM Polarization Energy =               0.0000000000000000
    EFP Energy =                            0.0000000000000000
    Total Energy =                       -345.0337353093110551
    Molecular point group: c1
  Basis Set: CC-PVTZ
  Basis Set:

  -Total Gradient:
     Atom            X                  Y                   Z
    ------   -----------------  -----------------  -----------------
       1       -0.000018337856     0.000006635341     0.000018089761
       2       -0.000002262533    -0.000010923976    -0.000005304207
       3        0.002256756220     0.002947657903    -0.002678532485
       4        0.000003742904    -0.000000312663    -0.000006615689
       5       -0.001487253091    -0.002009772089     0.003728170549
       6       -0.001640969508    -0.002123446955     0.001634003033
       7       -0.000000754968     0.000001596848     0.000013558201
       8        0.000025524947    -0.000002517383    -0.000002332511
       9        0.000870707383     0.001192090150    -0.002696323242
      10        0.000002086441     0.000001772576    -0.000004161383
      11       -0.000002322209     0.000002016517     0.000003194850
      12       -0.000001841224    -0.000003345534    -0.000002984584
      13       -0.000003038163    -0.000002083621    -0.000002735898
      14        0.000000086751     0.000002223489     0.000000528066
      15        0.000000007509    -0.000000350257     0.000000416614
      16       -0.000001877762    -0.000000907922     0.000000446261
      17       -0.000000254838    -0.000000332422     0.000000582663

  **** Optimization is complete! (in 7 steps) ****
    Final optimized geometry and variables:
    Molecular point group: c1

    Geometry (in Angstrom), charge = 0, multiplicity = 1:

    O            0.618055059022     1.136528065244    -0.210010070857
    C            0.440822308183    -0.033981604917    -0.214296837398
    C           -0.902217655285    -0.719306077072    -0.229271278328
    O            1.427020664161    -0.915069512151    -0.208436089892
    C           -2.097635563345     0.230685680570    -0.194146372871
    H           -0.932732350078    -1.364485416375    -1.099884781806
    H           -0.918790668271    -1.397442232683     0.618315624381
    C           -2.481904142238     0.675753086868     1.212130596139
    H           -2.937909691611    -0.253303256663    -0.679568006853
    H           -1.866784688693     1.101571593791    -0.794521978198
    H           -2.763798147766    -0.171771370780     1.828708403182
    H           -3.322402228895     1.359099487806     1.185075492518
    H           -1.657170409345     1.185366279815     1.695836471669
    C            2.747684893520    -0.411641360117    -0.198560519510
    H            2.932755961915     0.190557410122    -1.075645084471
    H            3.394622988173    -1.273772541159    -0.195744559302
    H            2.920710206799     0.187271516911     0.683224552356

  Mulliken Charges: (a.u.)
   Center  Symbol    Alpha    Beta     Spin     Total
       1     O     4.19818  4.19818  0.00000 -0.39636
       2     C     2.80375  2.80375  0.00000  0.39249
       3     C     3.10418  3.10418  0.00000 -0.20835
       4     O     4.14666  4.14666  0.00000 -0.29331
       5     C     3.08631  3.08631  0.00000 -0.17262
       6     H     0.43262  0.43262  0.00000  0.13476
       7     H     0.44171  0.44171  0.00000  0.11658
       8     C     3.14932  3.14932  0.00000 -0.29864
       9     H     0.44794  0.44794  0.00000  0.10412
      10     H     0.44481  0.44481  0.00000  0.11038
      11     H     0.45816  0.45816  0.00000  0.08367
      12     H     0.44821  0.44821  0.00000  0.10358
      13     H     0.44757  0.44757  0.00000  0.10486
      14     C     3.03661  3.03661  0.00000 -0.07322
      15     H     0.45424  0.45424  0.00000  0.09152
      16     H     0.44532  0.44532  0.00000  0.10935
      17     H     0.45440  0.45440  0.00000  0.09121

   Total alpha = 28.00000, Total beta = 28.00000, Total charge = -0.00000
