  ==> Input File <==

--------------------------------------------------------------------------
set {
	reference rhf
	basis 6-31G*
}

set_num_threads( 4 )
memory 2 gb

molecule MOL {
0 1

H	 2.652209	 0.763231	 0.000000
O	 2.263154	 -0.100023	 0.000000
C	 0.912879	 -0.015685	 0.000000
C	 0.346790	 1.180296	 0.421610
C	 0.102613	 -1.065770	 -0.399841
H	 0.992930	 1.982008	 0.727503
C	 -1.027856	 1.314630	 0.439219
H	 0.542489	 -1.993213	 -0.726765
C	 -1.276477	 -0.917071	 -0.377115
H	 -1.461394	 2.242841	 0.766566
C	 -1.850779	 0.269184	 0.040777
H	 -1.898390	 -1.737167	 -0.689136
H	 -2.919408	 0.381108	 0.057188

	symmetry c1
}
set optking {
	frozen_dihedral = ("
		4 3 2 1
	")
}

ee = optimize('scf')
oeprop('DIPOLE', 'QUADRUPOLE', 'MULLIKEN_CHARGES')
f=open( 'psi4out.xyz', 'w' )
f.write( "13  " )
f.write( str(ee) + "\n" )
f.write( MOL.save_string_xyz() )
f.close()
--------------------------------------------------------------------------

    Molecular point group: c1
  Charge       = 0
  Multiplicity = 1
  Basis Set: 6-31G*
  Basis Set:
  @DF-RHF Final Energy:  -305.55504849810711
    Total Energy =                       -305.5550484981070554
    Molecular point group: c1
  Basis Set: 6-31G*
  Basis Set:
  Basis Set: 6-31G*
  Basis Set:
  @DF-RHF Final Energy:  -305.55691422782263
    Total Energy =                       -305.5569142278228583
  Basis Set: 6-31G*
  Basis Set:
  Basis Set: 6-31G*
  Basis Set:
  @DF-RHF Final Energy:  -305.55707693613795
    Total Energy =                       -305.5570769361380030
  Basis Set: 6-31G*
  Basis Set:
  Basis Set: 6-31G*
  Basis Set:
  @DF-RHF Final Energy:  -305.55709794804386
    Total Energy =                       -305.5570979480441451
  Basis Set: 6-31G*
  Basis Set:
  Basis Set: 6-31G*
  Basis Set:
  @DF-RHF Final Energy:  -305.55710141254468
    Total Energy =                       -305.5571014125449665
  Basis Set: 6-31G*
  Basis Set:
  Charge       = 0
  Multiplicity = 1
  Basis Set: 6-31G*
  Basis Set:

    Orbital Energies (a.u.)
    -----------------------

    Doubly Occupied:

       1A    -20.589150     2A    -11.297174     3A    -11.236722
       4A    -11.234712     5A    -11.228034     6A    -11.222274
       7A    -11.222142     8A     -1.407300     9A     -1.147289
      10A     -1.018546    11A     -1.003981    12A     -0.845402
      13A     -0.822120    14A     -0.735564    15A     -0.683460
      16A     -0.649457    17A     -0.610863    18A     -0.591491
      19A     -0.588264    20A     -0.555297    21A     -0.513921
      22A     -0.489979    23A     -0.478042    24A     -0.337960
      25A     -0.310605

  @DF-RHF Final Energy:  -305.55710176858975

   => Energetics <=

    Nuclear Repulsion Energy =            273.0940573962964208
    One-Electron Energy =                -955.6628177527727530
    Two-Electron Energy =                 377.0116585878865294
    DFT Exchange-Correlation Energy =       0.0000000000000000
    Empirical Dispersion Energy =           0.0000000000000000
    PCM Polarization Energy =               0.0000000000000000
    EFP Energy =                            0.0000000000000000
    Total Energy =                       -305.5571017685898028
    Molecular point group: c1
  Basis Set: 6-31G*
  Basis Set:

  -Total Gradient:
     Atom            X                  Y                   Z
    ------   -----------------  -----------------  -----------------
       1       -0.000000707726     0.000016036417    -0.001702682297
       2        0.000061609625    -0.000259826931     0.002822385928
       3        0.000056533743     0.000715990803    -0.002395601924
       4       -0.000029091880    -0.000433904149     0.001237975927
       5       -0.000086843433    -0.000013906020     0.000023509017
       6        0.000000032967    -0.000004258624     0.000002943844
       7       -0.000010858610     0.000001740504     0.000021567539
       8        0.000004608326     0.000007332653     0.000001003568
       9        0.000010539664    -0.000021525811     0.000029765951
      10       -0.000010059746    -0.000003011243    -0.000004484454
      11        0.000007818865    -0.000009953611    -0.000028055927
      12       -0.000003544950     0.000001293175    -0.000009071797
      13       -0.000000036850     0.000003992837     0.000000744625

  **** Optimization is complete! (in 6 steps) ****
    Final optimized geometry and variables:
    Molecular point group: c1

    Geometry (in Angstrom), charge = 0, multiplicity = 1:

    H            2.701792198411     0.568794209017    -0.026123739660
    O            2.251110143592    -0.263853456154    -0.036812671288
    C            0.908619883776    -0.080291602565    -0.019932945986
    C            0.329596570679     1.103477192116     0.408470969579
    C            0.109736564845    -1.144029303243    -0.415208246141
    H            0.951472383585     1.922300258124     0.729149202027
    C           -1.051661589336     1.226015613413     0.425067239207
    H            0.578881346076    -2.054398237254    -0.739023098084
    C           -1.265762472019    -1.011885082348    -0.385912660228
    H           -1.493896171133     2.149360156129     0.754574496361
    C           -1.857223122659     0.172936053175     0.030556053106
    H           -1.880663721010    -1.838634820386    -0.694380336595
    H           -2.927374444664     0.270254145961     0.047572500757

  Mulliken Charges: (a.u.)
   Center  Symbol    Alpha    Beta     Spin     Total
       1     H     0.27209  0.27209  0.00000  0.45581
       2     O     4.37930  4.37930  0.00000 -0.75860
       3     C     2.79684  2.79684  0.00000  0.40633
       4     C     3.14173  3.14173  0.00000 -0.28347
       5     C     3.12279  3.12279  0.00000 -0.24557
       6     H     0.40378  0.40378  0.00000  0.19244
       7     C     3.09094  3.09094  0.00000 -0.18188
       8     H     0.39173  0.39173  0.00000  0.21654
       9     C     3.09154  3.09154  0.00000 -0.18308
      10     H     0.39836  0.39836  0.00000  0.20329
      11     C     3.11242  3.11242  0.00000 -0.22483
      12     H     0.39802  0.39802  0.00000  0.20397
      13     H     0.40047  0.40047  0.00000  0.19906

   Total alpha = 25.00000, Total beta = 25.00000, Total charge =  0.00000
