  ==> Input File <==

--------------------------------------------------------------------------
set {
	reference rhf
	basis 6-31G*
}

set_num_threads( 4 )
memory 2 gb

molecule MOL {
0 1

H	 2.143914	 -1.074081	 -0.898409
C	 1.365093	 -0.351834	 -1.082397
O	 0.464886	 -0.454746	 -0.000158
H	 0.874950	 -0.584883	 -2.020199
H	 1.800555	 0.639011	 -1.133964
C	 -0.590998	 0.343045	 0.000118
O	 -1.699443	 -0.054298	 0.000227
H	 -0.340329	 1.404368	 0.000207

	symmetry c1
}
set optking {
	frozen_dihedral = ("
		2 3 6 7
	")
}

ee = optimize('scf')
oeprop('DIPOLE', 'QUADRUPOLE', 'MULLIKEN_CHARGES')
f=open( 'psi4out.xyz', 'w' )
f.write( "8  " )
f.write( str(ee) + "\n" )
f.write( MOL.save_string_xyz() )
f.close()
--------------------------------------------------------------------------

    Molecular point group: c1
  Charge       = 0
  Multiplicity = 1
  Basis Set: 6-31G*
  Basis Set:
  @DF-RHF Final Energy:  -227.77098641785977
    Total Energy =                       -227.7709864178598309
    Molecular point group: c1
  Basis Set: 6-31G*
  Basis Set:
  Basis Set: 6-31G*
  Basis Set:
  @DF-RHF Final Energy:  -227.77116745548719
    Total Energy =                       -227.7711674554871308
  Basis Set: 6-31G*
  Basis Set:
  Basis Set: 6-31G*
  Basis Set:
  @DF-RHF Final Energy:  -227.77113383407482
    Total Energy =                       -227.7711338340748739
  Basis Set: 6-31G*
  Basis Set:
  Basis Set: 6-31G*
  Basis Set:
  @DF-RHF Final Energy:  -227.77138113309644
    Total Energy =                       -227.7713811330964404
  Basis Set: 6-31G*
  Basis Set:
  Basis Set: 6-31G*
  Basis Set:
  @DF-RHF Final Energy:  -227.77138653859663
    Total Energy =                       -227.7713865385965164
  Basis Set: 6-31G*
  Basis Set:
  Charge       = 0
  Multiplicity = 1
  Basis Set: 6-31G*
  Basis Set:

    Orbital Energies (a.u.)
    -----------------------

    Doubly Occupied:

       1A    -20.603856     2A    -20.570277     3A    -11.383758
       4A    -11.302615     5A     -1.472194     6A     -1.384532
       7A     -0.988012     8A     -0.842355     9A     -0.737769
      10A     -0.686213    11A     -0.673819    12A     -0.621333
      13A     -0.566945    14A     -0.517897    15A     -0.471351
      16A     -0.456746

  @DF-RHF Final Energy:  -227.77138780422067

   => Energetics <=

    Nuclear Repulsion Energy =            121.4463237120836823
    One-Electron Energy =                -551.8760830815256213
    Two-Electron Energy =                 202.6583715652213016
    DFT Exchange-Correlation Energy =       0.0000000000000000
    Empirical Dispersion Energy =           0.0000000000000000
    PCM Polarization Energy =               0.0000000000000000
    EFP Energy =                            0.0000000000000000
    Total Energy =                       -227.7713878042206659
    Molecular point group: c1
  Basis Set: 6-31G*
  Basis Set:

  -Total Gradient:
     Atom            X                  Y                   Z
    ------   -----------------  -----------------  -----------------
       1       -0.000014766088     0.000009520145     0.000026261646
       2       -0.002288432607    -0.002662657111    -0.002343314742
       3        0.003346770635     0.004113936941     0.000714938846
       4       -0.000002133271     0.000003310424     0.000001047007
       5        0.000020169780    -0.000000753351    -0.000004053019
       6       -0.001168114544    -0.001763129467     0.007047572652
       7        0.000107209053     0.000315316115    -0.005448239024
       8       -0.000000702958    -0.000015543694     0.000005786633

  **** Optimization is complete! (in 6 steps) ****
    Final optimized geometry and variables:
    Molecular point group: c1

    Geometry (in Angstrom), charge = 0, multiplicity = 1:

    H            2.298615528889    -0.875506645764    -0.576509112057
    C            1.462112902342    -0.228614540438    -0.786459566781
    O            0.551857183739    -0.382929589526     0.282071950239
    H            0.999176492870    -0.521730867855    -1.720278420913
    H            1.812045657574     0.796895315967    -0.860118995082
    C           -0.475263531246     0.471059679314     0.304416450850
    O           -1.603846886405     0.143434845301     0.255806730054
    H           -0.164244086167     1.514544851764     0.359986342425

  Mulliken Charges: (a.u.)
   Center  Symbol    Alpha    Beta     Spin     Total
       1     H     0.39882  0.39882  0.00000  0.20237
       2     C     3.09618  3.09618  0.00000 -0.19237
       3     O     4.28841  4.28841  0.00000 -0.57683
       4     H     0.40883  0.40883  0.00000  0.18233
       5     H     0.41978  0.41978  0.00000  0.16044
       6     C     2.73246  2.73246  0.00000  0.53507
       7     O     4.22779  4.22779  0.00000 -0.45557
       8     H     0.42772  0.42772  0.00000  0.14456

   Total alpha = 16.00000, Total beta = 16.00000, Total charge =  0.00000
