  ==> Input File <==

--------------------------------------------------------------------------
set {
	reference rhf
	basis 6-31G*
}

set_num_threads( 4 )
memory 2 gb

molecule MOL {
0 1

H	 -2.365627	 -1.312883	 -0.379134
C	 -1.358347	 -1.274295	 0.019669
C	 -0.681945	 0.000119	 -0.470601
H	 -0.826096	 -2.155117	 -0.321105
H	 -1.409554	 -1.292283	 1.100109
C	 -1.357790	 1.274691	 0.020220
N	 0.739525	 -0.000142	 0.006128
H	 -0.594190	 0.000341	 -1.545128
H	 -2.364980	 1.313977	 -0.378631
H	 -0.825080	 2.155361	 -0.320114
H	 -1.409060	 1.292170	 1.100671
O	 1.552291	 0.528589	 -0.687006
O	 0.966919	 -0.530644	 1.051241

	symmetry c1
}
set optking {
	frozen_dihedral = ("
		12 7 3 8
	")
}

ee = optimize('scf')
oeprop('DIPOLE', 'QUADRUPOLE', 'MULLIKEN_CHARGES')
f=open( 'psi4out.xyz', 'w' )
f.write( "13  " )
f.write( str(ee) + "\n" )
f.write( MOL.save_string_xyz() )
f.close()
--------------------------------------------------------------------------

    Molecular point group: c1
  Charge       = 0
  Multiplicity = 1
  Basis Set: 6-31G*
  Basis Set:
  @DF-RHF Final Energy:  -321.73825770397173
    Total Energy =                       -321.7382577039716125
    Molecular point group: c1
  Basis Set: 6-31G*
  Basis Set:
  Basis Set: 6-31G*
  Basis Set:
  @DF-RHF Final Energy:  -321.73393166635464
    Total Energy =                       -321.7339316663545787
  Basis Set: 6-31G*
  Basis Set:
  Basis Set: 6-31G*
  Basis Set:
  @DF-RHF Final Energy:  -321.73827094098107
    Total Energy =                       -321.7382709409811241
  Basis Set: 6-31G*
  Basis Set:
  Basis Set: 6-31G*
  Basis Set:
  @DF-RHF Final Energy:  -321.73883715505775
    Total Energy =                       -321.7388371550576949
  Basis Set: 6-31G*
  Basis Set:
  Basis Set: 6-31G*
  Basis Set:
  @DF-RHF Final Energy:  -321.73884338319647
    Total Energy =                       -321.7388433831963539
  Basis Set: 6-31G*
  Basis Set:
  Basis Set: 6-31G*
  Basis Set:
  @DF-RHF Final Energy:  -321.73884501069563
    Total Energy =                       -321.7388450106956839
  Basis Set: 6-31G*
  Basis Set:
  Charge       = 0
  Multiplicity = 1
  Basis Set: 6-31G*
  Basis Set:

    Orbital Energies (a.u.)
    -----------------------

    Doubly Occupied:

       1A    -20.600100     2A    -20.598664     3A    -15.843151
       4A    -11.306373     5A    -11.248644     6A    -11.242150
       7A     -1.628701     8A     -1.414108     9A     -1.143689
      10A     -0.973630    11A     -0.958010    12A     -0.813688
      13A     -0.752815    14A     -0.726965    15A     -0.722030
      16A     -0.648278    17A     -0.594175    18A     -0.587636
      19A     -0.572111    20A     -0.529855    21A     -0.522426
      22A     -0.481847    23A     -0.469675    24A     -0.446988

  @DF-RHF Final Energy:  -321.73884506995449

   => Energetics <=

    Nuclear Repulsion Energy =            256.8368778376932937
    One-Electron Energy =                -947.5000276148401781
    Two-Electron Energy =                 368.9243047071923343
    DFT Exchange-Correlation Energy =       0.0000000000000000
    Empirical Dispersion Energy =           0.0000000000000000
    PCM Polarization Energy =               0.0000000000000000
    EFP Energy =                            0.0000000000000000
    Total Energy =                       -321.7388450699544933
    Molecular point group: c1
  Basis Set: 6-31G*
  Basis Set:

  -Total Gradient:
     Atom            X                  Y                   Z
    ------   -----------------  -----------------  -----------------
       1        0.000002970373     0.000003111622     0.000001395526
       2        0.000000220656     0.000006986705    -0.000001074962
       3       -0.000048282730     0.000877548392     0.000100886042
       4       -0.000000154640     0.000003662571    -0.000002102529
       5       -0.000000692016    -0.000004936489     0.000004185704
       6       -0.000006585728    -0.000003806180    -0.000003520189
       7        0.000159257646    -0.000784266770    -0.000379343906
       8        0.000010685403    -0.000594041412    -0.000011221833
       9       -0.000003391762     0.000003292789     0.000002217228
      10       -0.000001668457    -0.000005043977    -0.000004591711
      11        0.000002452236     0.000000940058     0.000001588406
      12       -0.000116114954     0.000501468370     0.000282994152
      13        0.000001303969    -0.000004915679     0.000008588072

  **** Optimization is complete! (in 7 steps) ****
    Final optimized geometry and variables:
    Molecular point group: c1

    Geometry (in Angstrom), charge = 0, multiplicity = 1:

    H           -2.371617010302    -1.325841823387    -0.421347661938
    C           -1.377204315438    -1.296509254121     0.010390691031
    C           -0.681821888121    -0.031992649032    -0.466211946960
    H           -0.843412982926    -2.183865645454    -0.307774671544
    H           -1.463944583139    -1.315610366539     1.087770010145
    C           -1.343840192637     1.254031821205     0.023357317437
    N            0.742075657297    -0.001340574068     0.006498424688
    H           -0.592664156073    -0.021025228886    -1.541414408279
    H           -2.359844441932     1.294962924364    -0.351378030602
    H           -0.809529402689     2.124680533674    -0.335582937438
    H           -1.374652695096     1.279003197738     1.106406925571
    O            1.527061220093     0.556917288566    -0.697375494036
    O            0.994710889052    -0.490567120145     1.064233540063

  Mulliken Charges: (a.u.)
   Center  Symbol    Alpha    Beta     Spin     Total
       1     H     0.41134  0.41134  0.00000  0.17732
       2     C     3.24565  3.24565  0.00000 -0.49130
       3     C     3.02275  3.02275  0.00000 -0.04549
       4     H     0.40394  0.40394  0.00000  0.19213
       5     H     0.39797  0.39797  0.00000  0.20405
       6     C     3.25040  3.25040  0.00000 -0.50079
       7     N     3.21775  3.21775  0.00000  0.56449
       8     H     0.38651  0.38651  0.00000  0.22698
       9     H     0.40597  0.40597  0.00000  0.18806
      10     H     0.39678  0.39678  0.00000  0.20644
      11     H     0.40140  0.40140  0.00000  0.19720
      12     O     4.23007  4.23007  0.00000 -0.46015
      13     O     4.22946  4.22946  0.00000 -0.45892

   Total alpha = 24.00000, Total beta = 24.00000, Total charge = -0.00000
