  ==> Input File <==

--------------------------------------------------------------------------
set {
	reference rhf
	basis cc-pvtz
}

set_num_threads( 4 )
memory 2 gb

molecule MOL {
0 1

H	 1.763560	 -1.684256	 0.238989
O	 1.087260	 -1.112860	 -0.074349
C	 1.135873	 0.113391	 0.608264
C	 0.027642	 1.012027	 0.090274
H	 2.093675	 0.600377	 0.443256
H	 1.032093	 -0.043918	 1.678285
C	 -1.138737	 0.285728	 -0.581921
H	 0.464661	 1.708096	 -0.618252
H	 -0.340737	 1.603071	 0.925246
C	 -1.933983	 -0.631436	 0.343653
H	 -0.763151	 -0.285569	 -1.422081
H	 -1.808359	 1.035291	 -0.992333
H	 -2.789188	 -1.049673	 -0.174718
H	 -1.335629	 -1.461368	 0.700418
H	 -2.305435	 -0.092167	 1.209725

	symmetry c1
}
set optking {
	frozen_dihedral = ("
		2 3 4 8
	")
}

ee = optimize('scf')
oeprop('DIPOLE', 'QUADRUPOLE', 'MULLIKEN_CHARGES')
f=open( 'psi4out.xyz', 'w' )
f.write( "15  " )
f.write( str(ee) + "\n" )
f.write( MOL.save_string_xyz() )
f.close()
--------------------------------------------------------------------------

    Molecular point group: c1
  Charge       = 0
  Multiplicity = 1
  Basis Set: CC-PVTZ
  Basis Set:
  @DF-RHF Final Energy:  -232.23109690689773
    Total Energy =                       -232.2310969068976760
    Molecular point group: c1
  Basis Set: CC-PVTZ
  Basis Set:
  Basis Set: CC-PVTZ
  Basis Set:
  @DF-RHF Final Energy:  -232.23205719897200
    Total Energy =                       -232.2320571989716882
  Basis Set: CC-PVTZ
  Basis Set:
  Basis Set: CC-PVTZ
  Basis Set:
  @DF-RHF Final Energy:  -232.23238787998855
    Total Energy =                       -232.2323878799883232
  Basis Set: CC-PVTZ
  Basis Set:
  Basis Set: CC-PVTZ
  Basis Set:
  @DF-RHF Final Energy:  -232.23241346713030
    Total Energy =                       -232.2324134671304137
  Basis Set: CC-PVTZ
  Basis Set:
  Basis Set: CC-PVTZ
  Basis Set:
  @DF-RHF Final Energy:  -232.23241564651096
    Total Energy =                       -232.2324156465111287
  Basis Set: CC-PVTZ
  Basis Set:
  Charge       = 0
  Multiplicity = 1
  Basis Set: CC-PVTZ
  Basis Set:

    Orbital Energies (a.u.)
    -----------------------

    Doubly Occupied:

       1A    -20.547227     2A    -11.267050     3A    -11.211463
       4A    -11.205660     5A    -11.197032     6A     -1.365048
       7A     -1.061552     8A     -0.969043     9A     -0.866830
      10A     -0.774922    11A     -0.705406    12A     -0.650899
      13A     -0.608922    14A     -0.572600    15A     -0.563039
      16A     -0.528035    17A     -0.508077    18A     -0.477817
      19A     -0.463909    20A     -0.451725    21A     -0.428826

  @DF-RHF Final Energy:  -232.23241593406593

   => Energetics <=

    Nuclear Repulsion Energy =            193.3515398602820312
    One-Electron Energy =                -698.3177463182756810
    Two-Electron Energy =                 272.7337905239275528
    DFT Exchange-Correlation Energy =       0.0000000000000000
    Empirical Dispersion Energy =           0.0000000000000000
    PCM Polarization Energy =               0.0000000000000000
    EFP Energy =                            0.0000000000000000
    Total Energy =                       -232.2324159340660685
    Molecular point group: c1
  Basis Set: CC-PVTZ
  Basis Set:

  -Total Gradient:
     Atom            X                  Y                   Z
    ------   -----------------  -----------------  -----------------
       1       -0.000005013830     0.000004759685    -0.000010217289
       2       -0.003270854154    -0.002090355408     0.003375047123
       3        0.004506366267     0.003710072983    -0.003260482660
       4       -0.002106960735    -0.005736979827    -0.005203413438
       5       -0.000005879751     0.000013262381     0.000010473880
       6        0.000005735083    -0.000008345440    -0.000004016993
       7        0.000025746714     0.000038818249     0.000003914258
       8        0.000859322457     0.004079775488     0.005074822173
       9       -0.000009491150     0.000002902763     0.000006784106
      10       -0.000019310281     0.000017342887     0.000000311374
      11        0.000002322694     0.000000048327     0.000002118436
      12       -0.000001407749    -0.000010117791     0.000007471179
      13       -0.000000067612    -0.000010818308    -0.000000530103
      14        0.000012801182    -0.000007781340     0.000006190376
      15        0.000006690864    -0.000002584651    -0.000008472424

  **** Optimization is complete! (in 6 steps) ****
    Final optimized geometry and variables:
    Molecular point group: c1

    Geometry (in Angstrom), charge = 0, multiplicity = 1:

    H            2.025044634134    -1.529100999866     0.115246471011
    O            1.301994629537    -1.009827912865    -0.183873223101
    C            1.261375450697     0.202281140628     0.525625447382
    C            0.138628679235     1.102504232933    -0.006546884945
    H            2.211025442403     0.722883968370     0.449208789043
    H            1.091872214444    -0.007335482856     1.578492228595
    C           -1.040814810807     0.392819873368    -0.668304901892
    H            0.560372321456     1.846745395321    -0.673731454908
    H           -0.233368851319     1.679062265627     0.837412702306
    C           -1.850558513327    -0.481618469404     0.285150278641
    H           -0.686436412425    -0.206029834462    -1.496789494506
    H           -1.691256709737     1.154402793219    -1.087829936687
    H           -2.696895613609    -0.926591232545    -0.225971053939
    H           -1.248612156443    -1.286126611475     0.687577322166
    H           -2.237866974378     0.100245288264     1.116162853129

  Mulliken Charges: (a.u.)
   Center  Symbol    Alpha    Beta     Spin     Total
       1     H     0.39693  0.39693  0.00000  0.20613
       2     O     4.19513  4.19513  0.00000 -0.39027
       3     C     2.97892  2.97892  0.00000  0.04216
       4     C     3.10122  3.10122  0.00000 -0.20243
       5     H     0.46200  0.46200  0.00000  0.07600
       6     H     0.46932  0.46932  0.00000  0.06136
       7     C     3.08258  3.08258  0.00000 -0.16516
       8     H     0.44866  0.44866  0.00000  0.10268
       9     H     0.45691  0.45691  0.00000  0.08619
      10     C     3.15145  3.15145  0.00000 -0.30290
      11     H     0.44796  0.44796  0.00000  0.10408
      12     H     0.45071  0.45071  0.00000  0.09859
      13     H     0.44927  0.44927  0.00000  0.10146
      14     H     0.44990  0.44990  0.00000  0.10020
      15     H     0.45904  0.45904  0.00000  0.08192

   Total alpha = 21.00000, Total beta = 21.00000, Total charge = -0.00000
