  ==> Input File <==

--------------------------------------------------------------------------
set {
	reference rhf
	basis 6-31G*
}

set_num_threads( 4 )
memory 2 gb

molecule MOL {
0 1

O	 -0.000572	 0.607213	 1.682316
C	 -0.294084	 -0.236670	 0.899317
C	 -1.647456	 -0.883759	 0.788736
O	 0.550821	 -0.724572	 0.000672
H	 -2.050085	 -0.722814	 -0.204577
H	 -2.310978	 -0.463963	 1.529952
H	 -1.554559	 -1.953444	 0.936125
C	 1.863949	 -0.193559	 -0.000319
H	 2.028859	 0.409284	 -0.881648
H	 2.526261	 -1.045082	 -0.000003
H	 2.029520	 0.410555	 0.880008

	symmetry c1
}
set optking {
	frozen_dihedral = ("
		2 4 8 9
	")
}

ee = optimize('scf')
oeprop('DIPOLE', 'QUADRUPOLE', 'MULLIKEN_CHARGES')
f=open( 'psi4out.xyz', 'w' )
f.write( "11  " )
f.write( str(ee) + "\n" )
f.write( MOL.save_string_xyz() )
f.close()
--------------------------------------------------------------------------

    Molecular point group: c1
  Charge       = 0
  Multiplicity = 1
  Basis Set: 6-31G*
  Basis Set:
  @DF-RHF Final Energy:  -266.83367284538582
    Total Energy =                       -266.8336728453857631
    Molecular point group: c1
  Basis Set: 6-31G*
  Basis Set:
  Basis Set: 6-31G*
  Basis Set:
  @DF-RHF Final Energy:  -266.83394951486417
    Total Energy =                       -266.8339495148641163
  Basis Set: 6-31G*
  Basis Set:
  Basis Set: 6-31G*
  Basis Set:
  @DF-RHF Final Energy:  -266.83420562508093
    Total Energy =                       -266.8342056250804717
  Basis Set: 6-31G*
  Basis Set:
  Basis Set: 6-31G*
  Basis Set:
  @DF-RHF Final Energy:  -266.83437152735405
    Total Energy =                       -266.8343715273539374
  Basis Set: 6-31G*
  Basis Set:
  Basis Set: 6-31G*
  Basis Set:
  @DF-RHF Final Energy:  -266.83443850845003
    Total Energy =                       -266.8344385084502619
  Basis Set: 6-31G*
  Basis Set:
  Charge       = 0
  Multiplicity = 1
  Basis Set: 6-31G*
  Basis Set:

    Orbital Energies (a.u.)
    -----------------------

    Doubly Occupied:

       1A    -20.604911     2A    -20.545741     3A    -11.377799
       4A    -11.280727     5A    -11.234032     6A     -1.468499
       7A     -1.364970     8A     -1.035964     9A     -0.953444
      10A     -0.777185    11A     -0.696929    12A     -0.678706
      13A     -0.676998    14A     -0.597222    15A     -0.591184
      16A     -0.560554    17A     -0.528596    18A     -0.519199
      19A     -0.454144    20A     -0.442493

  @DF-RHF Final Energy:  -266.83444638118931

   => Energetics <=

    Nuclear Repulsion Energy =            182.8565360489573095
    One-Electron Energy =                -726.6033731812387941
    Two-Electron Energy =                 276.9123907510922891
    DFT Exchange-Correlation Energy =       0.0000000000000000
    Empirical Dispersion Energy =           0.0000000000000000
    PCM Polarization Energy =               0.0000000000000000
    EFP Energy =                            0.0000000000000000
    Total Energy =                       -266.8344463811891956
    Molecular point group: c1
  Basis Set: 6-31G*
  Basis Set:

  -Total Gradient:
     Atom            X                  Y                   Z
    ------   -----------------  -----------------  -----------------
       1        0.000005206172     0.000025170677     0.000015497827
       2        0.000218157703    -0.000517263867     0.000440870045
       3       -0.000023444269     0.000001325772     0.000002008965
       4       -0.000231096542     0.000595445423    -0.000834181515
       5        0.000010474747     0.000004328989     0.000006129791
       6       -0.000011120018    -0.000006963329     0.000004634734
       7        0.000003718529     0.000003275825     0.000007685998
       8       -0.000255875602     0.000499584199     0.000715681657
       9        0.000215783956    -0.000654489582    -0.000367264467
      10        0.000047483206     0.000022073977     0.000002543175
      11        0.000020712118     0.000027511915     0.000006393790

  **** Optimization is complete! (in 6 steps) ****
    Final optimized geometry and variables:
    Molecular point group: c1

    Geometry (in Angstrom), charge = 0, multiplicity = 1:

    O           -0.151597005259     0.902143384006     1.027575836754
    C           -0.413838967791     0.056197646228     0.236151752053
    C           -1.755023738718    -0.612940225265     0.105216047596
    O            0.444126346702    -0.425246155250    -0.655452210607
    H           -2.145928014530    -0.455422183356    -0.893294485811
    H           -2.435598524691    -0.206278164191     0.838135300735
    H           -1.646312259009    -1.681436960384     0.250528899288
    C            1.771999942690     0.071784405780    -0.678007255980
    H            1.903834819362     0.660869096450    -1.575276780573
    H            2.432456354348    -0.782643661519    -0.711512981607
    H            1.974271632242     0.670520664585     0.193856392259

  Mulliken Charges: (a.u.)
   Center  Symbol    Alpha    Beta     Spin     Total
       1     O     4.28173  4.28173  0.00000 -0.56346
       2     C     2.62207  2.62207  0.00000  0.75587
       3     C     3.28211  3.28211  0.00000 -0.56422
       4     O     4.30146  4.30146  0.00000 -0.60293
       5     H     0.40002  0.40002  0.00000  0.19997
       6     H     0.39681  0.39681  0.00000  0.20639
       7     H     0.40016  0.40016  0.00000  0.19969
       8     C     3.09822  3.09822  0.00000 -0.19644
       9     H     0.41254  0.41254  0.00000  0.17492
      10     H     0.41113  0.41113  0.00000  0.17773
      11     H     0.39376  0.39376  0.00000  0.21248

   Total alpha = 20.00000, Total beta = 20.00000, Total charge =  0.00000
