  ==> Input File <==

--------------------------------------------------------------------------
set {
	reference rhf
	basis 6-31G*
}

set_num_threads( 4 )
memory 2 gb

molecule MOL {
0 1

H	 2.045164	 -1.204752	 -0.974725
C	 1.246079	 -0.509318	 -1.174451
O	 0.464886	 -0.454746	 -0.000158
H	 0.662185	 -0.866482	 -2.014408
H	 1.666463	 0.461634	 -1.408098
C	 -0.590998	 0.343045	 0.000118
O	 -1.699443	 -0.054298	 0.000227
H	 -0.340329	 1.404368	 0.000207

	symmetry c1
}
set optking {
	frozen_dihedral = ("
		2 3 6 7
	")
}

ee = optimize('scf')
oeprop('DIPOLE', 'QUADRUPOLE', 'MULLIKEN_CHARGES')
f=open( 'psi4out.xyz', 'w' )
f.write( "8  " )
f.write( str(ee) + "\n" )
f.write( MOL.save_string_xyz() )
f.close()
--------------------------------------------------------------------------

    Molecular point group: c1
  Charge       = 0
  Multiplicity = 1
  Basis Set: 6-31G*
  Basis Set:
  @DF-RHF Final Energy:  -227.76939786282455
    Total Energy =                       -227.7693978628246043
    Molecular point group: c1
  Basis Set: 6-31G*
  Basis Set:
  Basis Set: 6-31G*
  Basis Set:
  @DF-RHF Final Energy:  -227.76976080315029
    Total Energy =                       -227.7697608031501773
  Basis Set: 6-31G*
  Basis Set:
  Basis Set: 6-31G*
  Basis Set:
  @DF-RHF Final Energy:  -227.76975249281440
    Total Energy =                       -227.7697524928144901
  Basis Set: 6-31G*
  Basis Set:
  Basis Set: 6-31G*
  Basis Set:
  @DF-RHF Final Energy:  -227.76971658277049
    Total Energy =                       -227.7697165827705135
  Basis Set: 6-31G*
  Basis Set:
  Basis Set: 6-31G*
  Basis Set:
  @DF-RHF Final Energy:  -227.76982427404914
    Total Energy =                       -227.7698242740492560
  Basis Set: 6-31G*
  Basis Set:
  Charge       = 0
  Multiplicity = 1
  Basis Set: 6-31G*
  Basis Set:

    Orbital Energies (a.u.)
    -----------------------

    Doubly Occupied:

       1A    -20.600622     2A    -20.572710     3A    -11.383952
       4A    -11.301652     5A     -1.471174     6A     -1.383953
       7A     -0.986747     8A     -0.839888     9A     -0.737620
      10A     -0.686665    11A     -0.670613    12A     -0.624223
      13A     -0.565609    14A     -0.513587    15A     -0.472924
      16A     -0.457356

  @DF-RHF Final Energy:  -227.76982473507505

   => Energetics <=

    Nuclear Repulsion Energy =            121.5449608758845272
    One-Electron Energy =                -552.0909831612827929
    Two-Electron Energy =                 202.7761975503232748
    DFT Exchange-Correlation Energy =       0.0000000000000000
    Empirical Dispersion Energy =           0.0000000000000000
    PCM Polarization Energy =               0.0000000000000000
    EFP Energy =                            0.0000000000000000
    Total Energy =                       -227.7698247350750194
    Molecular point group: c1
  Basis Set: 6-31G*
  Basis Set:

  -Total Gradient:
     Atom            X                  Y                   Z
    ------   -----------------  -----------------  -----------------
       1       -0.000015393342     0.000009501926     0.000031586804
       2       -0.001871411679    -0.002262726126    -0.001210999778
       3        0.002751261171     0.003366555208    -0.000292669413
       4        0.000002479253    -0.000000677373    -0.000004334449
       5        0.000013981778     0.000009301228    -0.000001461598
       6       -0.000984665839    -0.001245406731     0.005596418637
       7        0.000106277507     0.000135247891    -0.004113742695
       8       -0.000002528847    -0.000011796021    -0.000004797509

  **** Optimization is complete! (in 6 steps) ****
    Final optimized geometry and variables:
    Molecular point group: c1

    Geometry (in Angstrom), charge = 0, multiplicity = 1:

    H            2.221770411843    -0.978195464233    -0.652515504594
    C            1.374677075808    -0.342330428926    -0.853509681068
    O            0.590173045309    -0.331108762035     0.321696396351
    H            0.805160453543    -0.742514642498    -1.682838484036
    H            1.726010077594     0.655254380109    -1.100460694975
    C           -0.449468684851     0.512674871694     0.317676445201
    O           -1.574312587042     0.172151986195     0.274540986719
    H           -0.150230051040     1.559953014040     0.353169277983

  Mulliken Charges: (a.u.)
   Center  Symbol    Alpha    Beta     Spin     Total
       1     H     0.39912  0.39912  0.00000  0.20177
       2     C     3.09541  3.09541  0.00000 -0.19083
       3     O     4.29168  4.29168  0.00000 -0.58335
       4     H     0.40861  0.40861  0.00000  0.18278
       5     H     0.42010  0.42010  0.00000  0.15980
       6     C     2.73403  2.73403  0.00000  0.53193
       7     O     4.22495  4.22495  0.00000 -0.44990
       8     H     0.42610  0.42610  0.00000  0.14779

   Total alpha = 16.00000, Total beta = 16.00000, Total charge = -0.00000
