  ==> Input File <==

--------------------------------------------------------------------------
set {
	reference rhf
	basis cc-pvtz
}

set_num_threads( 4 )
memory 2 gb

molecule MOL {
0 1

H	 -3.829147	 -2.194998	 -0.461178
C	 -2.759432	 -2.108148	 -0.479644
C	 -1.997411	 -3.093529	 -1.081301
C	 -2.147368	 -1.011885	 0.097909
H	 -2.473179	 -3.944153	 -1.529390
C	 -0.622879	 -2.981226	 -1.104634
H	 -2.739213	 -0.248263	 0.564248
C	 -0.771134	 -0.898003	 0.075358
H	 -0.017732	 -3.734787	 -1.566154
C	 -0.004664	 -1.883282	 -0.526522
H	 -0.293987	 -0.050290	 0.521725
C	 1.483515	 -1.808566	 -0.578120
O	 1.968286	 -0.725612	 -0.000027
O	 2.168008	 -2.633278	 -1.084577
C	 3.373556	 -0.568203	 0.000011
H	 3.695416	 -0.031588	 -0.879663
H	 3.782700	 -1.565294	 -0.000152
H	 3.695405	 -0.031851	 0.879862

	symmetry c1
}
set optking {
	frozen_dihedral = ("
		12 13 15 16
	")
}

ee = optimize('scf')
oeprop('DIPOLE', 'QUADRUPOLE', 'MULLIKEN_CHARGES')
f=open( 'psi4out.xyz', 'w' )
f.write( "18  " )
f.write( str(ee) + "\n" )
f.write( MOL.save_string_xyz() )
f.close()
--------------------------------------------------------------------------

    Molecular point group: c1
  Charge       = 0
  Multiplicity = 1
  Basis Set: CC-PVTZ
  Basis Set:
  @DF-RHF Final Energy:  -457.50727554562042
    Total Energy =                       -457.5072755456210416
    Molecular point group: c1
  Basis Set: CC-PVTZ
  Basis Set:
  Basis Set: CC-PVTZ
  Basis Set:
  @DF-RHF Final Energy:  -457.50855225662463
    Total Energy =                       -457.5085522566241707
  Basis Set: CC-PVTZ
  Basis Set:
  Basis Set: CC-PVTZ
  Basis Set:
  @DF-RHF Final Energy:  -457.50897686196038
    Total Energy =                       -457.5089768619604911
  Basis Set: CC-PVTZ
  Basis Set:
  Basis Set: CC-PVTZ
  Basis Set:
  @DF-RHF Final Energy:  -457.50889962237977
    Total Energy =                       -457.5088996223802269
  Basis Set: CC-PVTZ
  Basis Set:
  Basis Set: CC-PVTZ
  Basis Set:
  @DF-RHF Final Energy:  -457.50914474872860
    Total Energy =                       -457.5091447487288860
  Basis Set: CC-PVTZ
  Basis Set:
  Charge       = 0
  Multiplicity = 1
  Basis Set: CC-PVTZ
  Basis Set:

    Orbital Energies (a.u.)
    -----------------------

    Doubly Occupied:

       1A    -20.600521     2A    -20.534033     3A    -11.372463
       4A    -11.280670     5A    -11.244798     6A    -11.243345
       7A    -11.242494     8A    -11.239845     9A    -11.235892
      10A    -11.235125    11A     -1.475779    12A     -1.368812
      13A     -1.170573    14A     -1.051709    15A     -1.028865
      16A     -0.981210    17A     -0.863007    18A     -0.838266
      19A     -0.780812    20A     -0.745042    21A     -0.688148
      22A     -0.680554    23A     -0.676271    24A     -0.634185
      25A     -0.629917    26A     -0.601115    27A     -0.587695
      28A     -0.568047    29A     -0.529173    30A     -0.520186
      31A     -0.509793    32A     -0.501905    33A     -0.462548
      34A     -0.449340    35A     -0.350114    36A     -0.346066

  @DF-RHF Final Energy:  -457.50914874088210

   => Energetics <=

    Nuclear Repulsion Energy =            493.7965259392891539
    One-Electron Energy =               -1602.0747112889964683
    Two-Electron Energy =                 650.7690366088245355
    DFT Exchange-Correlation Energy =       0.0000000000000000
    Empirical Dispersion Energy =           0.0000000000000000
    PCM Polarization Energy =               0.0000000000000000
    EFP Energy =                            0.0000000000000000
    Total Energy =                       -457.5091487408826652
    Molecular point group: c1
  Basis Set: CC-PVTZ
  Basis Set:

  -Total Gradient:
     Atom            X                  Y                   Z
    ------   -----------------  -----------------  -----------------
       1       -0.000000121874     0.000000652310     0.000000774048
       2       -0.000002517696    -0.000006427286    -0.000004593328
       3       -0.000012397063     0.000004133335     0.000005342016
       4        0.000002055741     0.000000696501    -0.000002539469
       5       -0.000000691851    -0.000000013953     0.000000408962
       6        0.000010473254     0.000004308525     0.000003754293
       7       -0.000002437768    -0.000000125381    -0.000000842259
       8       -0.000011291069     0.000004497680     0.000004264636
       9       -0.000001897838     0.000002405350     0.000000025788
      10       -0.000027474164     0.000006059565    -0.000007167730
      11       -0.000004603590    -0.000006795860    -0.000002985499
      12        0.000084601844    -0.000739773770     0.001302914886
      13       -0.000024466143     0.001460359671    -0.001662822216
      14        0.000023529167     0.000051337334     0.000010911370
      15        0.000204159786    -0.002203413088    -0.000443935908
      16       -0.000242290322     0.001457271036     0.000803052550
      17        0.000038041703    -0.000033778836     0.000002129056
      18       -0.000032672105    -0.000001393136    -0.000008691197

  **** Optimization is complete! (in 6 steps) ****
    Final optimized geometry and variables:
    Molecular point group: c1

    Geometry (in Angstrom), charge = 0, multiplicity = 1:

    H           -4.026011281301    -0.429119129576     0.028579692808
    C           -2.956024221482    -0.347495100874     0.001686577412
    C           -2.203727803751    -1.334893837492    -0.608982209351
    C           -2.333676855371     0.744005293990     0.577144107269
    H           -2.687296174547    -2.181905673378    -1.055701055220
    C           -0.828906163045    -1.229220916313    -0.643331267668
    H           -2.917699884353     1.509433994867     1.050418705390
    C           -0.956971813377     0.851114073055     0.543743290023
    H           -0.231521374573    -1.984429021454    -1.112253168510
    C           -0.200268758933    -0.136150447570    -0.066989559967
    H           -0.472334720399     1.695424554843     0.988448856678
    C            1.288765612456    -0.070018812156    -0.130947418162
    O            1.779353829503     1.013172681410     0.442444308339
    O            1.961018629741    -0.900387499468    -0.643907626552
    C            3.183741971077     1.177611063716     0.479340266756
    H            3.512186742271     1.707746334050    -0.403730669153
    H            3.683714880520     0.226172238476     0.543548402396
    H            3.394837832479     1.775129582254     1.352223572862

  Mulliken Charges: (a.u.)
   Center  Symbol    Alpha    Beta     Spin     Total
       1     H     0.42032  0.42032  0.00000  0.15937
       2     C     3.06975  3.06975  0.00000 -0.13949
       3     C     3.07555  3.07555  0.00000 -0.15109
       4     C     3.07493  3.07493  0.00000 -0.14987
       5     H     0.42043  0.42043  0.00000  0.15914
       6     C     3.07587  3.07587  0.00000 -0.15174
       7     H     0.42193  0.42193  0.00000  0.15614
       8     C     3.08206  3.08206  0.00000 -0.16411
       9     H     0.40651  0.40651  0.00000  0.18699
      10     C     3.01611  3.01611  0.00000 -0.03222
      11     H     0.41114  0.41114  0.00000  0.17773
      12     C     2.77792  2.77792  0.00000  0.44417
      13     O     4.14924  4.14924  0.00000 -0.29847
      14     O     4.21150  4.21150  0.00000 -0.42299
      15     C     3.03856  3.03856  0.00000 -0.07712
      16     H     0.45542  0.45542  0.00000  0.08916
      17     H     0.44505  0.44505  0.00000  0.10990
      18     H     0.44774  0.44774  0.00000  0.10452

   Total alpha = 36.00000, Total beta = 36.00000, Total charge =  0.00000
