  ==> Input File <==

--------------------------------------------------------------------------
set {
	reference rhf
	basis 6-31G*
}

set_num_threads( 4 )
memory 2 gb

molecule MOL {
0 1

H	 1.136379	 0.211822	 1.465562
C	 1.135357	 0.094285	 0.374742
C	 0.065331	 0.871482	 -0.349150
O	 1.941633	 -0.601957	 -0.151457
C	 -1.318185	 0.216975	 -0.226735
H	 0.362812	 0.978760	 -1.385928
H	 0.032703	 1.865326	 0.095115
C	 -1.415356	 -1.129845	 -0.944409
H	 -2.058494	 0.898281	 -0.633890
H	 -1.567105	 0.092066	 0.824967
H	 -1.204314	 -1.021504	 -2.003772
H	 -2.410686	 -1.549967	 -0.843749
H	 -0.710709	 -1.852021	 -0.542755

	symmetry c1
}
set optking {
	frozen_dihedral = ("
		6 3 2 4
	")
}

ee = optimize('scf')
oeprop('DIPOLE', 'QUADRUPOLE', 'MULLIKEN_CHARGES')
f=open( 'psi4out.xyz', 'w' )
f.write( "13  " )
f.write( str(ee) + "\n" )
f.write( MOL.save_string_xyz() )
f.close()
--------------------------------------------------------------------------

    Molecular point group: c1
  Charge       = 0
  Multiplicity = 1
  Basis Set: 6-31G*
  Basis Set:
  @DF-RHF Final Energy:  -230.98407485520849
    Total Energy =                       -230.9840748552084904
    Molecular point group: c1
  Basis Set: 6-31G*
  Basis Set:
  Basis Set: 6-31G*
  Basis Set:
  @DF-RHF Final Energy:  -230.98230189634538
    Total Energy =                       -230.9823018963451773
  Basis Set: 6-31G*
  Basis Set:
  Basis Set: 6-31G*
  Basis Set:
  @DF-RHF Final Energy:  -230.98417324014230
    Total Energy =                       -230.9841732401423542
  Basis Set: 6-31G*
  Basis Set:
  Basis Set: 6-31G*
  Basis Set:
  @DF-RHF Final Energy:  -230.98420084083676
    Total Energy =                       -230.9842008408368201
  Basis Set: 6-31G*
  Basis Set:
  Basis Set: 6-31G*
  Basis Set:
  @DF-RHF Final Energy:  -230.98420444386500
    Total Energy =                       -230.9842044438648543
  Basis Set: 6-31G*
  Basis Set:
  Basis Set: 6-31G*
  Basis Set:
  @DF-RHF Final Energy:  -230.98420696550872
    Total Energy =                       -230.9842069655085766
  Basis Set: 6-31G*
  Basis Set:
  Charge       = 0
  Multiplicity = 1
  Basis Set: 6-31G*
  Basis Set:

    Orbital Energies (a.u.)
    -----------------------

    Doubly Occupied:

       1A    -20.563582     2A    -11.327138     3A    -11.239038
       4A    -11.235588     5A    -11.217180     6A     -1.403242
       7A     -1.084456     8A     -0.972103     9A     -0.846133
      10A     -0.786414    11A     -0.671329    12A     -0.649997
      13A     -0.617617    14A     -0.593777    15A     -0.559138
      16A     -0.530363    17A     -0.504969    18A     -0.492521
      19A     -0.480200    20A     -0.410188

  @DF-RHF Final Energy:  -230.98420705318995

   => Energetics <=

    Nuclear Repulsion Energy =            174.8137391874970490
    One-Electron Energy =                -659.2259476861403300
    Two-Electron Energy =                 253.4280014454533898
    DFT Exchange-Correlation Energy =       0.0000000000000000
    Empirical Dispersion Energy =           0.0000000000000000
    PCM Polarization Energy =               0.0000000000000000
    EFP Energy =                            0.0000000000000000
    Total Energy =                       -230.9842070531898912
    Molecular point group: c1
  Basis Set: 6-31G*
  Basis Set:

  -Total Gradient:
     Atom            X                  Y                   Z
    ------   -----------------  -----------------  -----------------
       1        0.000006796075     0.000002795574     0.000002267378
       2        0.001337806753     0.001709087879    -0.000143455496
       3       -0.001116001158    -0.001771180752    -0.000257349591
       4       -0.000819616782    -0.001013884654     0.000141148709
       5        0.000005015689    -0.000004220502    -0.000009992631
       6        0.000604947070     0.001077967758     0.000263764291
       7       -0.000000571193     0.000005282719    -0.000000261412
       8       -0.000020307706    -0.000006084378     0.000004510297
       9       -0.000000778337     0.000000608590    -0.000000346132
      10        0.000002731296    -0.000002976938    -0.000001987792
      11        0.000002716505     0.000003146876     0.000003920954
      12       -0.000002962266    -0.000001554875    -0.000003016533
      13        0.000000224052     0.000001012701     0.000000797957

  **** Optimization is complete! (in 7 steps) ****
    Final optimized geometry and variables:
    Molecular point group: c1

    Geometry (in Angstrom), charge = 0, multiplicity = 1:

    H            1.029946153721     0.337593651504     1.737374236638
    C            1.047724038833     0.233671579891     0.645791900262
    C           -0.014120053595     1.008752746158    -0.091762555312
    O            1.843814657427    -0.481384781145     0.128115944435
    C           -1.395583708271     0.342521626972     0.040367072694
    H            0.279712244966     1.094464927191    -1.131742748450
    H           -0.059842936348     2.009775832316     0.331192217994
    C           -1.498700057293    -0.998755147146    -0.685708931690
    H           -2.139950077131     1.026668831866    -0.354637346363
    H           -1.633615773824     0.211391291715     1.093945232522
    H           -1.309017755831    -0.879490381779    -1.747872963453
    H           -2.491751881968    -1.420681131578    -0.569503330282
    H           -0.783361230727    -1.719470713637    -0.304805846811

  Mulliken Charges: (a.u.)
   Center  Symbol    Alpha    Beta     Spin     Total
       1     H     0.43095  0.43095  0.00000  0.13809
       2     C     2.83591  2.83591  0.00000  0.32818
       3     C     3.20365  3.20365  0.00000 -0.40729
       4     O     4.23596  4.23596  0.00000 -0.47191
       5     C     3.16529  3.16529  0.00000 -0.33058
       6     H     0.40037  0.40037  0.00000  0.19927
       7     H     0.41191  0.41191  0.00000  0.17617
       8     C     3.24174  3.24174  0.00000 -0.48347
       9     H     0.41167  0.41167  0.00000  0.17666
      10     H     0.41825  0.41825  0.00000  0.16350
      11     H     0.41649  0.41649  0.00000  0.16701
      12     H     0.41704  0.41704  0.00000  0.16593
      13     H     0.41078  0.41078  0.00000  0.17844

   Total alpha = 20.00000, Total beta = 20.00000, Total charge =  0.00000
