                              Psi4 1.0.54 Driver

  ==> Input File <==

--------------------------------------------------------------------------
set {
	reference rhf
	basis cc-pvtz
}

set_num_threads( 4 )
memory 2 gb

molecule MOL {
0 1

O	 1.390332	 0.668954	 -1.000380
C	 0.860843	 0.273204	 -0.013120
C	 -0.623368	 -0.117453	 -0.005652
C	 1.657584	 0.154873	 1.271101
C	 -0.892588	 -1.253841	 -1.002900
C	 -1.473463	 1.100646	 -0.372896
C	 -0.981836	 -0.579025	 1.418506
H	 -0.609333	 -0.970024	 -2.010649
H	 -1.950451	 -1.487353	 -1.013175
H	 -0.360848	 -2.161259	 -0.746463
H	 -1.232203	 1.461623	 -1.364827
H	 -2.524364	 0.834451	 -0.354500
H	 -1.312381	 1.914833	 0.318657
H	 -2.035706	 -0.826342	 1.468082
H	 -0.425078	 -1.458934	 1.716857
H	 -0.788494	 0.205047	 2.140903
H	 1.927866	 -0.883435	 1.428037
H	 2.560899	 0.737145	 1.173883
H	 1.099059	 0.480894	 2.137699

	symmetry c1
}
set optking {
	frozen_dihedral = ("
		1 2 3 5
	")
}

ee,wfn = optimize('scf', return_wfn=True)
oeprop( wfn, 'DIPOLE', 'QUADRUPOLE', 'MULLIKEN_CHARGES')
f=open( 'psi4out.xyz', 'w' )
f.write( "19  " )
f.write( str(ee) + "\n" )
f.write( MOL.save_string_xyz() )
f.close()
--------------------------------------------------------------------------

    Molecular point group: c1
  Charge       = 0
  Multiplicity = 1
  Basis Set: CC-PVTZ
  Basis Set:
  @DF-RHF Final Energy:  -309.16748039663298
    Total Energy =                       -309.1674803966328682
    Molecular point group: c1
  Basis Set: CC-PVTZ
  Basis Set:
  Basis Set: CC-PVTZ
  Basis Set:
  @DF-RHF Final Energy:  -309.16343394301288
    Total Energy =                       -309.1634339430125920
  Basis Set: CC-PVTZ
  Basis Set:
  Basis Set: CC-PVTZ
  Basis Set:
  @DF-RHF Final Energy:  -309.17185137353943
    Total Energy =                       -309.1718513735395391
  Basis Set: CC-PVTZ
  Basis Set:
  Basis Set: CC-PVTZ
  Basis Set:
  @DF-RHF Final Energy:  -309.17185398361266
    Total Energy =                       -309.1718539836126638
  Basis Set: CC-PVTZ
  Basis Set:
  @DF-RHF Final Energy:  -309.17228922150207
    Total Energy =                       -309.1722892215021261
  @DF-RHF Final Energy:  -309.17281293138041
    Total Energy =                       -309.1728129313804629
  @DF-RHF Final Energy:  -309.17289019249853
    Total Energy =                       -309.1728901924984143
  @DF-RHF Final Energy:  -309.17276026230229
    Total Energy =                       -309.1727602623021767
  Basis Set: CC-PVTZ
  Basis Set:
  @DF-RHF Final Energy:  -309.17290726866776
    Total Energy =                       -309.1729072686674726
  Basis Set: CC-PVTZ
  Basis Set:
  Basis Set: CC-PVTZ
  Basis Set:
  @DF-RHF Final Energy:  -309.17292793266427
    Total Energy =                       -309.1729279326640949
  Basis Set: CC-PVTZ
  Basis Set:
  Basis Set: CC-PVTZ
  Basis Set:
  @DF-RHF Final Energy:  -309.17293443843477
    Total Energy =                       -309.1729344384344813
  Basis Set: CC-PVTZ
  Basis Set:
  Charge       = 0
  Multiplicity = 1
  Basis Set: CC-PVTZ
  Basis Set:

    Orbital Energies (a.u.)
    -----------------------

    Doubly Occupied:

       1A    -20.536266     2A    -11.318598     3A    -11.245468
       4A    -11.226180     5A    -11.219798     6A    -11.214500
       7A    -11.213836     8A     -1.398321     9A     -1.108762
      10A     -1.004904    11A     -0.941837    12A     -0.940348
      13A     -0.833840    14A     -0.705719    15A     -0.666862
      16A     -0.633519    17A     -0.624304    18A     -0.588185
      19A     -0.585737    20A     -0.574329    21A     -0.553273
      22A     -0.546774    23A     -0.522897    24A     -0.515361
      25A     -0.502912    26A     -0.472653    27A     -0.462296
      28A     -0.393791

  @DF-RHF Final Energy:  -309.17293380197401

   => Energetics <=

    Nuclear Repulsion Energy =            326.7643583343413525
    One-Electron Energy =               -1066.7720422718989539
    Two-Electron Energy =                 430.8347501355837039
    DFT Exchange-Correlation Energy =       0.0000000000000000
    Empirical Dispersion Energy =           0.0000000000000000
    PCM Polarization Energy =               0.0000000000000000
    EFP Energy =                            0.0000000000000000
    Total Energy =                       -309.1729338019739544
    Molecular point group: c1
  Basis Set: CC-PVTZ
  Basis Set:

  -Total Gradient:
     Atom            X                  Y                   Z
    ------   -----------------  -----------------  -----------------
       1       -0.000018476003    -0.000150924401    -0.000067321975
       2       -0.000061218337     0.000303491237     0.000085875332
       3        0.000027090478    -0.000219148459     0.000000610754
       4       -0.000000581164    -0.000088822060     0.000004679900
       5       -0.000061561727     0.000028023155    -0.000048484523
       6        0.000065586489    -0.000054603292     0.000026690996
       7        0.000030012164     0.000003955458    -0.000004517457
       8       -0.000003691656    -0.000011481423     0.000024097754
       9        0.000029911430     0.000010206168    -0.000012364339
      10       -0.000028156755     0.000048199097     0.000007144560
      11        0.000070912358     0.000072690315    -0.000045410734
      12       -0.000057743944    -0.000035489988    -0.000033624466
      13       -0.000004991445     0.000036473010     0.000044719058
      14       -0.000045957018    -0.000015649115    -0.000008073934
      15        0.000030604133    -0.000026933220     0.000011335534
      16        0.000009488754     0.000039791202     0.000038959403
      17        0.000010586770     0.000057708891    -0.000010558113
      18        0.000011690022     0.000003921112     0.000007964489
      19       -0.000003504550    -0.000001407687    -0.000021722237

  **** Optimization is complete! (in 12 steps) ****
    Final optimized geometry and variables:
    Molecular point group: c1

    Geometry (in Angstrom), charge = 0, multiplicity = 1:

    O            1.199315775981     0.601023823085    -1.241515450680
    C            0.871731845604     0.163813448250    -0.185816726440
    C           -0.619778077275    -0.099415434348     0.096462525956
    C            1.916541202394    -0.136344437074     0.865254998638
    C           -1.105933615225    -1.119765442052    -0.944341208244
    C           -1.364655699625     1.230078849421    -0.096502727971
    C           -0.894643170696    -0.637250544340     1.504875732220
    H           -0.939220285271    -0.754070894764    -1.947238495574
    H           -2.165728956800    -1.306652948675    -0.814221828097
    H           -0.587647946664    -2.067382793500    -0.839855998476
    H           -1.191952213655     1.627027999967    -1.086407956867
    H           -2.430163929547     1.081556625256     0.037750600090
    H           -1.040115624104     1.972020691902     0.625931860067
    H           -1.959093413647    -0.797900344126     1.627755416415
    H           -0.402135113234    -1.585318694477     1.684445432234
    H           -0.581757516571     0.057133281504     2.275479863560
    H            1.893750997633    -1.184178218184     1.139443844539
    H            2.889026216217     0.113938389898     0.470993943948
    H            1.730374667154     0.435946632697     1.766009488045

  Mulliken Charges: (a.u.)
   Center  Symbol    Alpha    Beta     Spin     Total
       1     O     4.18181  4.18181  0.00000 -0.36361
       2     C     2.84546  2.84546  0.00000  0.30907
       3     C     3.00572  3.00572  0.00000 -0.01144
       4     C     3.16197  3.16197  0.00000 -0.32393
       5     C     3.15342  3.15342  0.00000 -0.30683
       6     C     3.15360  3.15360  0.00000 -0.30721
       7     C     3.16520  3.16520  0.00000 -0.33040
       8     H     0.43587  0.43587  0.00000  0.12825
       9     H     0.45000  0.45000  0.00000  0.10000
      10     H     0.45019  0.45019  0.00000  0.09961
      11     H     0.43561  0.43561  0.00000  0.12879
      12     H     0.45020  0.45020  0.00000  0.09960
      13     H     0.45029  0.45029  0.00000  0.09941
      14     H     0.44246  0.44246  0.00000  0.11508
      15     H     0.44585  0.44585  0.00000  0.10829
      16     H     0.44583  0.44583  0.00000  0.10835
      17     H     0.44739  0.44739  0.00000  0.10522
      18     H     0.43168  0.43168  0.00000  0.13664
      19     H     0.44745  0.44745  0.00000  0.10511

   Total alpha = 28.00000, Total beta = 28.00000, Total charge =  0.00000

*** Psi4 exiting successfully. Buy a developer a beer!
