  ==> Input File <==

--------------------------------------------------------------------------
set {
	reference rhf
	basis 6-31G*
}

set_num_threads( 4 )
memory 2 gb

molecule MOL {
0 1

H	 2.652209	 0.763231	 0.000000
O	 2.263154	 -0.100023	 0.000000
C	 0.912879	 -0.015685	 0.000000
C	 0.197735	 -1.206126	 0.000000
C	 0.243972	 1.197430	 0.000000
H	 0.735730	 -2.135841	 0.000000
C	 -1.183137	 -1.171462	 0.000000
H	 0.799429	 2.120462	 0.000000
C	 -1.143152	 1.217493	 0.000000
H	 -1.732405	 -2.096119	 0.000000
C	 -1.865195	 0.038378	 0.000000
H	 -1.654754	 2.163513	 0.000000
H	 -2.939626	 0.057410	 0.000000

	symmetry c1
}
set optking {
	frozen_dihedral = ("
		4 3 2 1
	")
}

ee = optimize('scf')
oeprop('DIPOLE', 'QUADRUPOLE', 'MULLIKEN_CHARGES')
f=open( 'psi4out.xyz', 'w' )
f.write( "13  " )
f.write( str(ee) + "\n" )
f.write( MOL.save_string_xyz() )
f.close()
--------------------------------------------------------------------------

    Molecular point group: c1
  Charge       = 0
  Multiplicity = 1
  Basis Set: 6-31G*
  Basis Set:

    Orbital Energies (a.u.)
    -----------------------

    Doubly Occupied:

       1A    -20.590819     2A    -11.298264     3A    -11.236887
       4A    -11.234781     5A    -11.228029     6A    -11.221834
       7A    -11.221557     8A     -1.409391     9A     -1.147257
      10A     -1.018661    11A     -1.004023    12A     -0.846784
      13A     -0.822067    14A     -0.735985    15A     -0.683870
      16A     -0.650044    17A     -0.608482    18A     -0.588993
      19A     -0.587970    20A     -0.563020    21A     -0.514059
      22A     -0.489502    23A     -0.479206    24A     -0.338181
      25A     -0.309154

  @DF-RHF Final Energy:  -305.55762616668113

   => Energetics <=

    Nuclear Repulsion Energy =            273.1577284817705618
    One-Electron Energy =                -955.7730708700216837
    Two-Electron Energy =                 377.0577162215697626
    DFT Exchange-Correlation Energy =       0.0000000000000000
    Empirical Dispersion Energy =           0.0000000000000000
    PCM Polarization Energy =               0.0000000000000000
    EFP Energy =                            0.0000000000000000
    Total Energy =                       -305.5576261666813025
    Molecular point group: c1
  Basis Set: 6-31G*
  Basis Set:

  -Total Gradient:
     Atom            X                  Y                   Z
    ------   -----------------  -----------------  -----------------
       1        0.000079358030     0.000000570144    -0.000000000000
       2       -0.000014815644     0.000059581587     0.000000000000
       3       -0.000028531760     0.000061110136     0.000000000000
       4       -0.000168025727    -0.000060369894    -0.000000000000
       5        0.000046043618    -0.000042656108     0.000000000000
       6        0.000027564269    -0.000013812662     0.000000000000
       7        0.000078313030    -0.000050790792     0.000000000000
       8        0.000008648262    -0.000008862597     0.000000000000
       9       -0.000052442962    -0.000023597856     0.000000000000
      10        0.000009397613     0.000038508161    -0.000000000000
      11       -0.000026998573     0.000061187727    -0.000000000000
      12       -0.000000295276    -0.000011633048    -0.000000000000
      13        0.000041785119    -0.000009234799     0.000000000000

  **** Optimization is complete! (in 1 steps) ****
    Final optimized geometry and variables:
    Molecular point group: c1

    Geometry (in Angstrom), charge = 0, multiplicity = 1:

    H            2.652208776756     0.763231412410     0.000000000000
    O            2.263153776756    -0.100022587590     0.000000000000
    C            0.912878776756    -0.015684587590     0.000000000000
    C            0.197734776756    -1.206125587590     0.000000000000
    C            0.243971776756     1.197430412410     0.000000000000
    H            0.735729776756    -2.135840587590     0.000000000000
    C           -1.183137223244    -1.171461587590     0.000000000000
    H            0.799428776756     2.120462412410     0.000000000000
    C           -1.143152223244     1.217493412410     0.000000000000
    H           -1.732405223244    -2.096118587590     0.000000000000
    C           -1.865195223244     0.038378412410     0.000000000000
    H           -1.654754223244     2.163513412410     0.000000000000
    H           -2.939626223244     0.057410412410     0.000000000000

  Mulliken Charges: (a.u.)
   Center  Symbol    Alpha    Beta     Spin     Total
       1     H     0.27180  0.27180  0.00000  0.45640
       2     O     4.37844  4.37844  0.00000 -0.75688
       3     C     2.79388  2.79388  0.00000  0.41224
       4     C     3.12354  3.12354  0.00000 -0.24707
       5     C     3.14453  3.14453  0.00000 -0.28906
       6     H     0.39168  0.39168  0.00000  0.21664
       7     C     3.09091  3.09091  0.00000 -0.18182
       8     H     0.40471  0.40471  0.00000  0.19058
       9     C     3.09021  3.09021  0.00000 -0.18042
      10     H     0.39803  0.39803  0.00000  0.20394
      11     C     3.11330  3.11330  0.00000 -0.22661
      12     H     0.39838  0.39838  0.00000  0.20324
      13     H     0.40059  0.40059  0.00000  0.19882

   Total alpha = 25.00000, Total beta = 25.00000, Total charge =  0.00000
