  ==> Input File <==

--------------------------------------------------------------------------
set {
	reference rhf
	basis 6-31G*
}

set_num_threads( 4 )
memory 2 gb

molecule MOL {
0 1

H	 -1.070890	 -1.366565	 0.180696
O	 -1.422729	 -0.573567	 -0.196946
C	 -0.731407	 0.539437	 0.309156
C	 0.680193	 0.672443	 -0.251532
H	 -1.319765	 1.404033	 0.030086
H	 -0.700012	 0.506517	 1.397677
C	 1.433551	 -0.655281	 -0.336990
H	 0.619522	 1.122485	 -1.238157
H	 1.233966	 1.363627	 0.380244
H	 0.945302	 -1.345158	 -1.018810
H	 2.444567	 -0.506954	 -0.701425
H	 1.501962	 -1.134237	 0.636758

	symmetry c1
}
set optking {
	frozen_dihedral = ("
		8 4 3 2
	")
}

ee = optimize('scf')
oeprop('DIPOLE', 'QUADRUPOLE', 'MULLIKEN_CHARGES')
f=open( 'psi4out.xyz', 'w' )
f.write( "12  " )
f.write( str(ee) + "\n" )
f.write( MOL.save_string_xyz() )
f.close()
--------------------------------------------------------------------------

    Molecular point group: c1
  Charge       = 0
  Multiplicity = 1
  Basis Set: 6-31G*
  Basis Set:
  @DF-RHF Final Energy:  -193.10781335539917
    Total Energy =                       -193.1078133553990881
    Molecular point group: c1
  Basis Set: 6-31G*
  Basis Set:
  Basis Set: 6-31G*
  Basis Set:
  @DF-RHF Final Energy:  -193.10807421588348
    Total Energy =                       -193.1080742158834767
  Basis Set: 6-31G*
  Basis Set:
  Basis Set: 6-31G*
  Basis Set:
  @DF-RHF Final Energy:  -193.10815308330984
    Total Energy =                       -193.1081530833097872
  Basis Set: 6-31G*
  Basis Set:
  Basis Set: 6-31G*
  Basis Set:
  @DF-RHF Final Energy:  -193.10816192866682
    Total Energy =                       -193.1081619286669593
  Basis Set: 6-31G*
  Basis Set:
  Basis Set: 6-31G*
  Basis Set:
  @DF-RHF Final Energy:  -193.10816603532859
    Total Energy =                       -193.1081660353283951
  Basis Set: 6-31G*
  Basis Set:
  Charge       = 0
  Multiplicity = 1
  Basis Set: 6-31G*
  Basis Set:

    Orbital Energies (a.u.)
    -----------------------

    Doubly Occupied:

       1A    -20.552823     2A    -11.268407     3A    -11.219175
       4A    -11.217042     5A     -1.360091     6A     -1.049554
       7A     -0.928819     8A     -0.807916     9A     -0.695424
      10A     -0.633722    11A     -0.609564    12A     -0.586128
      13A     -0.532527    14A     -0.511845    15A     -0.496961
      16A     -0.465044    17A     -0.428885

  @DF-RHF Final Energy:  -193.10816613938107

   => Energetics <=

    Nuclear Repulsion Energy =            133.4064315601173689
    One-Electron Energy =                -526.3013441625269024
    Two-Electron Energy =                 199.7867464630284644
    DFT Exchange-Correlation Energy =       0.0000000000000000
    Empirical Dispersion Energy =           0.0000000000000000
    PCM Polarization Energy =               0.0000000000000000
    EFP Energy =                            0.0000000000000000
    Total Energy =                       -193.1081661393810691
    Molecular point group: c1
  Basis Set: 6-31G*
  Basis Set:

  -Total Gradient:
     Atom            X                  Y                   Z
    ------   -----------------  -----------------  -----------------
       1       -0.000004540427    -0.000009874809    -0.000004737441
       2        0.001372834159    -0.002207251937     0.002835878316
       3       -0.001763439624     0.004063535718    -0.003398786274
       4       -0.000059371871    -0.006195266116    -0.001457807829
       5        0.000009578029     0.000011146454     0.000005722354
       6       -0.000001603857    -0.000002634325    -0.000001248899
       7        0.000002943985    -0.000000537244     0.000010863786
       8        0.000448560418     0.004347297424     0.002011891568
       9       -0.000001660738    -0.000005378793    -0.000000762679
      10       -0.000001456062     0.000001977873    -0.000001801820
      11       -0.000002775557     0.000002240121     0.000000549590
      12        0.000000931549    -0.000005254366     0.000000239329

  **** Optimization is complete! (in 6 steps) ****
    Final optimized geometry and variables:
    Molecular point group: c1

    Geometry (in Angstrom), charge = 0, multiplicity = 1:

    H           -1.049871750244    -1.320329166654     0.274706478767
    O           -1.410064754698    -0.518185155437    -0.074195245387
    C           -0.685127722709     0.576617900942     0.424161407780
    C            0.725085967187     0.700397852063    -0.158088193208
    H           -1.265139491499     1.458298313096     0.186699046168
    H           -0.624864625863     0.512942115982     1.510051436681
    C            1.495093321149    -0.616757366363    -0.217344863212
    H            0.676790523360     1.161035236779    -1.140741108758
    H            1.271722143047     1.406786001298     0.464411948517
    H            1.025085251871    -1.318077129317    -0.897911337725
    H            2.510187116537    -0.454626588211    -0.563506288440
    H            1.557245736077    -1.083637825213     0.763622079557

  Mulliken Charges: (a.u.)
   Center  Symbol    Alpha    Beta     Spin     Total
       1     H     0.27948  0.27948  0.00000  0.44105
       2     O     4.36998  4.36998  0.00000 -0.73996
       3     C     2.99711  2.99711  0.00000  0.00578
       4     C     3.16178  3.16178  0.00000 -0.32356
       5     H     0.41403  0.41403  0.00000  0.17194
       6     H     0.43205  0.43205  0.00000  0.13590
       7     C     3.25284  3.25284  0.00000 -0.50568
       8     H     0.41584  0.41584  0.00000  0.16832
       9     H     0.42340  0.42340  0.00000  0.15321
      10     H     0.41404  0.41404  0.00000  0.17193
      11     H     0.41419  0.41419  0.00000  0.17162
      12     H     0.42527  0.42527  0.00000  0.14945

   Total alpha = 17.00000, Total beta = 17.00000, Total charge = -0.00000
