                              Psi4 1.0.54 Driver

  ==> Input File <==

--------------------------------------------------------------------------
set {
	reference rhf
	basis cc-pvtz
}

set_num_threads( 4 )
memory 2 gb

molecule MOL {
0 1

H	 2.518851	 -1.609734	 0.901522
O	 2.824271	 -1.154299	 0.131461
C	 2.076458	 -0.067370	 -0.038225
C	 0.626018	 -0.337582	 0.258241
O	 2.538288	 0.965419	 -0.381593
C	 -0.267326	 0.883135	 0.076490
H	 0.325620	 -1.161483	 -0.378003
H	 0.574537	 -0.713685	 1.275261
C	 -1.726822	 0.642622	 0.463839
H	 -0.210803	 1.217591	 -0.953497
H	 0.129920	 1.693110	 0.675679
C	 -2.480891	 -0.340606	 -0.429852
H	 -2.243098	 1.597649	 0.438609
H	 -1.776542	 0.301208	 1.495542
C	 -3.955933	 -0.460128	 -0.060472
H	 -2.393755	 -0.020485	 -1.464726
H	 -2.024244	 -1.323637	 -0.374360
H	 -4.467673	 -1.160944	 -0.709827
H	 -4.458917	 0.497287	 -0.144505
H	 -4.076458	 -0.806900	 0.960497

	symmetry c1
}
set optking {
	frozen_dihedral = ("
		1 2 3 5
	")
}

ee,wfn = optimize('scf', return_wfn=True)
oeprop( wfn, 'DIPOLE', 'QUADRUPOLE', 'MULLIKEN_CHARGES')
f=open( 'psi4out.xyz', 'w' )
f.write( "20  " )
f.write( str(ee) + "\n" )
f.write( MOL.save_string_xyz() )
f.close()
--------------------------------------------------------------------------

    Molecular point group: c1
  Charge       = 0
  Multiplicity = 1
  Basis Set: CC-PVTZ
  Basis Set:
  @DF-RHF Final Energy:  -384.07951696882736
    Total Energy =                       -384.0795169688274200
    Molecular point group: c1
  Basis Set: CC-PVTZ
  Basis Set:
  Basis Set: CC-PVTZ
  Basis Set:
  @DF-RHF Final Energy:  -384.08055700625249
    Total Energy =                       -384.0805570062527750
  Basis Set: CC-PVTZ
  Basis Set:
  Basis Set: CC-PVTZ
  Basis Set:
  @DF-RHF Final Energy:  -384.08070290855528
    Total Energy =                       -384.0807029085556223
  Basis Set: CC-PVTZ
  Basis Set:
  Basis Set: CC-PVTZ
  Basis Set:
  @DF-RHF Final Energy:  -384.08082369198570
    Total Energy =                       -384.0808236919858700
  Basis Set: CC-PVTZ
  Basis Set:
  Basis Set: CC-PVTZ
  Basis Set:
  @DF-RHF Final Energy:  -384.08093391114187
    Total Energy =                       -384.0809339111425516
  Basis Set: CC-PVTZ
  Basis Set:
  Charge       = 0
  Multiplicity = 1
  Basis Set: CC-PVTZ
  Basis Set:

    Orbital Energies (a.u.)
    -----------------------

    Doubly Occupied:

       1A    -20.596824     2A    -20.541829     3A    -11.372971
       4A    -11.247247     5A    -11.225494     6A    -11.222889
       7A    -11.222153     8A    -11.213774     9A     -1.467362
      10A     -1.372895    11A     -1.101279    12A     -1.044097
      13A     -0.960892    14A     -0.866780    15A     -0.827912
      16A     -0.792036    17A     -0.720365    18A     -0.672467
      19A     -0.663227    20A     -0.637036    21A     -0.620093
      22A     -0.596035    23A     -0.564494    24A     -0.558271
      25A     -0.549804    26A     -0.514872    27A     -0.501400
      28A     -0.487284    29A     -0.474140    30A     -0.471761
      31A     -0.462589    32A     -0.444118

  @DF-RHF Final Energy:  -384.08093461372715

   => Energetics <=

    Nuclear Repulsion Energy =            376.2719519604012817
    One-Electron Energy =               -1268.6769941449820180
    Two-Electron Energy =                 508.3241075708536982
    DFT Exchange-Correlation Energy =       0.0000000000000000
    Empirical Dispersion Energy =           0.0000000000000000
    PCM Polarization Energy =               0.0000000000000000
    EFP Energy =                            0.0000000000000000
    Total Energy =                       -384.0809346137269813
    Molecular point group: c1
  Basis Set: CC-PVTZ
  Basis Set:

  -Total Gradient:
     Atom            X                  Y                   Z
    ------   -----------------  -----------------  -----------------
       1        0.004233853314     0.003574741174     0.004115390612
       2       -0.004962501969    -0.003870626831    -0.002661131694
       3       -0.000164696064    -0.000936350331    -0.007239225848
       4       -0.000009365810    -0.000017612926    -0.000064411191
       5        0.000970797366     0.001245841568     0.005785925460
       6       -0.000034862074     0.000001313154    -0.000008868159
       7        0.000003393222     0.000012100255     0.000036072990
       8        0.000010328760     0.000003752523     0.000046593841
       9        0.000007668754    -0.000022530795     0.000006580045
      10        0.000009468239     0.000002666282    -0.000033894779
      11       -0.000002427517     0.000000600641    -0.000005354674
      12       -0.000016726306    -0.000008063927     0.000023006883
      13       -0.000015220993     0.000013631348     0.000011389522
      14        0.000000140791    -0.000022246754     0.000017257996
      15        0.000005534347     0.000019714920    -0.000015499967
      16        0.000008292901     0.000002160405    -0.000024273292
      17       -0.000020734369    -0.000001544188     0.000006817703
      18       -0.000010758927    -0.000005921932    -0.000015125748
      19       -0.000014613002     0.000017583388     0.000004780128
      20        0.000002429341    -0.000009207976     0.000013970172

  **** Optimization is complete! (in 6 steps) ****
    Final optimized geometry and variables:
    Molecular point group: c1

    Geometry (in Angstrom), charge = 0, multiplicity = 1:

    H            2.654104801171    -1.696399759428     0.793809550076
    O            2.890067365524    -1.151422375047     0.062966293788
    C            2.085930344625    -0.078352299732    -0.043158275548
    C            0.626390022105    -0.357747043580     0.231809499270
    O            2.529486494533     0.970477001997    -0.331518471456
    C           -0.260168677523     0.877888398730     0.136715500592
    H            0.319242885458    -1.130595556876    -0.463540755874
    H            0.553758094204    -0.800929647286     1.223478704464
    C           -1.723512888213     0.620814065524     0.498446951610
    H           -0.193701878065     1.283927882512    -0.866116759436
    H            0.140728079714     1.639247468799     0.794231194269
    C           -2.482509496997    -0.282688203593    -0.472150086605
    H           -2.230616732975     1.579804572672     0.545028228470
    H           -1.782344230420     0.201736197819     1.500921409947
    C           -3.959941175260    -0.418233592622    -0.117877169378
    H           -2.388527467536     0.116943651191    -1.478264980617
    H           -2.034489872912    -1.271257077599    -0.493271338506
    H           -4.474398312377    -1.063218142180    -0.820666511303
    H           -4.455021621467     0.546816780221    -0.130449510277
    H           -4.087607295236    -0.840819562341     0.873303861062

  Mulliken Charges: (a.u.)
   Center  Symbol    Alpha    Beta     Spin     Total
       1     H     0.38835  0.38835  0.00000  0.22330
       2     O     4.15575  4.15575  0.00000 -0.31149
       3     C     2.80141  2.80141  0.00000  0.39718
       4     C     3.12617  3.12617  0.00000 -0.25234
       5     O     4.16824  4.16824  0.00000 -0.33647
       6     C     3.09632  3.09632  0.00000 -0.19263
       7     H     0.43419  0.43419  0.00000  0.13162
       8     H     0.45193  0.45193  0.00000  0.09614
       9     C     3.09967  3.09967  0.00000 -0.19934
      10     H     0.44217  0.44217  0.00000  0.11566
      11     H     0.43810  0.43810  0.00000  0.12380
      12     C     3.08683  3.08683  0.00000 -0.17367
      13     H     0.44469  0.44469  0.00000  0.11062
      14     H     0.45462  0.45462  0.00000  0.09077
      15     C     3.14938  3.14938  0.00000 -0.29876
      16     H     0.45124  0.45124  0.00000  0.09753
      17     H     0.45554  0.45554  0.00000  0.08892
      18     H     0.44724  0.44724  0.00000  0.10552
      19     H     0.45299  0.45299  0.00000  0.09402
      20     H     0.45519  0.45519  0.00000  0.08961

   Total alpha = 32.00000, Total beta = 32.00000, Total charge =  0.00000

*** Psi4 exiting successfully. Buy a developer a beer!
