  ==> Input File <==

--------------------------------------------------------------------------
set {
	reference rhf
	basis 6-31G*
}

set_num_threads( 4 )
memory 2 gb

molecule MOL {
0 1

H	 -2.172150	 0.880146	 0.502514
C	 -2.018062	 -0.000025	 -0.114509
O	 -0.774054	 0.001095	 -0.743181
H	 -2.760490	 0.003458	 -0.901350
H	 -2.173624	 -0.884374	 0.496163
C	 0.340447	 0.584067	 -0.091596
C	 1.484683	 0.381305	 -1.082366
C	 0.118313	 2.080423	 0.150816
C	 0.652904	 -0.138761	 1.222560
H	 1.254924	 0.869241	 -2.022877
H	 1.626633	 -0.675654	 -1.277460
H	 2.412831	 0.790623	 -0.696800
H	 -0.172562	 2.571118	 -0.772027
H	 1.031990	 2.542842	 0.509933
H	 -0.651264	 2.265000	 0.892596
H	 0.737992	 -1.206902	 1.052601
H	 1.592108	 0.217251	 1.633271
H	 -0.112471	 0.027444	 1.973032

	symmetry c1
}
set optking {
	frozen_dihedral = ("
		6 3 2 5
	")
}

ee = optimize('scf')
oeprop('DIPOLE', 'QUADRUPOLE', 'MULLIKEN_CHARGES')
f=open( 'psi4out.xyz', 'w' )
f.write( "18  " )
f.write( str(ee) + "\n" )
f.write( MOL.save_string_xyz() )
f.close()
--------------------------------------------------------------------------

    Molecular point group: c1
  Charge       = 0
  Multiplicity = 1
  Basis Set: 6-31G*
  Basis Set:
  @DF-RHF Final Energy:  -271.17418516229537
    Total Energy =                       -271.1741851622953163
    Molecular point group: c1
  Basis Set: 6-31G*
  Basis Set:
  Basis Set: 6-31G*
  Basis Set:
  @DF-RHF Final Energy:  -271.17368391414908
    Total Energy =                       -271.1736839141489099
  Basis Set: 6-31G*
  Basis Set:
  Basis Set: 6-31G*
  Basis Set:
  @DF-RHF Final Energy:  -271.17458653495299
    Total Energy =                       -271.1745865349530504
  Basis Set: 6-31G*
  Basis Set:
  Basis Set: 6-31G*
  Basis Set:
  @DF-RHF Final Energy:  -271.17459616945717
    Total Energy =                       -271.1745961694573452
  Basis Set: 6-31G*
  Basis Set:
  Basis Set: 6-31G*
  Basis Set:
  @DF-RHF Final Energy:  -271.17461464016827
    Total Energy =                       -271.1746146401682154
  Basis Set: 6-31G*
  Basis Set:
  Basis Set: 6-31G*
  Basis Set:
  @DF-RHF Final Energy:  -271.17462745706240
    Total Energy =                       -271.1746274570624564
  Basis Set: 6-31G*
  Basis Set:
  Basis Set: 6-31G*
  Basis Set:
  @DF-RHF Final Energy:  -271.17462341323738
    Total Energy =                       -271.1746234132375548
  Basis Set: 6-31G*
  Basis Set:
  Charge       = 0
  Multiplicity = 1
  Basis Set: 6-31G*
  Basis Set:

    Orbital Energies (a.u.)
    -----------------------

    Doubly Occupied:

       1A    -20.545744     2A    -11.281533     3A    -11.260907
       4A    -11.209522     5A    -11.207865     6A    -11.203292
       7A     -1.369163     8A     -1.072704     9A     -0.946064
      10A     -0.939587    11A     -0.912656    12A     -0.752451
      13A     -0.655100    14A     -0.644255    15A     -0.638089
      16A     -0.590928    17A     -0.572251    18A     -0.552550
      19A     -0.536509    20A     -0.524040    21A     -0.514897
      22A     -0.489600    23A     -0.486515    24A     -0.438572
      25A     -0.402496

  @DF-RHF Final Energy:  -271.17462836990825

   => Energetics <=

    Nuclear Repulsion Energy =            272.2961769807293990
    One-Electron Energy =                -907.4470268862519333
    Two-Electron Energy =                 363.9762215356142860
    DFT Exchange-Correlation Energy =       0.0000000000000000
    Empirical Dispersion Energy =           0.0000000000000000
    PCM Polarization Energy =               0.0000000000000000
    EFP Energy =                            0.0000000000000000
    Total Energy =                       -271.1746283699083051
    Molecular point group: c1
  Basis Set: 6-31G*
  Basis Set:

  -Total Gradient:
     Atom            X                  Y                   Z
    ------   -----------------  -----------------  -----------------
       1       -0.000007543543    -0.000002936681     0.000003835561
       2        0.000866101793     0.001783438348     0.001799189731
       3        0.000392182389    -0.002455924239     0.000345134383
       4       -0.000007724079    -0.000003667241     0.000003670570
       5       -0.000827554748    -0.000792349360    -0.001616257043
       6       -0.000404832065     0.001468472035    -0.000540454751
       7        0.000009263358     0.000004887987    -0.000007134441
       8       -0.000010776678    -0.000001558519     0.000006179494
       9       -0.000005376612     0.000000290991     0.000010242441
      10        0.000004208307    -0.000002973396    -0.000005102075
      11       -0.000000952545     0.000002339345     0.000003624809
      12        0.000001227456     0.000002681733    -0.000004228322
      13        0.000000501807     0.000002515606    -0.000000354703
      14       -0.000002741364    -0.000006982465    -0.000003003561
      15       -0.000001394571     0.000004028963     0.000002484108
      16        0.000000192894    -0.000000000841     0.000001100350
      17       -0.000002924261    -0.000000615740    -0.000002600630
      18       -0.000001857536    -0.000001646528     0.000003674080

  **** Optimization is complete! (in 8 steps) ****
    Final optimized geometry and variables:
    Molecular point group: c1

    Geometry (in Angstrom), charge = 0, multiplicity = 1:

    H           -2.107734581627     0.268002657921     0.740233304983
    C           -1.949343479133    -0.531613382269     0.025746698635
    O           -0.733913303114    -0.429650012910    -0.652612587632
    H           -2.735378588420    -0.479848518534    -0.717322279167
    H           -2.036765938932    -1.485146422786     0.539359116916
    C            0.394127127701     0.113907644449     0.009295267162
    C            1.542331135009    -0.120213830585    -0.969587190988
    C            0.209873162027     1.616614173021     0.244418941941
    C            0.669318632951    -0.618699585784     1.325911757283
    H            1.331129521936     0.365928313555    -1.915321052053
    H            1.664437248641    -1.181127976943    -1.156312083460
    H            2.475215216968     0.273186573944    -0.578662461654
    H           -0.029309627503     2.112447619562    -0.690037234330
    H            1.121478319202     2.052719179518     0.640328545299
    H           -0.583811234564     1.827228733942     0.952929317791
    H            0.755021052475    -1.686245479815     1.152038031231
    H            1.597585482566    -0.270104642313     1.766703531307
    H           -0.119094180974    -0.455264428423     2.053309899238

  Mulliken Charges: (a.u.)
   Center  Symbol    Alpha    Beta     Spin     Total
       1     H     0.43034  0.43034  0.00000  0.13932
       2     C     3.07839  3.07839  0.00000 -0.15678
       3     O     4.31993  4.31993  0.00000 -0.63986
       4     H     0.41475  0.41475  0.00000  0.17050
       5     H     0.42644  0.42644  0.00000  0.14712
       6     C     2.84402  2.84402  0.00000  0.31195
       7     C     3.23308  3.23308  0.00000 -0.46616
       8     C     3.24352  3.24352  0.00000 -0.48703
       9     C     3.24799  3.24799  0.00000 -0.49598
      10     H     0.41371  0.41371  0.00000  0.17258
      11     H     0.41462  0.41462  0.00000  0.17076
      12     H     0.42507  0.42507  0.00000  0.14985
      13     H     0.41328  0.41328  0.00000  0.17344
      14     H     0.42105  0.42105  0.00000  0.15791
      15     H     0.42090  0.42090  0.00000  0.15820
      16     H     0.41368  0.41368  0.00000  0.17263
      17     H     0.41899  0.41899  0.00000  0.16201
      18     H     0.42024  0.42024  0.00000  0.15953

   Total alpha = 25.00000, Total beta = 25.00000, Total charge =  0.00000
