  ==> Input File <==

--------------------------------------------------------------------------
set {
	reference rhf
	basis 6-31G*
}

set_num_threads( 4 )
memory 2 gb

molecule MOL {
0 1

O	 3.175878	 0.894378	 -0.745906
C	 2.701189	 0.057885	 -0.047330
C	 1.316262	 0.093619	 0.552246
O	 3.347903	 -1.046386	 0.304773
C	 0.526820	 1.342092	 0.164673
H	 0.813072	 -0.817383	 0.245544
H	 1.429321	 0.021511	 1.631002
C	 -0.840683	 1.444632	 0.848716
H	 0.401475	 1.366736	 -0.913659
H	 1.116800	 2.216451	 0.417342
C	 -1.850822	 0.370128	 0.436197
H	 -1.259639	 2.421633	 0.619219
H	 -0.708266	 1.419863	 1.929392
C	 -3.231453	 0.580151	 1.061297
H	 -1.944448	 0.364895	 -0.648711
H	 -1.485002	 -0.615191	 0.716007
C	 -4.247650	 -0.490648	 0.660219
H	 -3.610809	 1.559590	 0.774901
H	 -3.136973	 0.596213	 2.145970
C	 -5.624797	 -0.271481	 1.285624
H	 -4.342537	 -0.508739	 -0.423437
H	 -3.872202	 -1.469978	 0.949585
H	 -6.322588	 -1.046065	 0.982782
H	 -6.043153	 0.685584	 0.986959
H	 -5.568985	 -0.282464	 2.370538
C	 4.728119	 -1.109107	 -0.004993
H	 4.882018	 -1.033965	 -1.071845
H	 5.068212	 -2.067527	 0.355250
H	 5.265056	 -0.311663	 0.488280

	symmetry c1
}
set optking {
	frozen_dihedral = ("
		1 2 4 26
	")
}

ee = optimize('scf')
oeprop('DIPOLE', 'QUADRUPOLE', 'MULLIKEN_CHARGES')
f=open( 'psi4out.xyz', 'w' )
f.write( "29  " )
f.write( str(ee) + "\n" )
f.write( MOL.save_string_xyz() )
f.close()
--------------------------------------------------------------------------

    Molecular point group: c1
  Charge       = 0
  Multiplicity = 1
  Basis Set: 6-31G*
  Basis Set:
  @DF-RHF Final Energy:  -501.04346708578623
    Total Energy =                       -501.0434670857860056
    Molecular point group: c1
  Basis Set: 6-31G*
  Basis Set:
  Basis Set: 6-31G*
  Basis Set:
  @DF-RHF Final Energy:  -501.04203011755317
    Total Energy =                       -501.0420301175527129
  Basis Set: 6-31G*
  Basis Set:
  Basis Set: 6-31G*
  Basis Set:
  @DF-RHF Final Energy:  -501.04354150181041
    Total Energy =                       -501.0435415018105232
  Basis Set: 6-31G*
  Basis Set:
  Basis Set: 6-31G*
  Basis Set:
  @DF-RHF Final Energy:  -501.04354918203126
    Total Energy =                       -501.0435491820310290
  Basis Set: 6-31G*
  Basis Set:
  Basis Set: 6-31G*
  Basis Set:
  @DF-RHF Final Energy:  -501.04354802992327
    Total Energy =                       -501.0435480299236133
  Basis Set: 6-31G*
  Basis Set:
  Basis Set: 6-31G*
  Basis Set:
  @DF-RHF Final Energy:  -501.04355261438093
    Total Energy =                       -501.0435526143810421
  Basis Set: 6-31G*
  Basis Set:
  Charge       = 0
  Multiplicity = 1
  Basis Set: 6-31G*
  Basis Set:

    Orbital Energies (a.u.)
    -----------------------

    Doubly Occupied:

       1A    -20.602909     2A    -20.545463     3A    -11.372105
       4A    -11.280934     5A    -11.234770     6A    -11.219094
       7A    -11.217653     8A    -11.215946     9A    -11.215803
      10A    -11.214426    11A    -11.209033    12A     -1.468717
      13A     -1.362614    14A     -1.098064    15A     -1.066769
      16A     -1.019388    17A     -0.977178    18A     -0.928679
      19A     -0.861647    20A     -0.799306    21A     -0.790503
      22A     -0.763771    23A     -0.700637    24A     -0.681892
      25A     -0.672338    26A     -0.650768    27A     -0.628700
      28A     -0.605085    29A     -0.594714    30A     -0.581296
      31A     -0.566224    32A     -0.550562    33A     -0.531389
      34A     -0.530295    35A     -0.516901    36A     -0.511598
      37A     -0.495716    38A     -0.477782    39A     -0.470320
      40A     -0.462417    41A     -0.458565    42A     -0.455916
      43A     -0.440967    44A     -0.435356

  @DF-RHF Final Energy:  -501.04355272483645

   => Energetics <=

    Nuclear Repulsion Energy =            610.1435210311826722
    One-Electron Energy =               -1891.4057251548056229
    Two-Electron Energy =                 780.2186513987865055
    DFT Exchange-Correlation Energy =       0.0000000000000000
    Empirical Dispersion Energy =           0.0000000000000000
    PCM Polarization Energy =               0.0000000000000000
    EFP Energy =                            0.0000000000000000
    Total Energy =                       -501.0435527248364451
    Molecular point group: c1
  Basis Set: 6-31G*
  Basis Set:

  -Total Gradient:
     Atom            X                  Y                   Z
    ------   -----------------  -----------------  -----------------
       1       -0.001323154377    -0.001470993007    -0.002835414190
       2        0.002266902304     0.002721451750     0.005436474431
       3       -0.000020118318    -0.000011193252    -0.000070093272
       4       -0.001563191566    -0.002195490779    -0.004978114351
       5       -0.000005101849    -0.000001199873     0.000005816198
       6        0.000005770584     0.000001343251     0.000009235513
       7        0.000001110741    -0.000002967754     0.000009975924
       8       -0.000013223392     0.000014716695    -0.000017878735
       9        0.000009894503     0.000002703370    -0.000007564104
      10        0.000001676510    -0.000003612282     0.000001648030
      11        0.000007479655    -0.000003237455     0.000004549548
      12       -0.000008724577     0.000000967844     0.000002890367
      13       -0.000003798163    -0.000002498804    -0.000001739404
      14        0.000004729041    -0.000005570923     0.000011071562
      15        0.000008151563    -0.000012076121     0.000003214932
      16        0.000003174281     0.000003586943     0.000010567865
      17       -0.000001166279     0.000002928404    -0.000001745027
      18        0.000001365375     0.000006360493     0.000018385387
      19        0.000005154426    -0.000017874626     0.000000822144
      20       -0.000006888385     0.000013542643    -0.000020234189
      21        0.000005056099    -0.000012100906    -0.000003055979
      22       -0.000001852240     0.000006173248     0.000011739437
      23       -0.000001787699     0.000003656906    -0.000005323703
      24       -0.000004006533     0.000003744300     0.000005247401
      25        0.000004503370    -0.000004846634    -0.000003504117
      26        0.000638607377     0.000973765780     0.002451106791
      27        0.000013297149    -0.000000552846    -0.000018257074
      28       -0.000006689772    -0.000005527050    -0.000008198641
      29       -0.000017169840    -0.000005199314    -0.000011622741

  **** Optimization is complete! (in 7 steps) ****
    Final optimized geometry and variables:
    Molecular point group: c1

    Geometry (in Angstrom), charge = 0, multiplicity = 1:

    O            3.161480429414     0.781783643480    -1.082513269892
    C            2.669033509062    -0.074019109023    -0.420886919739
    C            1.278287809339    -0.042996202852     0.165124219957
    O            3.288030872128    -1.211781909169    -0.127962284164
    C            0.483161735943     1.195959916606    -0.240767224402
    H            0.784527145381    -0.961278539580    -0.133882529431
    H            1.384279660616    -0.101271636560     1.245859222009
    C           -0.888595391157     1.297830593461     0.434736388254
    H            0.363023624397     1.207001144579    -1.320104200528
    H            1.066556398776     2.076642300587     0.004441046391
    C           -1.888723058811     0.210348098262     0.031979750219
    H           -1.313440684264     2.268509649248     0.189760267358
    H           -0.761530221599     1.288842571366     1.516324391180
    C           -3.274630039131     0.419940341802     0.645438363297
    H           -1.975562502765     0.188573721357    -1.053278612691
    H           -1.517827307140    -0.768181065442     0.328394079956
    C           -4.282295991801    -0.660947348816     0.249958591535
    H           -3.657357264455     1.393904964055     0.345194636067
    H           -3.187558266529     0.449060709127     1.730462231571
    C           -5.665846876232    -0.440034788061     0.860447103262
    H           -4.367685540090    -0.693902861476    -0.834133449895
    H           -3.904806808161    -1.634533083701     0.555572752399
    H           -6.357532447933    -1.221545874764     0.561411440836
    H           -6.085765135020     0.511263056737     0.545967823720
    H           -5.619530349544    -0.436977526819     1.945859529531
    C            4.663681282053    -1.297092770445    -0.452599362367
    H            4.809347864051    -1.229553224032    -1.520924183428
    H            4.993609851254    -2.258366469056    -0.090526260195
    H            5.216517270535    -0.504927806625     0.032203592393

  Mulliken Charges: (a.u.)
   Center  Symbol    Alpha    Beta     Spin     Total
       1     O     4.28520  4.28520  0.00000 -0.57040
       2     C     2.60466  2.60466  0.00000  0.79067
       3     C     3.21020  3.21020  0.00000 -0.42040
       4     O     4.30769  4.30769  0.00000 -0.61538
       5     C     3.15392  3.15392  0.00000 -0.30784
       6     H     0.39816  0.39816  0.00000  0.20369
       7     H     0.40191  0.40191  0.00000  0.19619
       8     C     3.15663  3.15663  0.00000 -0.31327
       9     H     0.41356  0.41356  0.00000  0.17288
      10     H     0.40811  0.40811  0.00000  0.18379
      11     C     3.15507  3.15507  0.00000 -0.31015
      12     H     0.41822  0.41822  0.00000  0.16356
      13     H     0.42394  0.42394  0.00000  0.15211
      14     C     3.15029  3.15029  0.00000 -0.30059
      15     H     0.42260  0.42260  0.00000  0.15479
      16     H     0.42351  0.42351  0.00000  0.15298
      17     C     3.15146  3.15146  0.00000 -0.30291
      18     H     0.42335  0.42335  0.00000  0.15330
      19     H     0.42400  0.42400  0.00000  0.15199
      20     C     3.23935  3.23935  0.00000 -0.47870
      21     H     0.42278  0.42278  0.00000  0.15443
      22     H     0.42340  0.42340  0.00000  0.15320
      23     H     0.41922  0.41922  0.00000  0.16155
      24     H     0.42155  0.42155  0.00000  0.15690
      25     H     0.42185  0.42185  0.00000  0.15630
      26     C     3.09249  3.09249  0.00000 -0.18498
      27     H     0.40765  0.40765  0.00000  0.18469
      28     H     0.40841  0.40841  0.00000  0.18319
      29     H     0.41080  0.41080  0.00000  0.17839

   Total alpha = 44.00000, Total beta = 44.00000, Total charge =  0.00000
