  ==> Input File <==

--------------------------------------------------------------------------
set {
	reference rhf
	basis cc-pvtz
}

set_num_threads( 4 )
memory 2 gb

molecule MOL {
0 1

H	 -3.790781	 -1.653532	 1.183727
O	 -3.250324	 -1.338720	 0.483016
C	 -2.017095	 -0.896963	 0.985425
C	 -1.175688	 -0.398187	 -0.171891
H	 -2.164898	 -0.096982	 1.707892
H	 -1.501446	 -1.707833	 1.495743
C	 0.196029	 0.106276	 0.266738
H	 -1.720039	 0.394006	 -0.676204
H	 -1.064707	 -1.205182	 -0.889079
C	 1.330220	 -0.826136	 -0.155230
H	 0.359542	 1.097229	 -0.145561
H	 0.212134	 0.218135	 1.348778
C	 2.719700	 -0.407669	 0.328325
H	 1.339388	 -0.911200	 -1.239363
H	 1.119001	 -1.821953	 0.224128
C	 3.241564	 0.893452	 -0.276737
H	 3.418299	 -1.204729	 0.093035
H	 2.711776	 -0.323368	 1.411960
H	 3.254204	 0.841071	 -1.360784
H	 2.634460	 1.745075	 0.005842
H	 4.254264	 1.092401	 0.054971

	symmetry c1
}
set optking {
	frozen_dihedral = ("
		8 4 7 10
	")
}

ee = optimize('scf')
oeprop('DIPOLE', 'QUADRUPOLE', 'MULLIKEN_CHARGES')
f=open( 'psi4out.xyz', 'w' )
f.write( "21  " )
f.write( str(ee) + "\n" )
f.write( MOL.save_string_xyz() )
f.close()
--------------------------------------------------------------------------

    Molecular point group: c1
  Charge       = 0
  Multiplicity = 1
  Basis Set: CC-PVTZ
  Basis Set:
  @DF-RHF Final Energy:  -310.32824967317760
    Total Energy =                       -310.3282496731781066
    Molecular point group: c1
  Basis Set: CC-PVTZ
  Basis Set:
  Basis Set: CC-PVTZ
  Basis Set:
  @DF-RHF Final Energy:  -310.32848094865221
    Total Energy =                       -310.3284809486522136
  Basis Set: CC-PVTZ
  Basis Set:
  Basis Set: CC-PVTZ
  Basis Set:
  @DF-RHF Final Energy:  -310.32852758184447
    Total Energy =                       -310.3285275818443552
  Basis Set: CC-PVTZ
  Basis Set:
  Basis Set: CC-PVTZ
  Basis Set:
  @DF-RHF Final Energy:  -310.32852184251601
    Total Energy =                       -310.3285218425160679
  Basis Set: CC-PVTZ
  Basis Set:
  Basis Set: CC-PVTZ
  Basis Set:
  @DF-RHF Final Energy:  -310.32853436425808
    Total Energy =                       -310.3285343642577914
  Basis Set: CC-PVTZ
  Basis Set:
  Charge       = 0
  Multiplicity = 1
  Basis Set: CC-PVTZ
  Basis Set:

    Orbital Energies (a.u.)
    -----------------------

    Doubly Occupied:

       1A    -20.545669     2A    -11.265655     3A    -11.213314
       4A    -11.213110     5A    -11.211875     6A    -11.208628
       7A    -11.206080     8A     -1.363816     9A     -1.086433
      10A     -1.033138    11A     -0.954417    12A     -0.878575
      13A     -0.809381    14A     -0.778825    15A     -0.697948
      16A     -0.653569    17A     -0.627660    18A     -0.609782
      19A     -0.591857    20A     -0.558887    21A     -0.549868
      22A     -0.517575    23A     -0.508509    24A     -0.495930
      25A     -0.475629    26A     -0.460148    27A     -0.453019
      28A     -0.448410    29A     -0.433238

  @DF-RHF Final Energy:  -310.32853442602641

   => Energetics <=

    Nuclear Repulsion Energy =            314.1689040583166843
    One-Electron Energy =               -1043.2929850084015015
    Two-Electron Energy =                 418.7955465240582384
    DFT Exchange-Correlation Energy =       0.0000000000000000
    Empirical Dispersion Energy =           0.0000000000000000
    PCM Polarization Energy =               0.0000000000000000
    EFP Energy =                            0.0000000000000000
    Total Energy =                       -310.3285344260265788
    Molecular point group: c1
  Basis Set: CC-PVTZ
  Basis Set:

  -Total Gradient:
     Atom            X                  Y                   Z
    ------   -----------------  -----------------  -----------------
       1        0.000009455553    -0.000002335338     0.000001769896
       2       -0.000000340858     0.000007336184    -0.000010036711
       3        0.000008189240     0.000001986101     0.000011142258
       4       -0.000862114623     0.000992758129     0.001619973945
       5       -0.000001957793     0.000001021271    -0.000002987223
       6       -0.000004412164     0.000000579833    -0.000002601511
       7        0.000010379824    -0.001088432950     0.001249970498
       8        0.000715999531    -0.000585136578    -0.001671736467
       9       -0.000000633703    -0.000000889171    -0.000001357378
      10        0.000125192702     0.000678137170    -0.001195330010
      11       -0.000002646274    -0.000005120107     0.000000317083
      12        0.000002217359     0.000000505708     0.000001258317
      13       -0.000000066619     0.000000484591     0.000003161266
      14       -0.000003141593     0.000000679758    -0.000000564486
      15        0.000004146794     0.000002656922     0.000001165838
      16       -0.000000258444    -0.000001796924    -0.000003939903
      17        0.000001595346    -0.000000626212     0.000000948120
      18       -0.000003197112     0.000000233836    -0.000000122488
      19       -0.000000263071     0.000002003419    -0.000001954452
      20        0.000002033640    -0.000001671892     0.000001523808
      21       -0.000000177739    -0.000002373752    -0.000000600401

  **** Optimization is complete! (in 6 steps) ****
    Final optimized geometry and variables:
    Molecular point group: c1

    Geometry (in Angstrom), charge = 0, multiplicity = 1:

    H           -3.854027808606    -1.263798248167     0.989164870041
    O           -3.321798436420    -0.955592581648     0.279289672111
    C           -2.104704466629    -0.459496065841     0.767283449975
    C           -1.280291934198     0.041380175578    -0.401613205560
    H           -2.277594594629     0.352464055661     1.470481017847
    H           -1.558728064583    -1.238766634538     1.296012994680
    C            0.111476972859     0.545557657746     0.022601526899
    H           -1.835248856821     0.819241579179    -0.912320667663
    H           -1.182449658451    -0.769862370807    -1.114878407571
    C            1.244410487952    -0.393560193145    -0.392273877661
    H            0.282824920837     1.525799467829    -0.404664243701
    H            0.141379430180     0.683375949298     1.101056132040
    C            2.632332404986     0.011964323235     0.105306086390
    H            1.259960066366    -0.470893942174    -1.476660742579
    H            1.023588586529    -1.391607513525    -0.022566615507
    C            3.163977358991     1.317958984171    -0.480598411280
    H            3.328882329591    -0.785443393769    -0.135004768833
    H            2.617725983418     0.083553991128     1.189855639356
    H            3.180341568603     1.279743465006    -1.565155085538
    H            2.560711184302     2.169173572246    -0.189051367316
    H            4.176571840991     1.506425270036    -0.142604713751

  Mulliken Charges: (a.u.)
   Center  Symbol    Alpha    Beta     Spin     Total
       1     H     0.39737  0.39737  0.00000  0.20525
       2     O     4.19443  4.19443  0.00000 -0.38887
       3     C     2.96048  2.96048  0.00000  0.07903
       4     C     3.09097  3.09097  0.00000 -0.18194
       5     H     0.47401  0.47401  0.00000  0.05198
       6     H     0.47502  0.47502  0.00000  0.04997
       7     C     3.11406  3.11406  0.00000 -0.22812
       8     H     0.44612  0.44612  0.00000  0.10776
       9     H     0.45145  0.45145  0.00000  0.09710
      10     C     3.09305  3.09305  0.00000 -0.18609
      11     H     0.44368  0.44368  0.00000  0.11263
      12     H     0.45646  0.45646  0.00000  0.08707
      13     C     3.09042  3.09042  0.00000 -0.18084
      14     H     0.45209  0.45209  0.00000  0.09582
      15     H     0.44906  0.44906  0.00000  0.10187
      16     C     3.15257  3.15257  0.00000 -0.30515
      17     H     0.44865  0.44865  0.00000  0.10269
      18     H     0.45522  0.45522  0.00000  0.08956
      19     H     0.45455  0.45455  0.00000  0.09090
      20     H     0.45376  0.45376  0.00000  0.09247
      21     H     0.44655  0.44655  0.00000  0.10690

   Total alpha = 29.00000, Total beta = 29.00000, Total charge =  0.00000
