                              Psi4 1.0.54 Driver

  ==> Input File <==

--------------------------------------------------------------------------
set {
	reference rhf
	basis cc-pvtz
}

set_num_threads( 4 )
memory 2 gb

molecule MOL {
0 1

H	 -3.258660	 -0.290394	 1.471450
C	 -3.307964	 -0.275695	 0.374072
C	 -2.653809	 0.914422	 -0.273689
O	 -3.855140	 -1.148880	 -0.205112
C	 -1.622941	 0.519424	 -1.335274
H	 -3.426595	 1.550705	 -0.685126
H	 -2.155279	 1.465130	 0.520977
C	 -2.235650	 -0.139985	 -2.568947
H	 -1.080513	 1.409718	 -1.634419
H	 -0.887300	 -0.147303	 -0.891989
C	 -1.197647	 -0.517905	 -3.622278
H	 -2.965640	 0.535757	 -3.006663
H	 -2.788030	 -1.028809	 -2.275182
C	 -1.814633	 -1.166244	 -4.860112
H	 -0.643873	 0.371809	 -3.905278
H	 -0.474258	 -1.201837	 -3.183823
C	 -0.805569	 -1.636796	 -5.909051
H	 -2.510446	 -0.469016	 -5.321090
H	 -2.407392	 -2.020530	 -4.545253
C	 -0.023274	 -0.516583	 -6.590389
H	 -1.339338	 -2.199305	 -6.668700
H	 -0.110087	 -2.334431	 -5.449796
H	 -0.693630	 0.200588	 -7.053297
H	 0.606381	 0.022064	 -5.892478
H	 0.619760	 -0.914644	 -7.366932

	symmetry c1
}
set optking {
	frozen_dihedral = ("
		6 3 2 4
	")
}

ee,wfn = optimize('scf', return_wfn=True)
oeprop( wfn, 'DIPOLE', 'QUADRUPOLE', 'MULLIKEN_CHARGES')
f=open( 'psi4out.xyz', 'w' )
f.write( "25  " )
f.write( str(ee) + "\n" )
f.write( MOL.save_string_xyz() )
f.close()
--------------------------------------------------------------------------

    Molecular point group: c1
  Charge       = 0
  Multiplicity = 1
  Basis Set: CC-PVTZ
  Basis Set:
  @DF-RHF Final Energy:  -387.25560961979346
    Total Energy =                       -387.2556096197936313
    Molecular point group: c1
  Basis Set: CC-PVTZ
  Basis Set:
  Basis Set: CC-PVTZ
  Basis Set:
  @DF-RHF Final Energy:  -387.25681177036768
    Total Energy =                       -387.2568117703675625
  Basis Set: CC-PVTZ
  Basis Set:
  Basis Set: CC-PVTZ
  Basis Set:
  @DF-RHF Final Energy:  -387.25559577712454
    Total Energy =                       -387.2555957771241992
  Basis Set: CC-PVTZ
  Basis Set:
  Basis Set: CC-PVTZ
  Basis Set:
  @DF-RHF Final Energy:  -387.25697300812584
    Total Energy =                       -387.2569730081256694
  Basis Set: CC-PVTZ
  Basis Set:
  Basis Set: CC-PVTZ
  Basis Set:
  @DF-RHF Final Energy:  -387.25707508818380
    Total Energy =                       -387.2570750881835693
  Basis Set: CC-PVTZ
  Basis Set:
  Basis Set: CC-PVTZ
  Basis Set:
  @DF-RHF Final Energy:  -387.25707761916982
    Total Energy =                       -387.2570776191703317
  Basis Set: CC-PVTZ
  Basis Set:
  Basis Set: CC-PVTZ
  Basis Set:
  @DF-RHF Final Energy:  -387.25708014635279
    Total Energy =                       -387.2570801463532462
  Basis Set: CC-PVTZ
  Basis Set:
  Charge       = 0
  Multiplicity = 1
  Basis Set: CC-PVTZ
  Basis Set:

    Orbital Energies (a.u.)
    -----------------------

    Doubly Occupied:

       1A    -20.553017     2A    -11.323446     3A    -11.235218
       4A    -11.227209     5A    -11.211184     6A    -11.209761
       7A    -11.208949     8A    -11.208548     9A    -11.204767
      10A     -1.408550    11A     -1.096323    12A     -1.064482
      13A     -1.009856    14A     -0.941395    15A     -0.874638
      16A     -0.813524    17A     -0.780299    18A     -0.772132
      19A     -0.684739    20A     -0.658540    21A     -0.630706
      22A     -0.613516    23A     -0.599626    24A     -0.591073
      25A     -0.564818    26A     -0.554983    27A     -0.537954
      28A     -0.515140    29A     -0.506418    30A     -0.497734
      31A     -0.481927    32A     -0.473424    33A     -0.458506
      34A     -0.453304    35A     -0.438109    36A     -0.407923

  @DF-RHF Final Energy:  -387.25708033069441

   => Energetics <=

    Nuclear Repulsion Energy =            443.3698334391053777
    One-Electron Energy =               -1403.6303497338562920
    Two-Electron Energy =                 573.0034359640562798
    DFT Exchange-Correlation Energy =       0.0000000000000000
    Empirical Dispersion Energy =           0.0000000000000000
    PCM Polarization Energy =               0.0000000000000000
    EFP Energy =                            0.0000000000000000
    Total Energy =                       -387.2570803306946345
    Molecular point group: c1
  Basis Set: CC-PVTZ
  Basis Set:

  -Total Gradient:
     Atom            X                  Y                   Z
    ------   -----------------  -----------------  -----------------
       1       -0.000005274993    -0.000009565182    -0.000032213288
       2        0.001270220840    -0.000647430687    -0.000030411116
       3       -0.000527101145     0.000819057937     0.000776306400
       4       -0.000881726516     0.000337998253    -0.000041537456
       5        0.000006655526     0.000024156958     0.000011672901
       6        0.000146902746    -0.000542016619    -0.000673141922
       7        0.000008092479     0.000023780775     0.000008572304
       8        0.000008634120     0.000012236405    -0.000040669478
       9       -0.000016800674    -0.000018059614     0.000006235245
      10       -0.000006021514     0.000011815430     0.000005932740
      11        0.000004061112    -0.000027045348    -0.000002336885
      12       -0.000001701075    -0.000000308831     0.000003988271
      13        0.000003974055     0.000005668985     0.000001568436
      14       -0.000001912549    -0.000017296294     0.000009875121
      15        0.000010725857     0.000007670906    -0.000014131097
      16       -0.000004957656     0.000007087004    -0.000004114077
      17       -0.000013877654     0.000005352717    -0.000017249929
      18        0.000007020597    -0.000009107679     0.000001085782
      19        0.000004278729     0.000005126214     0.000002970530
      20       -0.000007167201    -0.000001462872     0.000008819616
      21        0.000001528300     0.000001059001    -0.000003094191
      22       -0.000010056353     0.000006585409    -0.000001765071
      23        0.000005255462    -0.000008274122     0.000003980213
      24       -0.000002723258     0.000011392002     0.000017318317
      25        0.000001970766     0.000001579251     0.000002338639

  **** Optimization is complete! (in 8 steps) ****
    Final optimized geometry and variables:
    Molecular point group: c1

    Geometry (in Angstrom), charge = 0, multiplicity = 1:

    H           -1.451168501972     0.374609959620     4.310565506101
    C           -1.445897594689     0.231521236794     3.223183205572
    C           -0.881334186866     1.378221083768     2.414916130557
    O           -1.883364042630    -0.767174173066     2.764477493423
    C            0.188677756902     0.971705701048     1.390863651685
    H           -1.717066184194     1.848614873624     1.903557896196
    H           -0.475703601366     2.110492920898     3.103259805881
    C           -0.350467601535     0.291931187345     0.134039870137
    H            0.724636001938     1.870718631771     1.103147325106
    H            0.917638344864     0.325729676812     1.872146066602
    C            0.752709104991    -0.068328050635    -0.857746840746
    H           -1.061986393506     0.958948141452    -0.347978015008
    H           -0.901015956176    -0.598044568532     0.408853005920
    C            0.215895405659    -0.727488346434    -2.126889321903
    H            1.310556899746     0.828027538692    -1.112053615606
    H            1.458838096455    -0.742593338290    -0.378039603382
    C            1.288515993831    -1.190506282433    -3.114225369990
    H           -0.459499089322    -0.039452619108    -2.630560198086
    H           -0.384817704149    -1.586668055560    -1.842710002734
    C            2.099587598421    -0.064371903936    -3.750761683060
    H            0.805631521758    -1.759197708207    -3.902981586337
    H            1.962168771983    -1.880864602215    -2.613396723118
    H            1.451129576860     0.646192715652    -4.253529877038
    H            2.681934537502     0.480934353701    -3.017824775551
    H            2.790854846647    -0.457401965921    -4.487590823643

  Mulliken Charges: (a.u.)
   Center  Symbol    Alpha    Beta     Spin     Total
       1     H     0.44972  0.44972  0.00000  0.10057
       2     C     2.91932  2.91932  0.00000  0.16136
       3     C     3.09995  3.09995  0.00000 -0.19991
       4     O     4.16749  4.16749  0.00000 -0.33499
       5     C     3.09490  3.09490  0.00000 -0.18980
       6     H     0.44355  0.44355  0.00000  0.11290
       7     H     0.44006  0.44006  0.00000  0.11988
       8     C     3.09148  3.09148  0.00000 -0.18295
       9     H     0.44710  0.44710  0.00000  0.10580
      10     H     0.45150  0.45150  0.00000  0.09699
      11     C     3.09300  3.09300  0.00000 -0.18601
      12     H     0.45814  0.45814  0.00000  0.08372
      13     H     0.43551  0.43551  0.00000  0.12898
      14     C     3.09498  3.09498  0.00000 -0.18997
      15     H     0.45449  0.45449  0.00000  0.09102
      16     H     0.45443  0.45443  0.00000  0.09114
      17     C     3.09044  3.09044  0.00000 -0.18089
      18     H     0.45469  0.45469  0.00000  0.09061
      19     H     0.44725  0.44725  0.00000  0.10551
      20     C     3.15271  3.15271  0.00000 -0.30542
      21     H     0.44846  0.44846  0.00000  0.10307
      22     H     0.45471  0.45471  0.00000  0.09057
      23     H     0.45525  0.45525  0.00000  0.08951
      24     H     0.45433  0.45433  0.00000  0.09134
      25     H     0.44652  0.44652  0.00000  0.10697

   Total alpha = 36.00000, Total beta = 36.00000, Total charge =  0.00000

*** Psi4 exiting successfully. Buy a developer a beer!
