  ==> Input File <==

--------------------------------------------------------------------------
set {
	reference rhf
	basis cc-pvtz
}

set_num_threads( 4 )
memory 2 gb

molecule MOL {
0 1

H	 -1.201923	 -1.005868	 0.618362
N	 -1.173824	 -0.310545	 -0.096857
C	 -0.022588	 0.563366	 0.065815
H	 -1.136330	 -0.789405	 -0.972585
C	 1.270420	 -0.230572	 -0.014245
H	 -0.045354	 1.293678	 -0.735129
H	 -0.043155	 1.123061	 1.001180
H	 1.336273	 -0.754933	 -0.959364
H	 2.130728	 0.422015	 0.082222
H	 1.323344	 -0.967006	 0.781773

	symmetry c1
}
set optking {
	frozen_dihedral = ("
		1 2 3 6
	")
}

ee = optimize('scf')
oeprop('DIPOLE', 'QUADRUPOLE', 'MULLIKEN_CHARGES')
f=open( 'psi4out.xyz', 'w' )
f.write( "10  " )
f.write( str(ee) + "\n" )
f.write( MOL.save_string_xyz() )
f.close()
--------------------------------------------------------------------------

    Molecular point group: c1
  Charge       = 0
  Multiplicity = 1
  Basis Set: CC-PVTZ
  Basis Set:
  @DF-RHF Final Energy:  -134.30262431365327
    Total Energy =                       -134.3026243136533253
    Molecular point group: c1
  Basis Set: CC-PVTZ
  Basis Set:
  Basis Set: CC-PVTZ
  Basis Set:
  @DF-RHF Final Energy:  -134.30438817053351
    Total Energy =                       -134.3043881705335707
  Basis Set: CC-PVTZ
  Basis Set:
  Basis Set: CC-PVTZ
  Basis Set:
  @DF-RHF Final Energy:  -134.30460405929315
    Total Energy =                       -134.3046040592931547
  Basis Set: CC-PVTZ
  Basis Set:
  Charge       = 0
  Multiplicity = 1
  Basis Set: CC-PVTZ
  Basis Set:

    Orbital Energies (a.u.)
    -----------------------

    Doubly Occupied:

       1A    -15.527311     2A    -11.241279     3A    -11.208465
       4A     -1.178868     5A     -0.988370     6A     -0.832406
       7A     -0.675635     8A     -0.599869     9A     -0.571811
      10A     -0.564071    11A     -0.507292    12A     -0.483370
      13A     -0.384375

  @DF-RHF Final Energy:  -134.30460559506128

   => Energetics <=

    Nuclear Repulsion Energy =             83.3371638063011630
    One-Electron Energy =                -345.7572946506287508
    Two-Electron Energy =                 128.1155252492663408
    DFT Exchange-Correlation Energy =       0.0000000000000000
    Empirical Dispersion Energy =           0.0000000000000000
    PCM Polarization Energy =               0.0000000000000000
    EFP Energy =                            0.0000000000000000
    Total Energy =                       -134.3046055950612185
    Molecular point group: c1
  Basis Set: CC-PVTZ
  Basis Set:

  -Total Gradient:
     Atom            X                  Y                   Z
    ------   -----------------  -----------------  -----------------
       1        0.000199758843    -0.000188071180    -0.000209662498
       2       -0.000180073369     0.000253651694     0.000227507253
       3       -0.000105814020     0.000193165332     0.000166018024
       4        0.000044530500     0.000042631083     0.000029350789
       5        0.000036247074    -0.000061543676    -0.000044688752
       6        0.000123215317    -0.000236937250    -0.000179903125
       7       -0.000061409307    -0.000040172073    -0.000000176050
       8        0.000000973477     0.000002156392     0.000005346233
       9       -0.000025364128     0.000015200657     0.000001516435
      10       -0.000032064385     0.000019919023     0.000004691692

  **** Optimization is complete! (in 4 steps) ****
    Final optimized geometry and variables:
    Molecular point group: c1

    Geometry (in Angstrom), charge = 0, multiplicity = 1:

    H           -1.256701786491    -0.969539722409     0.644717786558
    N           -1.230175886509    -0.263322000168    -0.061054846493
    C           -0.035697382448     0.553969161190     0.066284534401
    H           -1.249226815003    -0.730958562897    -0.943271829037
    C            1.286260229572    -0.204552916868     0.008015201853
    H           -0.059329797058     1.299400871633    -0.720582193158
    H           -0.101423323008     1.096365777595     1.002781497521
    H            1.391375777118    -0.730369791921    -0.935680361980
    H            2.129168650931     0.471155603605     0.109727466406
    H            1.348394373430    -0.937805432360     0.805950825632

  Mulliken Charges: (a.u.)
   Center  Symbol    Alpha    Beta     Spin     Total
       1     H     0.43212  0.43212  0.00000  0.13575
       2     N     3.68635  3.68635  0.00000 -0.37269
       3     C     3.02886  3.02886  0.00000 -0.05772
       4     H     0.43201  0.43201  0.00000  0.13597
       5     C     3.13770  3.13770  0.00000 -0.27540
       6     H     0.45411  0.45411  0.00000  0.09178
       7     H     0.45398  0.45398  0.00000  0.09204
       8     H     0.45948  0.45948  0.00000  0.08103
       9     H     0.45583  0.45583  0.00000  0.08834
      10     H     0.45955  0.45955  0.00000  0.08091

   Total alpha = 13.00000, Total beta = 13.00000, Total charge =  0.00000
