                              Psi4 1.0.54 Driver

  ==> Input File <==

--------------------------------------------------------------------------
set {
	reference rhf
	basis cc-pvtz
}

set_num_threads( 4 )
memory 2 gb

molecule MOL {
0 1

H	 2.441316	 0.226859	 0.507099
O	 1.563041	 0.358611	 0.811927
C	 0.700177	 0.619554	 -0.266242
C	 -0.713111	 0.588314	 0.266177
H	 0.813439	 -0.134946	 -1.038787
H	 0.905042	 1.594770	 -0.700248
O	 -1.421673	 -0.521378	 -0.196983
H	 -1.244794	 1.469161	 -0.069059
H	 -0.685100	 0.604721	 1.352683
H	 -0.933408	 -1.297830	 0.014544

	symmetry c1
}
set optking {
	frozen_dihedral = ("
		5 3 4 7
	")
}

ee,wfn = optimize('scf', return_wfn=True)
oeprop( wfn, 'DIPOLE', 'QUADRUPOLE', 'MULLIKEN_CHARGES')
f=open( 'psi4out.xyz', 'w' )
f.write( "10  " )
f.write( str(ee) + "\n" )
f.write( MOL.save_string_xyz() )
f.close()
--------------------------------------------------------------------------

    Molecular point group: c1
  Charge       = 0
  Multiplicity = 1
  Basis Set: CC-PVTZ
  Basis Set:
  @DF-RHF Final Energy:  -229.01987069948396
    Total Energy =                       -229.0198706994839881
    Molecular point group: c1
  Basis Set: CC-PVTZ
  Basis Set:
  Basis Set: CC-PVTZ
  Basis Set:
  @DF-RHF Final Energy:  -229.02094832688670
    Total Energy =                       -229.0209483268867245
  Basis Set: CC-PVTZ
  Basis Set:
  Basis Set: CC-PVTZ
  Basis Set:
  @DF-RHF Final Energy:  -229.02131335442945
    Total Energy =                       -229.0213133544294521
  Basis Set: CC-PVTZ
  Basis Set:
  Basis Set: CC-PVTZ
  Basis Set:
  @DF-RHF Final Energy:  -229.02134857031251
    Total Energy =                       -229.0213485703123979
  Basis Set: CC-PVTZ
  Basis Set:
  Basis Set: CC-PVTZ
  Basis Set:
  @DF-RHF Final Energy:  -229.02134990020895
    Total Energy =                       -229.0213499002089179
  Basis Set: CC-PVTZ
  Basis Set:
  Charge       = 0
  Multiplicity = 1
  Basis Set: CC-PVTZ
  Basis Set:

    Orbital Energies (a.u.)
    -----------------------

    Doubly Occupied:

       1A    -20.553819     2A    -20.548728     3A    -11.270859
       4A    -11.267379     5A     -1.376543     6A     -1.360736
       7A     -0.998242     8A     -0.846774     9A     -0.728232
      10A     -0.673054    11A     -0.654139    12A     -0.608820
      13A     -0.575802    14A     -0.527083    15A     -0.494016
      16A     -0.452493    17A     -0.436516

  @DF-RHF Final Energy:  -229.02135007098826

   => Energetics <=

    Nuclear Repulsion Energy =            131.8405847509543491
    One-Electron Energy =                -574.9774107876478411
    Two-Electron Energy =                 214.1154759657052011
    DFT Exchange-Correlation Energy =       0.0000000000000000
    Empirical Dispersion Energy =           0.0000000000000000
    PCM Polarization Energy =               0.0000000000000000
    EFP Energy =                            0.0000000000000000
    Total Energy =                       -229.0213500709882908
    Molecular point group: c1
  Basis Set: CC-PVTZ
  Basis Set:

  -Total Gradient:
     Atom            X                  Y                   Z
    ------   -----------------  -----------------  -----------------
       1       -0.000014521588     0.000005179295     0.000004014263
       2        0.000007383416    -0.000003799533     0.000006296644
       3       -0.001786948572     0.004134565295    -0.004541640308
       4        0.001692650370    -0.003099174811     0.004302768913
       5        0.001157275625    -0.002832079932     0.002899960115
       6       -0.000000239040    -0.000004200731    -0.000005067577
       7       -0.001046374353     0.001791768100    -0.002659933597
       8        0.000001858086    -0.000011534693    -0.000001049200
       9       -0.000003941107     0.000007718282     0.000003834387
      10       -0.000007142834     0.000011558726    -0.000009183640

  **** Optimization is complete! (in 6 steps) ****
    Final optimized geometry and variables:
    Molecular point group: c1

    Geometry (in Angstrom), charge = 0, multiplicity = 1:

    H            2.427432496905     0.091990171170     0.317610521143
    O            1.541214571515     0.100933811512     0.629356944991
    C            0.658656922388     0.394555924314    -0.427953183607
    C           -0.770654349329     0.358853063680     0.109814073734
    H            0.752906921474    -0.358673013995    -1.202743677057
    H            0.886705233689     1.368284128209    -0.849217056827
    O           -1.509304203806    -0.741397223512    -0.345785785365
    H           -1.314552883274     1.228798224999    -0.230732498292
    H           -0.731266366087     0.392339029156     1.192331770486
    H           -1.194131919430    -1.528831167039     0.060298733603

  Mulliken Charges: (a.u.)
   Center  Symbol    Alpha    Beta     Spin     Total
       1     H     0.39306  0.39306  0.00000  0.21389
       2     O     4.20191  4.20191  0.00000 -0.40383
       3     C     2.97666  2.97666  0.00000  0.04668
       4     C     2.96930  2.96930  0.00000  0.06139
       5     H     0.46992  0.46992  0.00000  0.06016
       6     H     0.47257  0.47257  0.00000  0.05486
       7     O     4.20336  4.20336  0.00000 -0.40673
       8     H     0.45913  0.45913  0.00000  0.08174
       9     H     0.46285  0.46285  0.00000  0.07430
      10     H     0.39123  0.39123  0.00000  0.21754

   Total alpha = 17.00000, Total beta = 17.00000, Total charge =  0.00000

*** Psi4 exiting successfully. Buy a developer a beer!
