                              Psi4 1.0.54 Driver

  ==> Input File <==

--------------------------------------------------------------------------
set {
	reference rhf
	basis cc-pvtz
}

set_num_threads( 4 )
memory 2 gb

molecule MOL {
0 1

H	 0.829917	 0.564415	 2.253216
C	 -0.126345	 0.621623	 1.754216
O	 0.000000	 0.000000	 0.518769
H	 -0.874182	 0.130080	 2.373070
H	 -0.403389	 1.668358	 1.647222
C	 -1.165153	 0.000000	 -0.236961
H	 -1.229451	 0.882440	 -0.870223
H	 -2.002557	 0.000000	 0.445289
H	 -1.229451	 -0.882440	 -0.870223

	symmetry c1
}
set optking {
	frozen_dihedral = ("
		2 3 6 7
	")
}

ee,wfn = optimize('scf', return_wfn=True)
oeprop( wfn, 'DIPOLE', 'QUADRUPOLE', 'MULLIKEN_CHARGES')
f=open( 'psi4out.xyz', 'w' )
f.write( "9  " )
f.write( str(ee) + "\n" )
f.write( MOL.save_string_xyz() )
f.close()
--------------------------------------------------------------------------

    Molecular point group: c1
  Charge       = 0
  Multiplicity = 1
  Basis Set: CC-PVTZ
  Basis Set:
  @DF-RHF Final Energy:  -154.12422850705480
    Total Energy =                       -154.1242285070549087
    Molecular point group: c1
  Basis Set: CC-PVTZ
  Basis Set:
  Basis Set: CC-PVTZ
  Basis Set:
  @DF-RHF Final Energy:  -154.12032862426599
    Total Energy =                       -154.1203286242659942
  Basis Set: CC-PVTZ
  Basis Set:
  Basis Set: CC-PVTZ
  Basis Set:
  @DF-RHF Final Energy:  -154.12535348962211
    Total Energy =                       -154.1253534896221140
  Basis Set: CC-PVTZ
  Basis Set:
  Basis Set: CC-PVTZ
  Basis Set:
  @DF-RHF Final Energy:  -154.12541178013691
    Total Energy =                       -154.1254117801369716
  Basis Set: CC-PVTZ
  Basis Set:
  Charge       = 0
  Multiplicity = 1
  Basis Set: CC-PVTZ
  Basis Set:

    Orbital Energies (a.u.)
    -----------------------

    Doubly Occupied:

       1A    -20.548659     2A    -11.263403     3A    -11.262842
       4A     -1.380384     5A     -0.975973     6A     -0.872474
       7A     -0.662120     8A     -0.654852     9A     -0.645877
      10A     -0.555368    11A     -0.528608    12A     -0.476182
      13A     -0.417666

  @DF-RHF Final Energy:  -154.12541241125305

   => Energetics <=

    Nuclear Repulsion Energy =             84.7153543684796375
    One-Electron Energy =                -377.1927169769096508
    Two-Electron Energy =                 138.3519501971769614
    DFT Exchange-Correlation Energy =       0.0000000000000000
    Empirical Dispersion Energy =           0.0000000000000000
    PCM Polarization Energy =               0.0000000000000000
    EFP Energy =                            0.0000000000000000
    Total Energy =                       -154.1254124112530235
    Molecular point group: c1
  Basis Set: CC-PVTZ
  Basis Set:

  -Total Gradient:
     Atom            X                  Y                   Z
    ------   -----------------  -----------------  -----------------
       1        0.000021054023    -0.000008553023     0.000006795059
       2       -0.000926804049    -0.001791793356     0.001171219463
       3        0.001615014604     0.002141941111    -0.002250183233
       4       -0.000021029469    -0.000027505754    -0.000029109280
       5       -0.000005638576    -0.000011402155    -0.000018336775
       6       -0.001941225472     0.001556641817     0.003040980773
       7        0.001269664991    -0.001848173635    -0.001905776769
       8        0.000001493293     0.000012249949     0.000021259646
       9       -0.000012529345    -0.000023404956    -0.000036848884

  **** Optimization is complete! (in 5 steps) ****
    Final optimized geometry and variables:
    Molecular point group: c1

    Geometry (in Angstrom), charge = 0, multiplicity = 1:

    H            1.305164945663     0.325465497586     1.553182625538
    C            0.368309079443     0.471257013004     1.035002194755
    O            0.404303867238    -0.288481533993    -0.127522620531
    H           -0.444686183758     0.160248488415     1.686954834877
    H            0.251320392201     1.531931548780     0.821158651736
    C           -0.737969254773    -0.206124380586    -0.918112113114
    H           -0.657464916535     0.601503947538    -1.641277666861
    H           -1.634732066331    -0.063495234451    -0.322112361363
    H           -0.834717561562    -1.134131790168    -1.465819732131

  Mulliken Charges: (a.u.)
   Center  Symbol    Alpha    Beta     Spin     Total
       1     H     0.44919  0.44919  0.00000  0.10161
       2     C     3.02144  3.02144  0.00000 -0.04287
       3     O     4.16989  4.16989  0.00000 -0.33977
       4     H     0.47217  0.47217  0.00000  0.05567
       5     H     0.47372  0.47372  0.00000  0.05255
       6     C     3.01941  3.01941  0.00000 -0.03881
       7     H     0.46686  0.46686  0.00000  0.06627
       8     H     0.47512  0.47512  0.00000  0.04975
       9     H     0.45220  0.45220  0.00000  0.09561

   Total alpha = 13.00000, Total beta = 13.00000, Total charge = -0.00000

*** Psi4 exiting successfully. Buy a developer a beer!
