  ==> Input File <==

--------------------------------------------------------------------------
set {
	reference rhf
	basis 6-31G*
}

set_num_threads( 4 )
memory 2 gb

molecule MOL {
0 1

H	 -3.892951	 0.981613	 -0.358725
C	 -3.196921	 0.361773	 0.172313
C	 -2.076860	 -0.007332	 -0.404944
H	 -3.439953	 0.057760	 1.173024
O	 -1.836089	 0.222131	 -1.722607
H	 -1.279714	 -0.492534	 0.130156
C	 -0.711084	 -0.351731	 -2.294355
C	 -0.986694	 -1.755489	 -2.784043
H	 0.125894	 -0.392443	 -1.606238
H	 -0.433081	 0.248238	 -3.148309
F	 0.104631	 -2.245911	 -3.353518
F	 -1.320229	 -2.564635	 -1.792142
F	 -1.957962	 -1.787881	 -3.672851

	symmetry c1
}
set optking {
	frozen_dihedral = ("
		6 3 2 1
	")
}

ee = optimize('scf')
oeprop('DIPOLE', 'QUADRUPOLE', 'MULLIKEN_CHARGES')
f=open( 'psi4out.xyz', 'w' )
f.write( "13  " )
f.write( str(ee) + "\n" )
f.write( MOL.save_string_xyz() )
f.close()
--------------------------------------------------------------------------

    Molecular point group: c1
  Charge       = 0
  Multiplicity = 1
  Basis Set: 6-31G*
  Basis Set:
  @DF-RHF Final Energy:  -527.53337130517014
    Total Energy =                       -527.5333713051703626
    Molecular point group: c1
  Basis Set: 6-31G*
  Basis Set:
  Basis Set: 6-31G*
  Basis Set:
  @DF-RHF Final Energy:  -527.53437694017975
    Total Energy =                       -527.5343769401798681
  Basis Set: 6-31G*
  Basis Set:
  Basis Set: 6-31G*
  Basis Set:
  @DF-RHF Final Energy:  -527.53490711938286
    Total Energy =                       -527.5349071193827513
  Basis Set: 6-31G*
  Basis Set:
  Basis Set: 6-31G*
  Basis Set:
  @DF-RHF Final Energy:  -527.53491493332183
    Total Energy =                       -527.5349149333220566
  Basis Set: 6-31G*
  Basis Set:
  Basis Set: 6-31G*
  Basis Set:
  @DF-RHF Final Energy:  -527.53491611961306
    Total Energy =                       -527.5349161196133991
  Basis Set: 6-31G*
  Basis Set:
  Charge       = 0
  Multiplicity = 1
  Basis Set: 6-31G*
  Basis Set:

    Orbital Energies (a.u.)
    -----------------------

    Doubly Occupied:

       1A    -26.344475     2A    -26.343456     3A    -26.340362
       4A    -20.608319     5A    -11.502992     6A    -11.318984
       7A    -11.299717     8A    -11.215865     9A     -1.741562
      10A     -1.639690    11A     -1.638059    12A     -1.438197
      13A     -1.084329    14A     -1.016374    15A     -0.925190
      16A     -0.836448    17A     -0.830791    18A     -0.821185
      19A     -0.791949    20A     -0.721641    21A     -0.711199
      22A     -0.696310    23A     -0.675797    24A     -0.660196
      25A     -0.654490    26A     -0.642909    27A     -0.634048
      28A     -0.584651    29A     -0.562908    30A     -0.524500
      31A     -0.513967    32A     -0.351094

  @DF-RHF Final Energy:  -527.53491686222435

   => Energetics <=

    Nuclear Repulsion Energy =            413.2705650010948375
    One-Electron Energy =               -1550.2676573934268163
    Two-Electron Energy =                 609.4621755301077428
    DFT Exchange-Correlation Energy =       0.0000000000000000
    Empirical Dispersion Energy =           0.0000000000000000
    PCM Polarization Energy =               0.0000000000000000
    EFP Energy =                            0.0000000000000000
    Total Energy =                       -527.5349168622242360
    Molecular point group: c1
  Basis Set: 6-31G*
  Basis Set:

  -Total Gradient:
     Atom            X                  Y                   Z
    ------   -----------------  -----------------  -----------------
       1        0.002922446943     0.005226355814     0.001978249002
       2       -0.003008731822    -0.004840321500    -0.002390543534
       3       -0.002478508101    -0.006027526919    -0.000591545832
       4       -0.000006636901    -0.000055954754     0.000030691553
       5       -0.000012463667    -0.000085716328    -0.000033056610
       6        0.002567459274     0.005743206733     0.001002630902
       7        0.000015011319     0.000043964430     0.000001643235
       8        0.000000247591     0.000004522058    -0.000003775076
       9       -0.000001155730    -0.000000615146     0.000001991296
      10        0.000007245482     0.000006746203     0.000001777045
      11       -0.000008184771     0.000001507212     0.000000124044
      12        0.000003588100    -0.000018074492     0.000012430932
      13       -0.000000317719     0.000001906696    -0.000010616968

  **** Optimization is complete! (in 6 steps) ****
    Final optimized geometry and variables:
    Molecular point group: c1

    Geometry (in Angstrom), charge = 0, multiplicity = 1:

    H           -2.493509437759     2.087957984260     1.740863715611
    C           -1.768179789300     1.493947893539     2.264333196376
    C           -0.659620788493     1.092070181106     1.686180298027
    H           -1.917875770771     1.312057472255     3.311043649209
    O           -0.404190826842     1.337393728135     0.373881431404
    H            0.146919689819     0.633997573020     2.230857781999
    C            0.731426302123     0.777544202259    -0.190682319283
    C            0.468738772137    -0.620014028281    -0.704609740309
    H            1.559488467631     0.730305567504     0.507715200986
    H            1.018264473160     1.391247802959    -1.031845597939
    F            1.570227291936    -1.097529621004    -1.265490511558
    F            0.124344975807    -1.444932941870     0.270258279294
    F           -0.489390195560    -0.642953109627    -1.607848642025

  Mulliken Charges: (a.u.)
   Center  Symbol    Alpha    Beta     Spin     Total
       1     H     0.40188  0.40188  0.00000  0.19625
       2     C     3.23535  3.23535  0.00000 -0.47071
       3     C     2.89504  2.89504  0.00000  0.20991
       4     H     0.40747  0.40747  0.00000  0.18506
       5     O     4.30163  4.30163  0.00000 -0.60326
       6     H     0.40693  0.40693  0.00000  0.18614
       7     C     3.06397  3.06397  0.00000 -0.12795
       8     C     2.45551  2.45551  0.00000  1.08897
       9     H     0.40569  0.40569  0.00000  0.18862
      10     H     0.38971  0.38971  0.00000  0.22057
      11     F     4.68288  4.68288  0.00000 -0.36577
      12     F     4.67946  4.67946  0.00000 -0.35891
      13     F     4.67446  4.67446  0.00000 -0.34893

   Total alpha = 32.00000, Total beta = 32.00000, Total charge =  0.00000
