  ==> Input File <==

--------------------------------------------------------------------------
set {
	reference rhf
	basis 6-31G*
}

set_num_threads( 1 )
memory 2 gb

molecule MOL {
0 1

H	 3.071816	 0.064701	 0.489826
O	 2.374156	 0.625139	 0.181818
C	 1.135793	 0.118896	 0.612333
C	 0.031547	 1.023609	 0.088541
H	 1.092312	 0.093010	 1.699682
H	 0.996567	 -0.900338	 0.258950
C	 -1.134819	 0.293262	 -0.585751
H	 0.474374	 1.714721	 -0.623187
H	 -0.338529	 1.620940	 0.920081
C	 -1.917817	 -0.639439	 0.339494
H	 -0.758119	 -0.268455	 -1.433105
H	 -1.813832	 1.041889	 -0.986690
H	 -2.777680	 -1.057197	 -0.174994
H	 -1.310268	 -1.471279	 0.680599
H	 -2.283753	 -0.111424	 1.216626

	symmetry c1
}
set optking {
	frozen_dihedral = ("
		8 4 7 11,
		1 2 3 4
	")
}

ee = energy('scf')
oeprop('DIPOLE', 'QUADRUPOLE', 'MULLIKEN_CHARGES')
f=open( 'psi4out.xyz', 'w' )
f.write( "15  " )
f.write( str(ee) + "\n" )
f.write( MOL.save_string_xyz() )
f.close()
--------------------------------------------------------------------------

    Molecular point group: c1

    Geometry (in Angstrom), charge = 0, multiplicity = 1:

       Center              X                  Y                   Z               Mass
    ------------   -----------------  -----------------  -----------------  -----------------
           H          2.914198598954    -0.209180025127     0.349054650464     1.007825032070
           O          2.216538598954     0.351257974873     0.041046650464    15.994914619560
           C          0.978175598954    -0.154985025127     0.471561650464    12.000000000000
           C         -0.126070401046     0.749727974873    -0.052230349536    12.000000000000
           H          0.934694598954    -0.180871025127     1.558910650464     1.007825032070
           H          0.838949598954    -1.174219025127     0.118178650464     1.007825032070
           C         -1.292436401046     0.019380974873    -0.726522349536    12.000000000000
           H          0.316756598954     1.440839974873    -0.763958349536     1.007825032070
           H         -0.496146401046     1.347058974873     0.779309650464     1.007825032070
           C         -2.075434401046    -0.913320025127     0.198722650464    12.000000000000
           H         -0.915736401046    -0.542336025127    -1.573876349536     1.007825032070
           H         -1.971449401046     0.768007974873    -1.127461349536     1.007825032070
           H         -2.935297401046    -1.331078025127    -0.315765349536     1.007825032070
           H         -1.467885401046    -1.745160025127     0.539827650464     1.007825032070
           H         -2.441370401046    -0.385305025127     1.075854650464     1.007825032070

  Charge       = 0
  Multiplicity = 1
  Basis Set: 6-31G*
  Basis Set:

    Orbital Energies (a.u.)
    -----------------------

    Doubly Occupied:

       1A    -20.551835     2A    -11.266140     3A    -11.216820
       4A    -11.211181     5A    -11.209844     6A     -1.358380
       7A     -1.069234     8A     -0.970842     9A     -0.870232
      10A     -0.782151    11A     -0.701011    12A     -0.648761
      13A     -0.605514    14A     -0.590502    15A     -0.557429
      16A     -0.535421    17A     -0.509735    18A     -0.475968
      19A     -0.470919    20A     -0.456012    21A     -0.428622

  @DF-RHF Final Energy:  -232.13816361987210

   => Energetics <=

    Nuclear Repulsion Energy =            188.4079706881067864
    One-Electron Energy =                -688.1190830288541065
    Two-Electron Energy =                 267.5729487208752744
    DFT Exchange-Correlation Energy =       0.0000000000000000
    Empirical Dispersion Energy =           0.0000000000000000
    PCM Polarization Energy =               0.0000000000000000
    EFP Energy =                            0.0000000000000000
    Total Energy =                       -232.1381636198720457

  Mulliken Charges: (a.u.)
   Center  Symbol    Alpha    Beta     Spin     Total
       1     H     0.28196  0.28196  0.00000  0.43607
       2     O     4.37179  4.37179  0.00000 -0.74357
       3     C     2.99290  2.99290  0.00000  0.01420
       4     C     3.16633  3.16633  0.00000 -0.33267
       5     H     0.43060  0.43060  0.00000  0.13881
       6     H     0.43061  0.43061  0.00000  0.13877
       7     C     3.15871  3.15871  0.00000 -0.31743
       8     H     0.40271  0.40271  0.00000  0.19459
       9     H     0.42097  0.42097  0.00000  0.15806
      10     C     3.24252  3.24252  0.00000 -0.48503
      11     H     0.41969  0.41969  0.00000  0.16062
      12     H     0.41973  0.41973  0.00000  0.16053
      13     H     0.41791  0.41791  0.00000  0.16418
      14     H     0.42224  0.42224  0.00000  0.15552
      15     H     0.42133  0.42133  0.00000  0.15733

   Total alpha = 21.00000, Total beta = 21.00000, Total charge =  0.00000
