                              Psi4 1.0.54 Driver

  ==> Input File <==

--------------------------------------------------------------------------
set {
	reference rhf
	basis cc-pvtz
}

set_num_threads( 4 )
memory 2 gb

molecule MOL {
0 1

O	 2.838386	 1.399900	 0.452883
C	 2.794740	 0.238209	 0.695124
C	 1.496908	 -0.543680	 0.684489
C	 4.043996	 -0.543676	 1.033117
C	 0.265550	 0.282807	 0.341698
H	 1.616254	 -1.366567	 -0.016710
H	 1.388087	 -1.010758	 1.660708
C	 -1.016129	 -0.545691	 0.343231
H	 0.405546	 0.743166	 -0.629685
H	 0.177281	 1.099388	 1.049185
C	 -2.258482	 0.271340	 0.000669
H	 -0.919451	 -1.364126	 -0.366763
H	 -1.148972	 -1.005932	 1.319854
C	 -3.544441	 -0.550271	 -0.000253
H	 -2.126743	 0.731599	 -0.975507
H	 -2.356423	 1.089236	 0.710303
C	 -4.804551	 0.308747	 0.000556
H	 -3.553737	 -1.201524	 -0.870151
H	 -3.553831	 -1.203282	 0.868313
H	 -4.842050	 0.949078	 -0.874436
H	 -5.698404	 -0.304480	 -0.000254
H	 -4.842277	 0.947103	 0.876982
H	 4.181839	 -1.353099	 0.324680
H	 4.902418	 0.109746	 1.009852
H	 3.951128	 -0.989471	 2.017334

	symmetry c1
}
set optking {
	frozen_dihedral = ("
		15 11 14 18
	")
}

ee,wfn = optimize('scf', return_wfn=True)
oeprop( wfn, 'DIPOLE', 'QUADRUPOLE', 'MULLIKEN_CHARGES')
f=open( 'psi4out.xyz', 'w' )
f.write( "25  " )
f.write( str(ee) + "\n" )
f.write( MOL.save_string_xyz() )
f.close()
--------------------------------------------------------------------------

    Molecular point group: c1
  Charge       = 0
  Multiplicity = 1
  Basis Set: CC-PVTZ
  Basis Set:
  @DF-RHF Final Energy:  -387.27391608653676
    Total Energy =                       -387.2739160865368149
    Molecular point group: c1
  Basis Set: CC-PVTZ
  Basis Set:
  Basis Set: CC-PVTZ
  Basis Set:
  @DF-RHF Final Energy:  -387.27398449094824
    Total Energy =                       -387.2739844909484646
  Basis Set: CC-PVTZ
  Basis Set:
  Basis Set: CC-PVTZ
  Basis Set:
  @DF-RHF Final Energy:  -387.27403356644436
    Total Energy =                       -387.2740335664445865
  Basis Set: CC-PVTZ
  Basis Set:
  Basis Set: CC-PVTZ
  Basis Set:
  @DF-RHF Final Energy:  -387.27402341369503
    Total Energy =                       -387.2740234136947493
  Basis Set: CC-PVTZ
  Basis Set:
  Basis Set: CC-PVTZ
  Basis Set:
  @DF-RHF Final Energy:  -387.27403460860592
    Total Energy =                       -387.2740346086061436
  Basis Set: CC-PVTZ
  Basis Set:
  Charge       = 0
  Multiplicity = 1
  Basis Set: CC-PVTZ
  Basis Set:

    Orbital Energies (a.u.)
    -----------------------

    Doubly Occupied:

       1A    -20.538862     2A    -11.320492     3A    -11.230143
       4A    -11.226574     5A    -11.215150     6A    -11.214532
       7A    -11.213590     8A    -11.211573     9A    -11.206347
      10A     -1.398905    11A     -1.095062    12A     -1.057498
      13A     -1.015505    14A     -0.970114    15A     -0.891300
      16A     -0.814672    17A     -0.791138    18A     -0.730972
      19A     -0.662913    20A     -0.654293    21A     -0.633389
      22A     -0.626793    23A     -0.597345    24A     -0.585364
      25A     -0.567909    26A     -0.560058    27A     -0.540353
      28A     -0.527142    29A     -0.513807    30A     -0.492206
      31A     -0.489294    32A     -0.474358    33A     -0.463455
      34A     -0.463092    35A     -0.452236    36A     -0.401321

  @DF-RHF Final Energy:  -387.27403477376561

   => Energetics <=

    Nuclear Repulsion Energy =            439.1369352251390410
    One-Electron Energy =               -1395.1264244583562686
    Two-Electron Energy =                 568.7154544594511663
    DFT Exchange-Correlation Energy =       0.0000000000000000
    Empirical Dispersion Energy =           0.0000000000000000
    PCM Polarization Energy =               0.0000000000000000
    EFP Energy =                            0.0000000000000000
    Total Energy =                       -387.2740347737660613
    Molecular point group: c1
  Basis Set: CC-PVTZ
  Basis Set:

  -Total Gradient:
     Atom            X                  Y                   Z
    ------   -----------------  -----------------  -----------------
       1       -0.000001124160     0.000005468582     0.000010771256
       2        0.000003168166    -0.000009218796    -0.000034634170
       3       -0.000003131097     0.000004387621     0.000015196688
       4       -0.000002535977     0.000003345787     0.000013673159
       5        0.000005344111    -0.000001638008    -0.000008177153
       6       -0.000001400371     0.000001464464    -0.000000697195
       7        0.000001073932    -0.000002357948     0.000002340531
       8        0.000001728763     0.000000396094    -0.000010566064
       9       -0.000003410828     0.000004557284     0.000000186234
      10        0.000003889232    -0.000001352870     0.000004761246
      11       -0.001938574999     0.002942174848     0.000682200802
      12        0.000002522932    -0.000007740175     0.000000388047
      13       -0.000004135379     0.000004632858     0.000001865223
      14        0.001770489602    -0.002753166081     0.001488843521
      15        0.001361487369    -0.002035110498    -0.000805637331
      16       -0.000003706332    -0.000001136124    -0.000002375644
      17        0.000004793568    -0.000008280366    -0.000000132257
      18       -0.001181508078     0.001850244940    -0.001353672322
      19       -0.000001129249    -0.000002356509    -0.000001981272
      20        0.000000399315     0.000008518042    -0.000009640555
      21       -0.000017155803    -0.000008873496     0.000000189352
      22        0.000001467258     0.000007662756     0.000008141903
      23       -0.000000986842     0.000000001842    -0.000002268858
      24        0.000000205145     0.000000592327     0.000000458426
      25        0.000002229721    -0.000002216573     0.000000766433

  **** Optimization is complete! (in 6 steps) ****
    Final optimized geometry and variables:
    Molecular point group: c1

    Geometry (in Angstrom), charge = 0, multiplicity = 1:

    O            2.863861710486     1.365791326561     0.027784161903
    C            2.824838451487     0.204614015859     0.272985597670
    C            1.527622714999    -0.578456371492     0.283818254282
    C            4.079669715088    -0.575713475372     0.593811587671
    C            0.290441593260     0.246149388028    -0.042069423412
    H            1.637119383400    -1.402662079786    -0.417443090858
    H            1.434184858779    -1.043591126949     1.262556256056
    C           -0.990249501092    -0.583479680769    -0.020732890979
    H            0.415935788909     0.705631724019    -1.015853018732
    H            0.211508386944     1.063600561704     0.665682733119
    C           -2.240311025755     0.233971514712    -0.338282658620
    H           -0.905566306554    -1.399522221625    -0.735352745637
    H           -1.105519180377    -1.047360602710     0.956285057649
    C           -3.516764630817    -0.604901246166    -0.369005886154
    H           -2.104070543418     0.709293495138    -1.306187824233
    H           -2.342577347328     1.031155462613     0.392987908480
    C           -4.785345477785     0.242869189955    -0.403479080226
    H           -3.503025347122    -1.241424599333    -1.249230680775
    H           -3.545984146906    -1.261384288328     0.495727267380
    H           -4.790827750710     0.902883333181    -1.264783026799
    H           -5.672282282068    -0.378126561875    -0.458007695411
    H           -4.867574224228     0.860748140246     0.484418400297
    H            4.207116737128    -1.386700403860    -0.114769034729
    H            4.937362751496     0.078045584482     0.555924984802
    H            4.001993006199    -1.019158360133     1.580404993776

  Mulliken Charges: (a.u.)
   Center  Symbol    Alpha    Beta     Spin     Total
       1     O     4.17076  4.17076  0.00000 -0.34153
       2     C     2.86222  2.86222  0.00000  0.27555
       3     C     3.11388  3.11388  0.00000 -0.22775
       4     C     3.15127  3.15127  0.00000 -0.30254
       5     C     3.08316  3.08316  0.00000 -0.16633
       6     H     0.44559  0.44559  0.00000  0.10882
       7     H     0.44562  0.44562  0.00000  0.10876
       8     C     3.09035  3.09035  0.00000 -0.18070
       9     H     0.44608  0.44608  0.00000  0.10785
      10     H     0.44605  0.44605  0.00000  0.10790
      11     C     3.08659  3.08659  0.00000 -0.17317
      12     H     0.45600  0.45600  0.00000  0.08800
      13     H     0.45605  0.45605  0.00000  0.08790
      14     C     3.08456  3.08456  0.00000 -0.16912
      15     H     0.45320  0.45320  0.00000  0.09360
      16     H     0.45393  0.45393  0.00000  0.09214
      17     C     3.14999  3.14999  0.00000 -0.29998
      18     H     0.45424  0.45424  0.00000  0.09153
      19     H     0.45560  0.45560  0.00000  0.08880
      20     H     0.45461  0.45461  0.00000  0.09078
      21     H     0.44896  0.44896  0.00000  0.10208
      22     H     0.45514  0.45514  0.00000  0.08972
      23     H     0.45041  0.45041  0.00000  0.09918
      24     H     0.43536  0.43536  0.00000  0.12928
      25     H     0.45039  0.45039  0.00000  0.09921

   Total alpha = 36.00000, Total beta = 36.00000, Total charge = -0.00000

*** Psi4 exiting successfully. Buy a developer a beer!
