  ==> Input File <==

--------------------------------------------------------------------------
set {
	reference rhf
	basis 6-31G*
}

set_num_threads( 4 )
memory 2 gb

molecule MOL {
0 1

O	 -2.439739	 -0.935931	 -0.423848
C	 -1.921153	 0.064240	 -0.045697
C	 -2.624470	 1.379923	 0.150949
O	 -0.632575	 0.154573	 0.251549
H	 -2.168117	 2.136577	 -0.476876
H	 -3.669540	 1.273223	 -0.098610
H	 -2.519365	 1.700893	 1.180846
C	 0.160891	 -1.019931	 0.106212
C	 1.589627	 -0.672828	 0.480843
H	 0.089836	 -1.367806	 -0.916050
H	 -0.238459	 -1.792301	 0.749618
C	 2.246377	 0.346236	 -0.452210
H	 2.163194	 -1.597435	 0.473358
H	 1.604769	 -0.303424	 1.502885
C	 3.719084	 0.035528	 -0.716016
H	 1.706407	 0.367393	 -1.396713
H	 2.155408	 1.338000	 -0.021528
H	 4.161892	 0.772190	 -1.378801
H	 3.839219	 -0.940107	 -1.178597
H	 4.291152	 0.035718	 0.207465

	symmetry c1
}
set optking {
	frozen_dihedral = ("
		16 12 9 8
	")
}

ee = optimize('scf')
oeprop('DIPOLE', 'QUADRUPOLE', 'MULLIKEN_CHARGES')
f=open( 'psi4out.xyz', 'w' )
f.write( "20  " )
f.write( str(ee) + "\n" )
f.write( MOL.save_string_xyz() )
f.close()
--------------------------------------------------------------------------

    Molecular point group: c1
  Charge       = 0
  Multiplicity = 1
  Basis Set: 6-31G*
  Basis Set:
  @DF-RHF Final Energy:  -383.94191431193303
    Total Energy =                       -383.9419143119329192
    Molecular point group: c1
  Basis Set: 6-31G*
  Basis Set:
  Basis Set: 6-31G*
  Basis Set:
  @DF-RHF Final Energy:  -383.94212229707301
    Total Energy =                       -383.9421222970728422
  Basis Set: 6-31G*
  Basis Set:
  Basis Set: 6-31G*
  Basis Set:
  @DF-RHF Final Energy:  -383.94100567302456
    Total Energy =                       -383.9410056730248471
  Basis Set: 6-31G*
  Basis Set:
  Basis Set: 6-31G*
  Basis Set:
  @DF-RHF Final Energy:  -383.94226814280307
    Total Energy =                       -383.9422681428030728
  Basis Set: 6-31G*
  Basis Set:
  Basis Set: 6-31G*
  Basis Set:
  @DF-RHF Final Energy:  -383.94227732885111
    Total Energy =                       -383.9422773288511053
  Basis Set: 6-31G*
  Basis Set:
  Basis Set: 6-31G*
  Basis Set:
  @DF-RHF Final Energy:  -383.94228121945559
    Total Energy =                       -383.9422812194555945
  Basis Set: 6-31G*
  Basis Set:
  Charge       = 0
  Multiplicity = 1
  Basis Set: 6-31G*
  Basis Set:

    Orbital Energies (a.u.)
    -----------------------

    Doubly Occupied:

       1A    -20.601369     2A    -20.543850     3A    -11.374217
       4A    -11.282376     5A    -11.233159     6A    -11.225397
       7A    -11.221089     8A    -11.214108     9A     -1.467619
      10A     -1.361842    11A     -1.084849    12A     -1.027791
      13A     -0.981699    14A     -0.880313    15A     -0.813165
      16A     -0.773011    17A     -0.688984    18A     -0.686316
      19A     -0.666468    20A     -0.628461    21A     -0.598504
      22A     -0.592437    23A     -0.572238    24A     -0.553920
      25A     -0.546175    26A     -0.529932    27A     -0.509855
      28A     -0.485974    29A     -0.474034    30A     -0.469358
      31A     -0.449125    32A     -0.438249

  @DF-RHF Final Energy:  -383.94228198822793

   => Energetics <=

    Nuclear Repulsion Energy =            385.1473929254667610
    One-Electron Energy =               -1286.2275830264698016
    Two-Electron Energy =                 517.1379081127752215
    DFT Exchange-Correlation Energy =       0.0000000000000000
    Empirical Dispersion Energy =           0.0000000000000000
    PCM Polarization Energy =               0.0000000000000000
    EFP Energy =                            0.0000000000000000
    Total Energy =                       -383.9422819882278191
    Molecular point group: c1
  Basis Set: 6-31G*
  Basis Set:

  -Total Gradient:
     Atom            X                  Y                   Z
    ------   -----------------  -----------------  -----------------
       1        0.000012618047     0.000004703835    -0.000006117002
       2       -0.000006521353    -0.000003125254     0.000002353229
       3       -0.000005100282    -0.000000244792     0.000006477673
       4        0.000003825257     0.000000627638    -0.000028409015
       5       -0.000002294021     0.000000994456    -0.000002429639
       6       -0.000001085601     0.000003622360    -0.000000562209
       7        0.000002486774     0.000000996219    -0.000002930584
       8        0.000911887165    -0.002126010348    -0.001649951141
       9       -0.001832961986     0.003635254745     0.002686429697
      10       -0.000002260117     0.000005821324    -0.000005133598
      11        0.000008118205     0.000000150110    -0.000004816779
      12        0.003237255331    -0.004292252379    -0.002474540733
      13        0.000020269488    -0.000005049706    -0.000004773504
      14       -0.000007331335     0.000013869749    -0.000012478874
      15       -0.000008833874    -0.000013923928    -0.000002902823
      16       -0.002323906604     0.002760482826     0.001477003735
      17        0.000000902435     0.000014056391     0.000021118406
      18       -0.000005901796    -0.000002897496    -0.000000098222
      19        0.000003718675     0.000000499725     0.000003264058
      20       -0.000004884403     0.000002424525    -0.000001502673

  **** Optimization is complete! (in 7 steps) ****
    Final optimized geometry and variables:
    Molecular point group: c1

    Geometry (in Angstrom), charge = 0, multiplicity = 1:

    O           -2.450247043070    -0.851270713356    -0.319594735403
    C           -1.917191021608     0.149251533011     0.037298610193
    C           -2.602395459536     1.477915726755     0.209556576194
    O           -0.628254034407     0.226274033301     0.335792167625
    H           -2.134346304510     2.216794764496    -0.430638013772
    H           -3.648500029789     1.381392973869    -0.039880337249
    H           -2.494229216099     1.815370200592     1.233885994958
    C            0.149015159710    -0.962189291361     0.214162874883
    C            1.583985914446    -0.621574829094     0.564689470743
    H            0.068791885327    -1.332113553834    -0.799326528415
    H           -0.254855750918    -1.714220969374     0.878745826404
    C            2.227301155627     0.415260702788    -0.373753420305
    H            2.141588276249    -1.555047736877     0.517749359125
    H            1.635324141903    -0.284774907563     1.595340272256
    C            3.708010649949     0.152506618609    -0.639044439974
    H            1.676038118581     0.456485255043    -1.309649500399
    H            2.111573266120     1.403979703336     0.060265655884
    H            4.137339819580     0.925811164544    -1.268139935876
    H            3.854823868620    -0.801338910785    -1.137808656120
    H            4.273152237857     0.129710905785     0.288677609944

  Mulliken Charges: (a.u.)
   Center  Symbol    Alpha    Beta     Spin     Total
       1     O     4.28348  4.28348  0.00000 -0.56696
       2     C     2.61953  2.61953  0.00000  0.76093
       3     C     3.28158  3.28158  0.00000 -0.56315
       4     O     4.30840  4.30840  0.00000 -0.61681
       5     H     0.40067  0.40067  0.00000  0.19867
       6     H     0.39698  0.39698  0.00000  0.20604
       7     H     0.40062  0.40062  0.00000  0.19876
       8     C     3.00469  3.00469  0.00000 -0.00937
       9     C     3.16645  3.16645  0.00000 -0.33290
      10     H     0.41024  0.41024  0.00000  0.17952
      11     H     0.40892  0.40892  0.00000  0.18217
      12     C     3.15353  3.15353  0.00000 -0.30706
      13     H     0.41732  0.41732  0.00000  0.16536
      14     H     0.41224  0.41224  0.00000  0.17553
      15     C     3.24131  3.24131  0.00000 -0.48263
      16     H     0.41870  0.41870  0.00000  0.16259
      17     H     0.41526  0.41526  0.00000  0.16947
      18     H     0.41810  0.41810  0.00000  0.16380
      19     H     0.42131  0.42131  0.00000  0.15737
      20     H     0.42067  0.42067  0.00000  0.15867

   Total alpha = 32.00000, Total beta = 32.00000, Total charge = -0.00000
