  ==> Input File <==

--------------------------------------------------------------------------
set {
	reference rhf
	basis 6-31G*
}

set_num_threads( 1 )
memory 2 gb

molecule MOL {
0 1

H	 -3.105453	 1.869233	 0.254785
O	 -2.579325	 1.936107	 1.040004
C	 -1.227261	 1.894070	 0.687697
C	 -0.793441	 0.596080	 0.058728
H	 -0.670903	 2.058828	 1.603407
H	 -0.975866	 2.716574	 0.018883
C	 -1.530462	 -0.493172	 -0.025500
H	 0.208996	 0.596615	 -0.340774
H	 -1.092586	 -1.461565	 -0.186463
H	 -2.602122	 -0.450675	 0.050101

	symmetry c1
}
set optking {
	frozen_dihedral = ("
		5 3 2 1,
		5 3 4 7
	")
}

ee = energy('scf')
oeprop('DIPOLE', 'QUADRUPOLE', 'MULLIKEN_CHARGES')
f=open( 'psi4out.xyz', 'w' )
f.write( "10  " )
f.write( str(ee) + "\n" )
f.write( MOL.save_string_xyz() )
f.close()
--------------------------------------------------------------------------

    Molecular point group: c1

    Geometry (in Angstrom), charge = 0, multiplicity = 1:

       Center              X                  Y                   Z               Mass
    ------------   -----------------  -----------------  -----------------  -----------------
           H         -1.517419129148     0.830287886351    -0.205172116093     1.007825032070
           O         -0.991291129148     0.897161886351     0.580046883907    15.994914619560
           C          0.360772870852     0.855124886351     0.227739883907    12.000000000000
           C          0.794592870852    -0.442865113649    -0.401229116093    12.000000000000
           H          0.917130870852     1.019882886351     1.143449883907     1.007825032070
           H          0.612167870852     1.677628886351    -0.441074116093     1.007825032070
           C          0.057571870852    -1.532117113649    -0.485457116093    12.000000000000
           H          1.797029870852    -0.442330113649    -0.800731116093     1.007825032070
           H          0.495447870852    -2.500510113649    -0.646420116093     1.007825032070
           H         -1.014088129148    -1.489620113649    -0.409856116093     1.007825032070

  Charge       = 0
  Multiplicity = 1
  Basis Set: 6-31G*
  Basis Set:

    Orbital Energies (a.u.)
    -----------------------

    Doubly Occupied:

       1A    -20.560489     2A    -11.278785     3A    -11.231105
       4A    -11.220321     5A     -1.369205     6A     -1.058158
       7A     -0.928841     8A     -0.768740     9A     -0.688861
      10A     -0.660349    11A     -0.614776    12A     -0.570308
      13A     -0.545421    14A     -0.490743    15A     -0.450254
      16A     -0.355251

  @DF-RHF Final Energy:  -191.90686800057128

   => Energetics <=

    Nuclear Repulsion Energy =            119.3765306922815910
    One-Electron Energy =                -496.9836085660498384
    Two-Electron Energy =                 185.7002098731969681
    DFT Exchange-Correlation Energy =       0.0000000000000000
    Empirical Dispersion Energy =           0.0000000000000000
    PCM Polarization Energy =               0.0000000000000000
    EFP Energy =                            0.0000000000000000
    Total Energy =                       -191.9068680005713077

  Mulliken Charges: (a.u.)
   Center  Symbol    Alpha    Beta     Spin     Total
       1     H     0.28065  0.28065  0.00000  0.43869
       2     O     4.36632  4.36632  0.00000 -0.73264
       3     C     2.99913  2.99913  0.00000  0.00174
       4     C     3.09548  3.09548  0.00000 -0.19097
       5     H     0.40628  0.40628  0.00000  0.18744
       6     H     0.42790  0.42790  0.00000  0.14421
       7     C     3.19191  3.19191  0.00000 -0.38381
       8     H     0.40997  0.40997  0.00000  0.18007
       9     H     0.40937  0.40937  0.00000  0.18125
      10     H     0.41299  0.41299  0.00000  0.17403

   Total alpha = 16.00000, Total beta = 16.00000, Total charge = -0.00000
