                              Psi4 1.0.54 Driver

  ==> Input File <==

--------------------------------------------------------------------------
set {
	reference rhf
	basis cc-pvtz
}

set_num_threads( 4 )
memory 2 gb

molecule MOL {
0 1

O	 -1.278239	 1.034789	 -0.784693
C	 -1.204115	 0.062668	 -0.112312
C	 -2.386398	 -0.667698	 0.460323
O	 -0.068058	 -0.518372	 0.226882
H	 -2.382952	 -1.693172	 0.114333
H	 -3.296656	 -0.175702	 0.158400
H	 -2.312537	 -0.685191	 1.540100
C	 1.169086	 0.037484	 -0.230612
C	 2.073653	 0.115116	 0.982996
C	 0.920229	 1.390173	 -0.873193
H	 1.586186	 -0.638731	 -0.961262
H	 2.221021	 -0.866954	 1.413775
H	 3.040545	 0.513657	 0.700161
H	 1.645221	 0.760245	 1.740750
H	 1.857530	 1.818007	 -1.209237
H	 0.266717	 1.294372	 -1.728992
H	 0.469525	 2.071947	 -0.160919

	symmetry c1
}
set optking {
	frozen_dihedral = ("
		11 8 4 2
	")
}

ee,wfn = optimize('scf', return_wfn=True)
oeprop( wfn, 'DIPOLE', 'QUADRUPOLE', 'MULLIKEN_CHARGES')
f=open( 'psi4out.xyz', 'w' )
f.write( "17  " )
f.write( str(ee) + "\n" )
f.write( MOL.save_string_xyz() )
f.close()
--------------------------------------------------------------------------

    Molecular point group: c1
  Charge       = 0
  Multiplicity = 1
  Basis Set: CC-PVTZ
  Basis Set:
  @DF-RHF Final Energy:  -344.99908690886832
    Total Energy =                       -344.9990869088679801
    Molecular point group: c1
  Basis Set: CC-PVTZ
  Basis Set:
  Basis Set: CC-PVTZ
  Basis Set:
  @DF-RHF Final Energy:  -345.02412945933077
    Total Energy =                       -345.0241294593307657
  Basis Set: CC-PVTZ
  Basis Set:
  Basis Set: CC-PVTZ
  Basis Set:
  @DF-RHF Final Energy:  -345.02920806274591
    Total Energy =                       -345.0292080627465339
  Basis Set: CC-PVTZ
  Basis Set:
  Basis Set: CC-PVTZ
  Basis Set:
  @DF-RHF Final Energy:  -345.02392171073433
    Total Energy =                       -345.0239217107344984
  Basis Set: CC-PVTZ
  Basis Set:
  @DF-RHF Final Energy:  -345.03143198363085
    Total Energy =                       -345.0314319836307391
  Basis Set: CC-PVTZ
  Basis Set:
  @DF-RHF Final Energy:  -345.03184191376153
    Total Energy =                       -345.0318419137616388
  Basis Set: CC-PVTZ
  Basis Set:
  Basis Set: CC-PVTZ
  Basis Set:
  @DF-RHF Final Energy:  -345.03187261904765
    Total Energy =                       -345.0318726190475900
  Basis Set: CC-PVTZ
  Basis Set:
  Basis Set: CC-PVTZ
  Basis Set:
  @DF-RHF Final Energy:  -345.03187603879508
    Total Energy =                       -345.0318760387947350
  Basis Set: CC-PVTZ
  Basis Set:
  Charge       = 0
  Multiplicity = 1
  Basis Set: CC-PVTZ
  Basis Set:

    Orbital Energies (a.u.)
    -----------------------

    Doubly Occupied:

       1A    -20.588255     2A    -20.527288     3A    -11.367141
       4A    -11.295870     5A    -11.227639     6A    -11.218067
       7A    -11.210891     8A     -1.461199     9A     -1.363890
      10A     -1.081395    11A     -1.002651    12A     -0.946491
      13A     -0.864492    14A     -0.744101    15A     -0.689432
      16A     -0.681746    17A     -0.659047    18A     -0.614112
      19A     -0.586625    20A     -0.579912    21A     -0.559317
      22A     -0.547544    23A     -0.540358    24A     -0.516639
      25A     -0.507188    26A     -0.485598    27A     -0.441652
      28A     -0.431022

  @DF-RHF Final Energy:  -345.03187682917547

   => Energetics <=

    Nuclear Repulsion Energy =            323.8657208655313866
    One-Electron Energy =               -1112.3160781802957899
    Two-Electron Energy =                 443.4184804855887592
    DFT Exchange-Correlation Energy =       0.0000000000000000
    Empirical Dispersion Energy =           0.0000000000000000
    PCM Polarization Energy =               0.0000000000000000
    EFP Energy =                            0.0000000000000000
    Total Energy =                       -345.0318768291757010
    Molecular point group: c1
  Basis Set: CC-PVTZ
  Basis Set:

  -Total Gradient:
     Atom            X                  Y                   Z
    ------   -----------------  -----------------  -----------------
       1       -0.000038004567     0.000086313367    -0.000134809979
       2       -0.000015971132     0.001639400620     0.001980504438
       3       -0.000004308909     0.000033954326     0.000052468637
       4        0.000279576099    -0.002821448851    -0.002608727874
       5       -0.000008167832    -0.000066509503    -0.000021423353
       6        0.000023481008     0.000002459758    -0.000021567857
       7        0.000013266808    -0.000018689504     0.000059338187
       8       -0.001744648689     0.001977571281    -0.001174354728
       9       -0.000020445191    -0.000006199612     0.000016378779
      10       -0.000022987044     0.000009838489    -0.000003828421
      11        0.001467248092    -0.000840332753     0.001874332969
      12        0.000012553842    -0.000015041453     0.000025019668
      13       -0.000002163846    -0.000001650744    -0.000006922340
      14        0.000005973470     0.000002241039     0.000003176141
      15        0.000048306143     0.000030262483    -0.000021156917
      16       -0.000010984383    -0.000006194015    -0.000034076380
      17        0.000017276132    -0.000005974926     0.000015649031

  **** Optimization is complete! (in 9 steps) ****
    Final optimized geometry and variables:
    Molecular point group: c1

    Geometry (in Angstrom), charge = 0, multiplicity = 1:

    O           -1.573601300304     0.412118931002    -0.739537389376
    C           -1.133912803839    -0.348665422073     0.052244286619
    C           -1.985655380549    -1.194539618344     0.961723461370
    O            0.144536913585    -0.596127253209     0.263668130694
    H           -1.764917216017    -2.241287229621     0.797226215624
    H           -3.027162349770    -0.998840796280     0.764637680259
    H           -1.752162734867    -0.968303285954     1.994177313431
    C            1.283763268056     0.062562016831    -0.316591018568
    C            2.245306608351     0.280347552905     0.840202924148
    C            1.026176622045     1.349047893785    -1.083175796323
    H            1.717901740557    -0.672933685277    -0.982430257427
    H            2.409198005487    -0.644265136044     1.377731491013
    H            3.198914252727     0.637695735174     0.470762795984
    H            1.848971942220     1.014203197827     1.532557918787
    H            1.991705955816     1.736677875156    -1.389563778114
    H            0.420433240384     1.193763854269    -1.959587137663
    H            0.543030296727     2.092465457537    -0.463630658247

  Mulliken Charges: (a.u.)
   Center  Symbol    Alpha    Beta     Spin     Total
       1     O     4.19817  4.19817  0.00000 -0.39633
       2     C     2.80931  2.80931  0.00000  0.38139
       3     C     3.13544  3.13544  0.00000 -0.27089
       4     O     4.16234  4.16234  0.00000 -0.32467
       5     H     0.44601  0.44601  0.00000  0.10798
       6     H     0.43907  0.43907  0.00000  0.12186
       7     H     0.44736  0.44736  0.00000  0.10528
       8     C     2.93746  2.93746  0.00000  0.12507
       9     C     3.13850  3.13850  0.00000 -0.27699
      10     C     3.15454  3.15454  0.00000 -0.30908
      11     H     0.44753  0.44753  0.00000  0.10493
      12     H     0.44555  0.44555  0.00000  0.10889
      13     H     0.45437  0.45437  0.00000  0.09127
      14     H     0.45362  0.45362  0.00000  0.09276
      15     H     0.45229  0.45229  0.00000  0.09543
      16     H     0.43226  0.43226  0.00000  0.13548
      17     H     0.44618  0.44618  0.00000  0.10764

   Total alpha = 28.00000, Total beta = 28.00000, Total charge = -0.00000

*** Psi4 exiting successfully. Buy a developer a beer!
