  ==> Input File <==

--------------------------------------------------------------------------
set {
	reference rhf
	basis cc-pvtz
}

set_num_threads( 4 )
memory 2 gb

molecule MOL {
0 1

H	 1.808835	 2.458156	 -0.049904
N	 0.977957	 1.912358	 -0.135559
C	 1.263552	 0.494993	 0.021953
H	 0.593757	 2.100334	 -1.037995
C	 -0.016533	 -0.325589	 -0.026925
H	 1.739298	 0.358143	 0.987319
H	 1.960836	 0.116784	 -0.726871
C	 -1.280353	 0.525521	 0.047747
H	 -0.016686	 -0.912532	 -0.939714
H	 -0.014099	 -1.037598	 0.796369
C	 -2.560681	 -0.301323	 -0.007747
H	 -1.279957	 1.241025	 -0.770189
H	 -1.270445	 1.110526	 0.963468
H	 -2.617064	 -0.872870	 -0.928010
H	 -3.439525	 0.331102	 0.043462
H	 -2.609427	 -1.002736	 0.818585

	symmetry c1
}
set optking {
	frozen_dihedral = ("
		6 3 5 9
	")
}

ee = optimize('scf')
oeprop('DIPOLE', 'QUADRUPOLE', 'MULLIKEN_CHARGES')
f=open( 'psi4out.xyz', 'w' )
f.write( "16  " )
f.write( str(ee) + "\n" )
f.write( MOL.save_string_xyz() )
f.close()
--------------------------------------------------------------------------

    Molecular point group: c1
  Charge       = 0
  Multiplicity = 1
  Basis Set: CC-PVTZ
  Basis Set:
  @DF-RHF Final Energy:  -212.38849302164328
    Total Energy =                       -212.3884930216432849
    Molecular point group: c1
  Basis Set: CC-PVTZ
  Basis Set:
  Basis Set: CC-PVTZ
  Basis Set:
  @DF-RHF Final Energy:  -212.38944888561025
    Total Energy =                       -212.3894488856103635
  Basis Set: CC-PVTZ
  Basis Set:
  Basis Set: CC-PVTZ
  Basis Set:
  @DF-RHF Final Energy:  -212.39162075636992
    Total Energy =                       -212.3916207563700027
  Basis Set: CC-PVTZ
  Basis Set:
  Basis Set: CC-PVTZ
  Basis Set:
  @DF-RHF Final Energy:  -212.39180911374456
    Total Energy =                       -212.3918091137445572
  Basis Set: CC-PVTZ
  Basis Set:
  Basis Set: CC-PVTZ
  Basis Set:
  @DF-RHF Final Energy:  -212.39182235676083
    Total Energy =                       -212.3918223567608834
  Basis Set: CC-PVTZ
  Basis Set:
  Basis Set: CC-PVTZ
  Basis Set:
  @DF-RHF Final Energy:  -212.39182629944713
    Total Energy =                       -212.3918262994469615
  Basis Set: CC-PVTZ
  Basis Set:
  Basis Set: CC-PVTZ
  Basis Set:
  @DF-RHF Final Energy:  -212.39182779087560
    Total Energy =                       -212.3918277908757659
  Basis Set: CC-PVTZ
  Basis Set:
  Charge       = 0
  Multiplicity = 1
  Basis Set: CC-PVTZ
  Basis Set:

    Orbital Energies (a.u.)
    -----------------------

    Doubly Occupied:

       1A    -15.527401     2A    -11.239354     3A    -11.208385
       4A    -11.205297     5A    -11.201339     6A     -1.178068
       7A     -1.052891     8A     -0.957700     9A     -0.851040
      10A     -0.777498    11A     -0.668803    12A     -0.629293
      13A     -0.608624    14A     -0.577693    15A     -0.558215
      16A     -0.524240    17A     -0.498720    18A     -0.468528
      19A     -0.463890    20A     -0.451448    21A     -0.380799

  @DF-RHF Final Energy:  -212.39182781100897

   => Energetics <=

    Nuclear Repulsion Energy =            189.1740201122460121
    One-Electron Energy =                -661.0732416101095623
    Two-Electron Energy =                 259.5073936868545843
    DFT Exchange-Correlation Energy =       0.0000000000000000
    Empirical Dispersion Energy =           0.0000000000000000
    PCM Polarization Energy =               0.0000000000000000
    EFP Energy =                            0.0000000000000000
    Total Energy =                       -212.3918278110089659
    Molecular point group: c1
  Basis Set: CC-PVTZ
  Basis Set:

  -Total Gradient:
     Atom            X                  Y                   Z
    ------   -----------------  -----------------  -----------------
       1        0.000004610703     0.000004492096    -0.000001642011
       2        0.000001972395     0.000006432137     0.000002331898
       3       -0.002607208905     0.003961113885     0.002744788030
       4       -0.000001226008    -0.000000388753    -0.000002207440
       5       -0.002041873237     0.003789919687    -0.003424865842
       6        0.002525649860    -0.003950574722    -0.001762901892
       7        0.000000955193     0.000002114566     0.000001759565
       8       -0.000001511265     0.000000240471    -0.000001258953
       9        0.002122243015    -0.003809330943     0.002452420233
      10       -0.000001673811    -0.000002716771    -0.000002682855
      11       -0.000001010187    -0.000001582995     0.000000616584
      12       -0.000001924218     0.000002848099    -0.000003696109
      13        0.000000593153    -0.000003625335    -0.000002357263
      14       -0.000000605621     0.000001078472    -0.000000344871
      15       -0.000000610433     0.000000136792     0.000001676285
      16        0.000001619363    -0.000000156685    -0.000001635361

  **** Optimization is complete! (in 8 steps) ****
    Final optimized geometry and variables:
    Molecular point group: c1

    Geometry (in Angstrom), charge = 0, multiplicity = 1:

    H            2.275855747905     1.935049554600     0.039743498807
    N            1.413896331039     1.464507127246    -0.136819576061
    C            1.567699939143     0.032801371896     0.070411614284
    H            1.160228100391     1.667318106256    -1.080965327766
    C            0.249203155527    -0.766074621199    -0.027791422553
    H            2.006759070388    -0.122732850678     1.048388363277
    H            2.278767440512    -0.407320228680    -0.628576561178
    C           -1.045582840540     0.033495601737     0.084815607032
    H            0.248060774648    -1.353787734046    -0.941472969135
    H            0.256723557115    -1.507821851333     0.766394773909
    C           -2.277978810267    -0.865398219907     0.061915172830
    H           -1.113595625140     0.752250899468    -0.724073590587
    H           -1.032771217789     0.615654197906     0.998783533774
    H           -2.329380198236    -1.440657012476    -0.857076097007
    H           -3.188509475552    -0.281791058078     0.136670113689
    H           -2.267783728056    -1.568256105503     0.888633795733

  Mulliken Charges: (a.u.)
   Center  Symbol    Alpha    Beta     Spin     Total
       1     H     0.42908  0.42908  0.00000  0.14183
       2     N     3.68445  3.68445  0.00000 -0.36890
       3     C     3.03513  3.03513  0.00000 -0.07026
       4     H     0.43225  0.43225  0.00000  0.13550
       5     C     3.10053  3.10053  0.00000 -0.20105
       6     H     0.45574  0.45574  0.00000  0.08852
       7     H     0.46218  0.46218  0.00000  0.07565
       8     C     3.07329  3.07329  0.00000 -0.14658
       9     H     0.45286  0.45286  0.00000  0.09428
      10     H     0.45457  0.45457  0.00000  0.09085
      11     C     3.15167  3.15167  0.00000 -0.30333
      12     H     0.45820  0.45820  0.00000  0.08361
      13     H     0.44803  0.44803  0.00000  0.10394
      14     H     0.45721  0.45721  0.00000  0.08559
      15     H     0.44871  0.44871  0.00000  0.10259
      16     H     0.45611  0.45611  0.00000  0.08777

   Total alpha = 21.00000, Total beta = 21.00000, Total charge = -0.00000
