  ==> Input File <==

--------------------------------------------------------------------------
set {
	reference rhf
	basis 6-31G*
}

set_num_threads( 4 )
memory 2 gb

molecule MOL {
0 1

H	 2.411010	 -2.043528	 -1.070087
O	 2.743101	 -1.195364	 -0.809256
C	 1.743999	 -0.378473	 -0.419820
C	 2.091550	 0.904641	 -0.009004
C	 0.419709	 -0.771395	 -0.417994
H	 3.127664	 1.186094	 -0.019483
C	 1.114078	 1.787470	 0.401148
H	 0.123569	 -1.753683	 -0.729342
C	 -0.536158	 0.140425	 0.000000
H	 1.391284	 2.776125	 0.716701
C	 -0.223857	 1.416451	 0.412039
N	 -1.935604	 -0.280333	 0.000000
H	 -0.993372	 2.090062	 0.727474
O	 -2.161694	 -1.452901	 0.000000
O	 -2.770341	 0.571417	 0.000000

	symmetry c1
}
set optking {
	frozen_dihedral = ("
		11 9 12 14
	")
}

ee = optimize('scf')
oeprop('DIPOLE', 'QUADRUPOLE', 'MULLIKEN_CHARGES')
f=open( 'psi4out.xyz', 'w' )
f.write( "15  " )
f.write( str(ee) + "\n" )
f.write( MOL.save_string_xyz() )
f.close()
--------------------------------------------------------------------------

    Molecular point group: c1
  Charge       = 0
  Multiplicity = 1
  Basis Set: 6-31G*
  Basis Set:
  @DF-RHF Final Energy:  -509.02703331612230
    Total Energy =                       -509.0270333161220151
    Molecular point group: c1
  Basis Set: 6-31G*
  Basis Set:
  Basis Set: 6-31G*
  Basis Set:
  @DF-RHF Final Energy:  -509.02237275382424
    Total Energy =                       -509.0223727538239018
  Basis Set: 6-31G*
  Basis Set:
  Basis Set: 6-31G*
  Basis Set:
  @DF-RHF Final Energy:  -509.02702052429515
    Total Energy =                       -509.0270205242953807
  Basis Set: 6-31G*
  Basis Set:
  Basis Set: 6-31G*
  Basis Set:
  @DF-RHF Final Energy:  -509.02711324425798
    Total Energy =                       -509.0271132442580893
  Basis Set: 6-31G*
  Basis Set:
  Basis Set: 6-31G*
  Basis Set:
  @DF-RHF Final Energy:  -509.02711355204065
    Total Energy =                       -509.0271135520406460
  Basis Set: 6-31G*
  Basis Set:
  Charge       = 0
  Multiplicity = 1
  Basis Set: 6-31G*
  Basis Set:

    Orbital Energies (a.u.)
    -----------------------

    Doubly Occupied:

       1A    -20.616099     2A    -20.605733     3A    -20.605221
       4A    -15.859297     5A    -11.331005     6A    -11.311666
       7A    -11.267628     8A    -11.267144     9A    -11.263904
      10A    -11.260275    11A     -1.638436    12A     -1.436841
      13A     -1.421914    14A     -1.200978    15A     -1.095345
      16A     -1.046897    17A     -0.966252    18A     -0.879524
      19A     -0.828755    20A     -0.790722    21A     -0.754173
      22A     -0.736210    23A     -0.722852    24A     -0.708693
      25A     -0.672692    26A     -0.635304    27A     -0.616227
      28A     -0.594537    29A     -0.559495    30A     -0.545691
      31A     -0.517758    32A     -0.491907    33A     -0.490073
      34A     -0.454504    35A     -0.376956    36A     -0.343104

  @DF-RHF Final Energy:  -509.02711387348683

   => Energetics <=

    Nuclear Repulsion Energy =            503.4760039144555890
    One-Electron Energy =               -1693.1786126293868620
    Two-Electron Energy =                 680.6754948414443334
    DFT Exchange-Correlation Energy =       0.0000000000000000
    Empirical Dispersion Energy =           0.0000000000000000
    PCM Polarization Energy =               0.0000000000000000
    EFP Energy =                            0.0000000000000000
    Total Energy =                       -509.0271138734869965
    Molecular point group: c1
  Basis Set: 6-31G*
  Basis Set:

  -Total Gradient:
     Atom            X                  Y                   Z
    ------   -----------------  -----------------  -----------------
       1       -0.000001154063     0.000004440072    -0.000013288153
       2        0.000003587720    -0.000010074116     0.000019059230
       3        0.000000495702     0.000010038227    -0.000001893571
       4        0.000001603631    -0.000003719988    -0.000011207670
       5       -0.000007507108     0.000003917323    -0.000002701944
       6       -0.000000578154    -0.000000057338     0.000001273481
       7       -0.000005144218     0.000002795313    -0.000000013197
       8        0.000000534525    -0.000001680855     0.000003037616
       9       -0.000278903535     0.000849480129    -0.001661285527
      10        0.000000457608    -0.000000172701     0.000000545072
      11        0.000206291068    -0.000589494895     0.001682478310
      12        0.000054992637    -0.000242302003    -0.002054423603
      13        0.000004118962    -0.000001780260    -0.000001635170
      14        0.000029706935    -0.000017080852     0.002039595697
      15       -0.000008501711    -0.000004308053     0.000000459431

  **** Optimization is complete! (in 6 steps) ****
    Final optimized geometry and variables:
    Molecular point group: c1

    Geometry (in Angstrom), charge = 0, multiplicity = 1:

    H            2.416494786524    -2.062808130751    -0.966297702549
    O            2.746866633960    -1.211518645987    -0.713702536177
    C            1.747586894485    -0.395336768869    -0.324000665750
    C            2.095051968268     0.886469537149     0.091392184724
    C            0.423180508355    -0.788397184008    -0.322360753593
    H            3.131738910039     1.166135618306     0.086491326009
    C            1.117664350325     1.769251963557     0.501658913445
    H            0.127399191432    -1.774848714431    -0.622149851402
    C           -0.532529221743     0.128270348202     0.082999391420
    H            1.395924150584     2.754621132040     0.826458029798
    C           -0.221652825499     1.402128663815     0.500796977298
    N           -1.928995492854    -0.296822742416     0.097716866177
    H           -0.992979112658     2.077395514744     0.809366779617
    O           -2.149147602471    -1.470517840328     0.091800519599
    O           -2.765026408030     0.553259305222     0.129927825172

  Mulliken Charges: (a.u.)
   Center  Symbol    Alpha    Beta     Spin     Total
       1     H     0.26729  0.26729  0.00000  0.46542
       2     O     4.37551  4.37551  0.00000 -0.75103
       3     C     2.79239  2.79239  0.00000  0.41523
       4     C     3.10912  3.10912  0.00000 -0.21824
       5     C     3.13623  3.13623  0.00000 -0.27245
       6     H     0.38099  0.38099  0.00000  0.23801
       7     C     3.10041  3.10041  0.00000 -0.20081
       8     H     0.36983  0.36983  0.00000  0.26034
       9     C     2.90886  2.90886  0.00000  0.18229
      10     H     0.38655  0.38655  0.00000  0.22690
      11     C     3.09819  3.09819  0.00000 -0.19637
      12     N     3.24569  3.24569  0.00000  0.50863
      13     H     0.36679  0.36679  0.00000  0.26641
      14     O     4.23293  4.23293  0.00000 -0.46586
      15     O     4.22923  4.22923  0.00000 -0.45846

   Total alpha = 36.00000, Total beta = 36.00000, Total charge =  0.00000
