  ==> Input File <==

--------------------------------------------------------------------------
set {
	reference rhf
	basis 6-31G*
}

set_num_threads( 4 )
memory 2 gb

molecule MOL {
0 1

H	 -1.198626	 0.364101	 -1.009463
C	 -0.790252	 0.431209	 0.000000
N	 0.538815	 0.649616	 0.000000
O	 -1.479848	 0.317887	 0.969961
C	 1.521968	 -0.411503	 0.000000
H	 0.852804	 1.592852	 0.000000
H	 2.150599	 -0.357004	 -0.881901
H	 0.999455	 -1.354525	 0.000000
H	 2.150599	 -0.357004	 0.881901

	symmetry c1
}
set optking {
	frozen_dihedral = ("
		1 2 3 6
	")
}

ee = optimize('scf')
oeprop('DIPOLE', 'QUADRUPOLE', 'MULLIKEN_CHARGES')
f=open( 'psi4out.xyz', 'w' )
f.write( "9  " )
f.write( str(ee) + "\n" )
f.write( MOL.save_string_xyz() )
f.close()
--------------------------------------------------------------------------

    Molecular point group: c1
  Charge       = 0
  Multiplicity = 1
  Basis Set: 6-31G*
  Basis Set:
  @DF-RHF Final Energy:  -207.91653815654936
    Total Energy =                       -207.9165381565493931
    Molecular point group: c1
  Basis Set: 6-31G*
  Basis Set:
  Basis Set: 6-31G*
  Basis Set:
  @DF-RHF Final Energy:  -207.92041837828492
    Total Energy =                       -207.9204183782849782
  Basis Set: 6-31G*
  Basis Set:
  Basis Set: 6-31G*
  Basis Set:
  @DF-RHF Final Energy:  -207.92094708154468
    Total Energy =                       -207.9209470815447389
  Basis Set: 6-31G*
  Basis Set:
  Basis Set: 6-31G*
  Basis Set:
  @DF-RHF Final Energy:  -207.92323283258600
    Total Energy =                       -207.9232328325860237
  Basis Set: 6-31G*
  Basis Set:
  @DF-RHF Final Energy:  -207.91148617582263
    Total Energy =                       -207.9114861758227448
  @DF-RHF Final Energy:  -207.92483030074538
    Total Energy =                       -207.9248303007453842
  @DF-RHF Final Energy:  -207.93203221806203
    Total Energy =                       -207.9320322180619769
  @DF-RHF Final Energy:  -207.93685804203423
    Total Energy =                       -207.9368580420343449
  @DF-RHF Final Energy:  -207.93791604793003
    Total Energy =                       -207.9379160479301447
  @DF-RHF Final Energy:  -207.93670201456209
    Total Energy =                       -207.9367020145620586
  Basis Set: 6-31G*
  Basis Set:
  @DF-RHF Final Energy:  -207.93895332381265
    Total Energy =                       -207.9389533238125694
  Basis Set: 6-31G*
  Basis Set:
  Basis Set: 6-31G*
  Basis Set:
  @DF-RHF Final Energy:  -207.93906231333938
    Total Energy =                       -207.9390623133393206
  Basis Set: 6-31G*
  Basis Set:
  Basis Set: 6-31G*
  Basis Set:
  @DF-RHF Final Energy:  -207.93912095539667
    Total Energy =                       -207.9391209553966178
  Basis Set: 6-31G*
  Basis Set:
  Charge       = 0
  Multiplicity = 1
  Basis Set: 6-31G*
  Basis Set:

    Orbital Energies (a.u.)
    -----------------------

    Doubly Occupied:

       1A    -20.565065     2A    -15.576066     3A    -11.354219
       4A    -11.251937     5A     -1.418495     6A     -1.223234
       7A     -0.946705     8A     -0.811598     9A     -0.719895
      10A     -0.661216    11A     -0.643237    12A     -0.570487
      13A     -0.547905    14A     -0.527751    15A     -0.443228
      16A     -0.411502

  @DF-RHF Final Energy:  -207.93913980568732

   => Energetics <=

    Nuclear Repulsion Energy =            122.3770831242711807
    One-Electron Energy =                -525.2873667278970515
    Two-Electron Energy =                 194.9711437979386801
    DFT Exchange-Correlation Energy =       0.0000000000000000
    Empirical Dispersion Energy =           0.0000000000000000
    PCM Polarization Energy =               0.0000000000000000
    EFP Energy =                            0.0000000000000000
    Total Energy =                       -207.9391398056872049
    Molecular point group: c1
  Basis Set: 6-31G*
  Basis Set:

  -Total Gradient:
     Atom            X                  Y                   Z
    ------   -----------------  -----------------  -----------------
       1       -0.001109320988    -0.011874838554    -0.004308208293
       2        0.002704991510     0.014435853564     0.008176628054
       3       -0.006693638921     0.002234776175    -0.015522503003
       4       -0.000184529111    -0.000061457467     0.000216982821
       5        0.000149486172    -0.000023445767     0.000012103828
       6        0.005145682964    -0.004669725288     0.011444935114
       7       -0.000011440309    -0.000027161964     0.000019381761
       8       -0.000000831679    -0.000003597572     0.000007472437
       9       -0.000000399636    -0.000010403128    -0.000046792723

  **** Optimization is complete! (in 14 steps) ****
    Final optimized geometry and variables:
    Molecular point group: c1

    Geometry (in Angstrom), charge = 0, multiplicity = 1:

    H           -1.607484539440     0.662627076234    -0.828666882987
    C           -0.827304901672     0.341529939627    -0.139567635329
    N            0.466312304571     0.423901394013    -0.689981860397
    O           -1.100265202145    -0.179342765961     0.890517553684
    C            1.399701249476    -0.558590140539    -0.129227003285
    H            0.851554522768     1.332193922638    -0.496755966610
    H            2.350227241971    -0.443425636048    -0.633799636774
    H            1.027567073452    -1.554428131395    -0.326826044420
    H            1.545611155451    -0.456003211131     0.940230081381

  Mulliken Charges: (a.u.)
   Center  Symbol    Alpha    Beta     Spin     Total
       1     H     0.41482  0.41482  0.00000  0.17035
       2     C     2.77747  2.77747  0.00000  0.44507
       3     N     3.86520  3.86520  0.00000 -0.73040
       4     O     4.23856  4.23856  0.00000 -0.47712
       5     C     3.15499  3.15499  0.00000 -0.30997
       6     H     0.31728  0.31728  0.00000  0.36544
       7     H     0.41301  0.41301  0.00000  0.17399
       8     H     0.40671  0.40671  0.00000  0.18657
       9     H     0.41197  0.41197  0.00000  0.17607

   Total alpha = 16.00000, Total beta = 16.00000, Total charge =  0.00000
