  ==> Input File <==

--------------------------------------------------------------------------
set {
	reference rhf
	basis 6-31G*
}

set_num_threads( 1 )
memory 2 gb

molecule MOL {
0 1

H	 3.355663	 1.274596	 0.154344
O	 2.433787	 1.154417	 0.360398
C	 2.077727	 -0.067559	 -0.035091
C	 0.624473	 -0.343591	 0.253101
O	 2.846237	 -0.814155	 -0.547930
C	 -0.265902	 0.883932	 0.072916
H	 0.324016	 -1.163849	 -0.390541
H	 0.565024	 -0.726111	 1.268924
C	 -1.728698	 0.646073	 0.462102
H	 -0.209144	 1.219470	 -0.958188
H	 0.135059	 1.692851	 0.673903
C	 -2.482460	 -0.343073	 -0.431425
H	 -2.245265	 1.602650	 0.432430
H	 -1.779332	 0.308348	 1.496285
C	 -3.960546	 -0.461025	 -0.060175
H	 -2.395034	 -0.026811	 -1.468912
H	 -2.024850	 -1.327147	 -0.371646
H	 -4.472726	 -1.168004	 -0.705284
H	 -4.465146	 0.496508	 -0.151489
H	 -4.081218	 -0.800940	 0.964585

	symmetry c1
}
set optking {
	frozen_dihedral = ("
		16 12 9 6,
		7 4 6 10,
		12 9 6 10,
		1 2 3 5
	")
}

ee = energy('scf')
oeprop('DIPOLE', 'QUADRUPOLE', 'MULLIKEN_CHARGES')
f=open( 'psi4out.xyz', 'w' )
f.write( "20  " )
f.write( str(ee) + "\n" )
f.write( MOL.save_string_xyz() )
f.close()
--------------------------------------------------------------------------

    Molecular point group: c1

    Geometry (in Angstrom), charge = 0, multiplicity = 1:

       Center              X                  Y                   Z               Mass
    ------------   -----------------  -----------------  -----------------  -----------------
           H          3.371165688003     1.183179938233     0.144959577898     1.007825032070
           O          2.449289688003     1.063000938233     0.351013577898    15.994914619560
           C          2.093229688003    -0.158975061767    -0.044475422102    12.000000000000
           C          0.639975688003    -0.435007061767     0.243716577898    12.000000000000
           O          2.861739688003    -0.905571061767    -0.557314422102    15.994914619560
           C         -0.250399311997     0.792515938233     0.063531577898    12.000000000000
           H          0.339518688003    -1.255265061767    -0.399925422102     1.007825032070
           H          0.580526688003    -0.817527061767     1.259539577898     1.007825032070
           C         -1.713195311997     0.554656938233     0.452717577898    12.000000000000
           H         -0.193641311997     1.128053938233    -0.967572422102     1.007825032070
           H          0.150561688003     1.601434938233     0.664518577898     1.007825032070
           C         -2.466957311997    -0.434489061767    -0.440809422102    12.000000000000
           H         -2.229762311997     1.511233938233     0.423045577898     1.007825032070
           H         -1.763829311997     0.216931938233     1.486900577898     1.007825032070
           C         -3.945043311997    -0.552441061767    -0.069559422102    12.000000000000
           H         -2.379531311997    -0.118227061767    -1.478296422102     1.007825032070
           H         -2.009347311997    -1.418563061767    -0.381030422102     1.007825032070
           H         -4.457223311997    -1.259420061767    -0.714668422102     1.007825032070
           H         -4.449643311997     0.405091938233    -0.160873422102     1.007825032070
           H         -4.065715311997    -0.892356061767     0.955200577898     1.007825032070

  Charge       = 0
  Multiplicity = 1
  Basis Set: 6-31G*
  Basis Set:

    Orbital Energies (a.u.)
    -----------------------

    Doubly Occupied:

       1A    -20.613423     2A    -20.549808     3A    -11.380889
       4A    -11.239252     5A    -11.226820     6A    -11.222419
       7A    -11.220974     8A    -11.212974     9A     -1.474827
      10A     -1.364908    11A     -1.098825    12A     -1.042332
      13A     -0.959429    14A     -0.861574    15A     -0.825678
      16A     -0.791038    17A     -0.701128    18A     -0.684593
      19A     -0.650072    20A     -0.637481    21A     -0.607688
      22A     -0.590520    23A     -0.577815    24A     -0.554578
      25A     -0.541917    26A     -0.517484    27A     -0.502311
      28A     -0.482384    29A     -0.475813    30A     -0.468302
      31A     -0.457948    32A     -0.433921

  @DF-RHF Final Energy:  -383.94593386470342

   => Energetics <=

    Nuclear Repulsion Energy =            377.3390295070976208
    One-Electron Energy =               -1270.6317297286432222
    Two-Electron Energy =                 509.3467663568433181
    DFT Exchange-Correlation Energy =       0.0000000000000000
    Empirical Dispersion Energy =           0.0000000000000000
    PCM Polarization Energy =               0.0000000000000000
    EFP Energy =                            0.0000000000000000
    Total Energy =                       -383.9459338647022832

  Mulliken Charges: (a.u.)
   Center  Symbol    Alpha    Beta     Spin     Total
       1     H     0.26752  0.26752  0.00000  0.46495
       2     O     4.34796  4.34796  0.00000 -0.69592
       3     C     2.62304  2.62304  0.00000  0.75393
       4     C     3.21273  3.21273  0.00000 -0.42546
       5     O     4.28093  4.28093  0.00000 -0.56185
       6     C     3.16204  3.16204  0.00000 -0.32407
       7     H     0.39481  0.39481  0.00000  0.21038
       8     H     0.39971  0.39971  0.00000  0.20057
       9     C     3.15498  3.15498  0.00000 -0.30996
      10     H     0.41665  0.41665  0.00000  0.16669
      11     H     0.40141  0.40141  0.00000  0.19718
      12     C     3.15489  3.15489  0.00000 -0.30978
      13     H     0.41837  0.41837  0.00000  0.16326
      14     H     0.42267  0.42267  0.00000  0.15466
      15     C     3.23941  3.23941  0.00000 -0.47881
      16     H     0.42159  0.42159  0.00000  0.15682
      17     H     0.42122  0.42122  0.00000  0.15755
      18     H     0.41783  0.41783  0.00000  0.16434
      19     H     0.42100  0.42100  0.00000  0.15801
      20     H     0.42123  0.42123  0.00000  0.15753

   Total alpha = 32.00000, Total beta = 32.00000, Total charge =  0.00000
