  ==> Input File <==

--------------------------------------------------------------------------
set {
	reference rhf
	basis cc-pvtz
}

set_num_threads( 4 )
memory 2 gb

molecule MOL {
0 1

H	 -1.142000	 -0.804000	 0.325000
N	 -0.744000	 0.000000	 -0.120000
C	 0.702000	 0.000000	 0.017000
H	 -1.142000	 0.804000	 0.325000
H	 1.108000	 -0.874000	 -0.481000
H	 1.108000	 0.874000	 -0.480000
H	 1.064000	 -0.000000	 1.046000

	symmetry c1
}
ee = optimize('scf')
oeprop('DIPOLE', 'QUADRUPOLE', 'MULLIKEN_CHARGES')
f=open( 'psi4out.xyz', 'w' )
f.write( "7  " )
f.write( str(ee) + "\n" )
f.write( MOL.save_string_xyz() )
f.close()
--------------------------------------------------------------------------

    Molecular point group: c1
  Charge       = 0
  Multiplicity = 1
  Basis Set: CC-PVTZ
  Basis Set:
  @DF-RHF Final Energy:   -95.25372666206437
    Total Energy =                        -95.2537266620643663
    Molecular point group: c1
  Basis Set: CC-PVTZ
  Basis Set:
  Basis Set: CC-PVTZ
  Basis Set:
  @DF-RHF Final Energy:   -95.25376191852295
    Total Energy =                        -95.2537619185229971
  Basis Set: CC-PVTZ
  Basis Set:
  Charge       = 0
  Multiplicity = 1
  Basis Set: CC-PVTZ
  Basis Set:

    Orbital Energies (a.u.)
    -----------------------

    Doubly Occupied:

       1A    -15.528608     2A    -11.235516     3A     -1.172263
       4A     -0.897127     5A     -0.665880     6A     -0.603395
       7A     -0.558632     8A     -0.517388     9A     -0.386878

  @DF-RHF Final Energy:   -95.25376321841830

   => Energetics <=

    Nuclear Repulsion Energy =             42.3906747451116885
    One-Electron Energy =                -212.1574970368951654
    Two-Electron Energy =                  74.5130590733651559
    DFT Exchange-Correlation Energy =       0.0000000000000000
    Empirical Dispersion Energy =           0.0000000000000000
    PCM Polarization Energy =               0.0000000000000000
    EFP Energy =                            0.0000000000000000
    Total Energy =                        -95.2537632184183281
    Molecular point group: c1
  Basis Set: CC-PVTZ
  Basis Set:

  -Total Gradient:
     Atom            X                  Y                   Z
    ------   -----------------  -----------------  -----------------
       1        0.000049340593     0.000035080077    -0.000000991778
       2       -0.000091573048     0.000002428478    -0.000054055459
       3        0.000109736786    -0.000009533318     0.000068064030
       4        0.000048267305    -0.000034913268    -0.000001552201
       5       -0.000051503583     0.000048482398     0.000019615019
       6       -0.000051566938    -0.000039993612     0.000013126378
       7       -0.000012701114    -0.000001550755    -0.000044205987

  **** Optimization is complete! (in 3 steps) ****
    Final optimized geometry and variables:
    Molecular point group: c1

    Geometry (in Angstrom), charge = 0, multiplicity = 1:

    H           -1.110440883939    -0.802755581781     0.345213499519
    N           -0.712186482686     0.000026035711    -0.093397299706
    C            0.734066541303    -0.000019539284     0.038423545984
    H           -1.110415663746     0.802684102313     0.345462281116
    H            1.140372254521    -0.872114529028    -0.458226956387
    H            1.140363477259     0.872300725996    -0.457869569813
    H            1.095084712984    -0.000243815875     1.065612962343

  Mulliken Charges: (a.u.)
   Center  Symbol    Alpha    Beta     Spin     Total
       1     H     0.42861  0.42861  0.00000  0.14277
       2     N     3.68686  3.68686  0.00000 -0.37371
       3     C     3.07151  3.07151  0.00000 -0.14303
       4     H     0.42861  0.42861  0.00000  0.14277
       5     H     0.45601  0.45601  0.00000  0.08799
       6     H     0.45601  0.45601  0.00000  0.08798
       7     H     0.47239  0.47239  0.00000  0.05523

   Total alpha =  9.00000, Total beta =  9.00000, Total charge =  0.00000
