  ==> Input File <==

--------------------------------------------------------------------------
set {
	reference rhf
	basis 6-31G*
}

set_num_threads( 4 )
memory 2 gb

molecule MOL {
0 1

H	 2.451652	 -2.178703	 0.543297
O	 2.773837	 -1.297590	 0.410870
C	 1.759943	 -0.431505	 0.213148
C	 2.091892	 0.903503	 0.004572
C	 0.435585	 -0.824197	 0.212221
H	 3.128404	 1.183633	 0.009892
C	 1.098842	 1.838143	 -0.203668
H	 0.151270	 -1.845815	 0.370297
C	 -0.536158	 0.140425	 0.000000
H	 1.364064	 2.866660	 -0.363878
C	 -0.239507	 1.468500	 -0.209198
N	 -1.935604	 -0.280333	 0.000000
H	 -1.021001	 2.181958	 -0.369348
O	 -2.161694	 -1.452901	 0.000000
O	 -2.770341	 0.571417	 0.000000

	symmetry c1
}
set optking {
	frozen_dihedral = ("
		11 9 12 14
	")
}

ee = optimize('scf')
oeprop('DIPOLE', 'QUADRUPOLE', 'MULLIKEN_CHARGES')
f=open( 'psi4out.xyz', 'w' )
f.write( "15  " )
f.write( str(ee) + "\n" )
f.write( MOL.save_string_xyz() )
f.close()
--------------------------------------------------------------------------

    Molecular point group: c1
  Charge       = 0
  Multiplicity = 1
  Basis Set: 6-31G*
  Basis Set:
  @DF-RHF Final Energy:  -509.02760162486055
    Total Energy =                       -509.0276016248606084
    Molecular point group: c1
  Basis Set: 6-31G*
  Basis Set:
  Basis Set: 6-31G*
  Basis Set:
  @DF-RHF Final Energy:  -509.02643400518883
    Total Energy =                       -509.0264340051891168
  Basis Set: 6-31G*
  Basis Set:
  Basis Set: 6-31G*
  Basis Set:
  @DF-RHF Final Energy:  -509.02760725449747
    Total Energy =                       -509.0276072544976387
  Basis Set: 6-31G*
  Basis Set:
  Basis Set: 6-31G*
  Basis Set:
  @DF-RHF Final Energy:  -509.02761704790203
    Total Energy =                       -509.0276170479022539
  Basis Set: 6-31G*
  Basis Set:
  Charge       = 0
  Multiplicity = 1
  Basis Set: 6-31G*
  Basis Set:

    Orbital Energies (a.u.)
    -----------------------

    Doubly Occupied:

       1A    -20.615861     2A    -20.605328     3A    -20.604789
       4A    -15.859480     5A    -11.330681     6A    -11.311292
       7A    -11.267359     8A    -11.266911     9A    -11.263740
      10A    -11.260656    11A     -1.638357    12A     -1.436575
      13A     -1.421718    14A     -1.200663    15A     -1.095130
      16A     -1.046588    17A     -0.966233    18A     -0.878908
      19A     -0.828668    20A     -0.791062    21A     -0.752629
      22A     -0.736940    23A     -0.723735    24A     -0.708069
      25A     -0.673095    26A     -0.635226    27A     -0.615967
      28A     -0.594652    29A     -0.558868    30A     -0.545252
      31A     -0.515941    32A     -0.492178    33A     -0.490167
      34A     -0.454875    35A     -0.377330    36A     -0.342980

  @DF-RHF Final Energy:  -509.02761710737269

   => Energetics <=

    Nuclear Repulsion Energy =            503.4936133887539995
    One-Electron Energy =               -1693.2266478629819630
    Two-Electron Energy =                 680.7054173668557269
    DFT Exchange-Correlation Energy =       0.0000000000000000
    Empirical Dispersion Energy =           0.0000000000000000
    PCM Polarization Energy =               0.0000000000000000
    EFP Energy =                            0.0000000000000000
    Total Energy =                       -509.0276171073721798
    Molecular point group: c1
  Basis Set: 6-31G*
  Basis Set:

  -Total Gradient:
     Atom            X                  Y                   Z
    ------   -----------------  -----------------  -----------------
       1        0.000000762841     0.000000479164     0.000009564470
       2        0.000000704028    -0.000006758523    -0.000021461995
       3       -0.000002159432     0.000005497983     0.000017782312
       4        0.000000529183     0.000001079616     0.000015094392
       5       -0.000012414873     0.000002638836    -0.000000351233
       6       -0.000001278602    -0.000000976766    -0.000002694816
       7       -0.000001986528    -0.000001024960    -0.000015175683
       8       -0.000003331306    -0.000004670341     0.000000417029
       9       -0.000064601858     0.000172426025     0.000764303427
      10       -0.000000616817     0.000000455279     0.000002230250
      11        0.000043533956    -0.000119835749    -0.000764719265
      12       -0.000023049187    -0.000058442122     0.000884013346
      13        0.000004360126    -0.000002479184     0.000000294515
      14        0.000055237191    -0.000015838988    -0.000892322468
      15        0.000004311270     0.000027449733     0.000003025719

  **** Optimization is complete! (in 5 steps) ****
    Final optimized geometry and variables:
    Molecular point group: c1

    Geometry (in Angstrom), charge = 0, multiplicity = 1:

    H            2.452882650820    -2.183545328983     0.490653209924
    O            2.774574105694    -1.301587060148     0.362905256880
    C            1.760678099265    -0.435751354357     0.164469511318
    C            2.092629017655     0.898906033155    -0.046423581436
    C            0.436338840048    -0.828533254991     0.163225682461
    H            3.129325482321     1.178629944021    -0.043716812155
    C            1.099693914162     1.833518016981    -0.255071347711
    H            0.152033246181    -1.851184253072     0.315427706448
    C           -0.535207817840     0.137238321277    -0.043074738987
    H            1.365245157600     2.861192195783    -0.420090497641
    C           -0.239064689929     1.464889456165    -0.254709927530
    N           -1.933792576354    -0.284490283080    -0.049789666595
    H           -1.021011407572     2.178703982107    -0.411417421227
    O           -2.158202318990    -1.457373426904    -0.047455312959
    O           -2.768793854267     0.566991740556    -0.063750815067

  Mulliken Charges: (a.u.)
   Center  Symbol    Alpha    Beta     Spin     Total
       1     H     0.26727  0.26727  0.00000  0.46547
       2     O     4.37571  4.37571  0.00000 -0.75141
       3     C     2.79162  2.79162  0.00000  0.41676
       4     C     3.10865  3.10865  0.00000 -0.21729
       5     C     3.13696  3.13696  0.00000 -0.27391
       6     H     0.38090  0.38090  0.00000  0.23821
       7     C     3.10055  3.10055  0.00000 -0.20110
       8     H     0.36841  0.36841  0.00000  0.26318
       9     C     2.91235  2.91235  0.00000  0.17530
      10     H     0.38656  0.38656  0.00000  0.22688
      11     C     3.09791  3.09791  0.00000 -0.19582
      12     N     3.24174  3.24174  0.00000  0.51652
      13     H     0.36563  0.36563  0.00000  0.26875
      14     O     4.23479  4.23479  0.00000 -0.46958
      15     O     4.23097  4.23097  0.00000 -0.46194

   Total alpha = 36.00000, Total beta = 36.00000, Total charge =  0.00000
