  ==> Input File <==

--------------------------------------------------------------------------
set {
	reference rhf
	basis 6-31G*
}

set_num_threads( 4 )
memory 2 gb

molecule MOL {
0 1

O	 -0.381637	 0.232298	 -0.809428
C	 0.486307	 0.169203	 0.000779
C	 1.608116	 -0.841643	 0.000302
O	 0.582718	 0.994978	 1.033450
C	 2.990107	 -0.200498	 -0.000684
H	 1.468623	 -1.481519	 -0.865924
H	 1.469683	 -1.481289	 0.866878
H	 3.129736	 0.423364	 -0.875135
H	 3.757882	 -0.966877	 -0.001197
H	 3.130964	 0.423383	 0.873533
C	 -0.412665	 2.004789	 1.163431
C	 -0.086518	 2.806250	 2.405847
H	 -1.384205	 1.535045	 1.234389
H	 -0.406133	 2.622676	 0.275870
H	 -0.091710	 2.172173	 3.285095
H	 -0.823759	 3.590561	 2.543623
H	 0.891688	 3.265857	 2.321408

	symmetry c1
}
set optking {
	frozen_dihedral = ("
		4 2 3 6
	")
}

ee = optimize('scf')
oeprop('DIPOLE', 'QUADRUPOLE', 'MULLIKEN_CHARGES')
f=open( 'psi4out.xyz', 'w' )
f.write( "17  " )
f.write( str(ee) + "\n" )
f.write( MOL.save_string_xyz() )
f.close()
--------------------------------------------------------------------------

    Molecular point group: c1
  Charge       = 0
  Multiplicity = 1
  Basis Set: 6-31G*
  Basis Set:
  @DF-RHF Final Energy:  -344.91014594615046
    Total Energy =                       -344.9101459461505215
    Molecular point group: c1
  Basis Set: 6-31G*
  Basis Set:
  Basis Set: 6-31G*
  Basis Set:
  @DF-RHF Final Energy:  -344.91033071979615
    Total Energy =                       -344.9103307197960362
  Basis Set: 6-31G*
  Basis Set:
  Basis Set: 6-31G*
  Basis Set:
  @DF-RHF Final Energy:  -344.91034549948733
    Total Energy =                       -344.9103454994872777
  Basis Set: 6-31G*
  Basis Set:
  Basis Set: 6-31G*
  Basis Set:
  @DF-RHF Final Energy:  -344.91042394740458
    Total Energy =                       -344.9104239474047517
  Basis Set: 6-31G*
  Basis Set:
  Basis Set: 6-31G*
  Basis Set:
  @DF-RHF Final Energy:  -344.91043213280915
    Total Energy =                       -344.9104321328094329
  Basis Set: 6-31G*
  Basis Set:
  Charge       = 0
  Multiplicity = 1
  Basis Set: 6-31G*
  Basis Set:

    Orbital Energies (a.u.)
    -----------------------

    Doubly Occupied:

       1A    -20.601576     2A    -20.542780     3A    -11.370421
       4A    -11.284994     5A    -11.236759     6A    -11.224685
       7A    -11.222693     8A     -1.467235     9A     -1.360635
      10A     -1.073010    11A     -1.030345    12A     -0.906869
      13A     -0.857369    14A     -0.777638    15A     -0.692120
      16A     -0.678890    17A     -0.671108    18A     -0.621556
      19A     -0.590666    20A     -0.573189    21A     -0.553108
      22A     -0.543037    23A     -0.525453    24A     -0.509814
      25A     -0.504220    26A     -0.495525    27A     -0.451849
      28A     -0.431234

  @DF-RHF Final Energy:  -344.91043210572820

   => Energetics <=

    Nuclear Repulsion Energy =            317.1808691266076039
    One-Electron Energy =               -1098.5850484410063927
    Two-Electron Energy =                 436.4937472086706975
    DFT Exchange-Correlation Energy =       0.0000000000000000
    Empirical Dispersion Energy =           0.0000000000000000
    PCM Polarization Energy =               0.0000000000000000
    EFP Energy =                            0.0000000000000000
    Total Energy =                       -344.9104321057280913
    Molecular point group: c1
  Basis Set: 6-31G*
  Basis Set:

  -Total Gradient:
     Atom            X                  Y                   Z
    ------   -----------------  -----------------  -----------------
       1        0.000016249474     0.000020586772     0.000025208134
       2       -0.000151460559    -0.000172699536     0.000098545615
       3       -0.000157250409    -0.000178994868     0.000163519620
       4        0.000159380033     0.000211275732    -0.000162438523
       5       -0.000018088510    -0.000016595563     0.000011042720
       6        0.000172344580     0.000179859545    -0.000164897374
       7        0.000012420362    -0.000006302554    -0.000012819759
       8       -0.000005236682    -0.000001192843     0.000001842528
       9        0.000003814040    -0.000002554326     0.000001350503
      10        0.000003665597     0.000011323946    -0.000000130824
      11       -0.000096889252    -0.000116408135     0.000099869006
      12        0.000023547859     0.000030265464    -0.000023136563
      13        0.000007189746     0.000036496814    -0.000005258356
      14        0.000026011979     0.000001814285    -0.000030226691
      15       -0.000004161156    -0.000007126832    -0.000013514795
      16        0.000002919958     0.000002316731    -0.000002349572
      17        0.000005542940     0.000007935369     0.000013394336

  **** Optimization is complete! (in 6 steps) ****
    Final optimized geometry and variables:
    Molecular point group: c1

    Geometry (in Angstrom), charge = 0, multiplicity = 1:

    O           -1.051371836976    -0.515129608281    -1.361785647264
    C           -0.189321891577    -0.582449104579    -0.545284006836
    C            0.924587344284    -1.601707804537    -0.551500372251
    O           -0.103662331405     0.240089789355     0.491457777579
    C            2.319070582352    -0.967939578628    -0.558718827676
    H            0.778369175397    -2.225509945662    -1.422900369280
    H            0.809219189781    -2.222609857025     0.331968708947
    H            2.455098600403    -0.333631610346    -1.428735029421
    H            3.078049281574    -1.741768476438    -0.590639720550
    H            2.481351333578    -0.368490134213     0.327988310564
    C           -1.100304728238     1.249475573825     0.614705618484
    C           -0.778591969471     2.056423295108     1.854699218666
    H           -2.071393817846     0.778792563769     0.684494251867
    H           -1.091607751525     1.863395044680    -0.275472629523
    H           -0.785699123727     1.426070077854     2.736656073332
    H           -1.517147949552     2.840416002159     1.987090917853
    H            0.199236683864     2.517119249111     1.771297081071

  Mulliken Charges: (a.u.)
   Center  Symbol    Alpha    Beta     Spin     Total
       1     O     4.28620  4.28620  0.00000 -0.57240
       2     C     2.61167  2.61167  0.00000  0.77666
       3     C     3.19792  3.19792  0.00000 -0.39584
       4     O     4.30956  4.30956  0.00000 -0.61913
       5     C     3.24855  3.24855  0.00000 -0.49711
       6     H     0.39804  0.39804  0.00000  0.20392
       7     H     0.40361  0.40361  0.00000  0.19277
       8     H     0.41362  0.41362  0.00000  0.17275
       9     H     0.41324  0.41324  0.00000  0.17353
      10     H     0.40659  0.40659  0.00000  0.18681
      11     C     3.00206  3.00206  0.00000 -0.00412
      12     C     3.24871  3.24871  0.00000 -0.49743
      13     H     0.41011  0.41011  0.00000  0.17978
      14     H     0.40995  0.40995  0.00000  0.18010
      15     H     0.41190  0.41190  0.00000  0.17621
      16     H     0.41612  0.41612  0.00000  0.16776
      17     H     0.41213  0.41213  0.00000  0.17574

   Total alpha = 28.00000, Total beta = 28.00000, Total charge =  0.00000
