                              Psi4 1.0.54 Driver

  ==> Input File <==

--------------------------------------------------------------------------
set {
	reference rhf
	basis cc-pvtz
}

set_num_threads( 4 )
memory 2 gb

molecule MOL {
0 1

H	 2.190573	 -0.629143	 -0.208718
O	 1.355408	 -0.529451	 0.208662
C	 0.700177	 0.619554	 -0.266242
C	 -0.713111	 0.588314	 0.266177
H	 0.678680	 0.627133	 -1.351786
H	 1.199747	 1.521489	 0.077736
O	 -1.421673	 -0.521378	 -0.196983
H	 -1.244794	 1.469161	 -0.069059
H	 -0.685100	 0.604721	 1.352683
H	 -2.171665	 -0.218057	 -0.678161

	symmetry c1
}
set optking {
	frozen_dihedral = ("
		10 7 4 3
	")
}

ee,wfn = optimize('scf', return_wfn=True)
oeprop( wfn, 'DIPOLE', 'QUADRUPOLE', 'MULLIKEN_CHARGES')
f=open( 'psi4out.xyz', 'w' )
f.write( "10  " )
f.write( str(ee) + "\n" )
f.write( MOL.save_string_xyz() )
f.close()
--------------------------------------------------------------------------

    Molecular point group: c1
  Charge       = 0
  Multiplicity = 1
  Basis Set: CC-PVTZ
  Basis Set:
  @DF-RHF Final Energy:  -229.02049431249725
    Total Energy =                       -229.0204943124973340
    Molecular point group: c1
  Basis Set: CC-PVTZ
  Basis Set:
  Basis Set: CC-PVTZ
  Basis Set:
  @DF-RHF Final Energy:  -229.02156359661029
    Total Energy =                       -229.0215635966104060
  Basis Set: CC-PVTZ
  Basis Set:
  Basis Set: CC-PVTZ
  Basis Set:
  @DF-RHF Final Energy:  -229.02197773273642
    Total Energy =                       -229.0219777327364170
  Basis Set: CC-PVTZ
  Basis Set:
  Basis Set: CC-PVTZ
  Basis Set:
  @DF-RHF Final Energy:  -229.02199403674751
    Total Energy =                       -229.0219940367474862
  Basis Set: CC-PVTZ
  Basis Set:
  Basis Set: CC-PVTZ
  Basis Set:
  @DF-RHF Final Energy:  -229.02199961765049
    Total Energy =                       -229.0219996176506072
  Basis Set: CC-PVTZ
  Basis Set:
  Basis Set: CC-PVTZ
  Basis Set:
  @DF-RHF Final Energy:  -229.02200174866701
    Total Energy =                       -229.0220017486670372
  Basis Set: CC-PVTZ
  Basis Set:
  Charge       = 0
  Multiplicity = 1
  Basis Set: CC-PVTZ
  Basis Set:

    Orbital Energies (a.u.)
    -----------------------

    Doubly Occupied:

       1A    -20.546250     2A    -20.545428     3A    -11.268990
       4A    -11.268067     5A     -1.374694     6A     -1.355337
       7A     -1.003154     8A     -0.836296     9A     -0.724818
      10A     -0.691910    11A     -0.641803    12A     -0.598147
      13A     -0.578374    14A     -0.519685    15A     -0.494874
      16A     -0.446771    17A     -0.433457

  @DF-RHF Final Energy:  -229.02200208372093

   => Energetics <=

    Nuclear Repulsion Energy =            133.2804444358156104
    One-Electron Energy =                -577.9487785666083255
    Two-Electron Energy =                 215.6463320470717520
    DFT Exchange-Correlation Energy =       0.0000000000000000
    Empirical Dispersion Energy =           0.0000000000000000
    PCM Polarization Energy =               0.0000000000000000
    EFP Energy =                            0.0000000000000000
    Total Energy =                       -229.0220020837209347
    Molecular point group: c1
  Basis Set: CC-PVTZ
  Basis Set:

  -Total Gradient:
     Atom            X                  Y                   Z
    ------   -----------------  -----------------  -----------------
       1        0.000014144792     0.000010160468     0.000005952571
       2       -0.000027840821     0.000003413442    -0.000006046383
       3        0.000043958648    -0.000010288120    -0.000001820620
       4       -0.000019262566    -0.000046337303     0.000014466608
       5       -0.000014739879     0.000001833164    -0.000014390764
       6       -0.000011841018     0.000000130375    -0.000010423542
       7       -0.000015072873     0.000041860182     0.000040858933
       8        0.000002632524     0.000002921363     0.000007183752
       9        0.000004656238     0.000000290399     0.000001253614
      10        0.000023364956    -0.000003983969    -0.000037034169

  **** Optimization is complete! (in 7 steps) ****
    Final optimized geometry and variables:
    Molecular point group: c1

    Geometry (in Angstrom), charge = 0, multiplicity = 1:

    H            2.267130479465    -0.473533267934    -0.252449528908
    O            1.457726756435    -0.420135471180     0.220406469739
    C            0.664031066584     0.611010662548    -0.291385449712
    C           -0.721393936657     0.508240468419     0.302468820517
    H            0.592159667786     0.549825073682    -1.373961030196
    H            1.082105055580     1.582447455031    -0.032135679839
    O           -1.405318561482    -0.618302121509    -0.176727992548
    H           -1.263571692533     1.420577508013     0.071791663333
    H           -0.635897441328     0.435683394027     1.380668228840
    H           -2.190672287802    -0.360973461701    -0.619090580347

  Mulliken Charges: (a.u.)
   Center  Symbol    Alpha    Beta     Spin     Total
       1     H     0.39542  0.39542  0.00000  0.20916
       2     O     4.19352  4.19352  0.00000 -0.38705
       3     C     2.95406  2.95406  0.00000  0.09187
       4     C     2.96827  2.96827  0.00000  0.06346
       5     H     0.47808  0.47808  0.00000  0.04384
       6     H     0.47942  0.47942  0.00000  0.04116
       7     O     4.19946  4.19946  0.00000 -0.39892
       8     H     0.47500  0.47500  0.00000  0.04999
       9     H     0.46404  0.46404  0.00000  0.07191
      10     H     0.39271  0.39271  0.00000  0.21457

   Total alpha = 17.00000, Total beta = 17.00000, Total charge =  0.00000

*** Psi4 exiting successfully. Buy a developer a beer!
