  ==> Input File <==

--------------------------------------------------------------------------
set {
	reference rhf
	basis 6-31G*
}

set_num_threads( 4 )
memory 2 gb

molecule MOL {
0 1

O	 -2.821601	 1.309235	 -0.001213
C	 -2.668563	 0.129746	 -0.000350
C	 -3.801572	 -0.864014	 -0.000442
O	 -1.481751	 -0.454642	 0.000584
H	 -4.417280	 -0.689587	 -0.874708
H	 -3.443784	 -1.883046	 -0.000565
H	 -4.417179	 -0.689832	 0.873954
C	 -0.334255	 0.388708	 0.000906
C	 0.891947	 -0.504646	 0.000751
H	 -0.365390	 1.025305	 -0.873475
H	 -0.365484	 1.024911	 0.875569
C	 2.191998	 0.301789	 0.000897
H	 0.855148	 -1.151283	 -0.871571
H	 0.855132	 -1.151660	 0.872805
C	 3.441114	 -0.581407	 0.000108
H	 2.215074	 0.954890	 -0.869742
H	 2.215465	 0.953923	 0.872248
C	 4.010666	 -0.808048	 1.399791
H	 4.201961	 -0.126995	 -0.630524
H	 3.202235	 -1.541082	 -0.452695
H	 4.290907	 0.132127	 1.866214
H	 4.894717	 -1.437003	 1.366571
H	 3.283817	 -1.292879	 2.045266

	symmetry c1
}
set optking {
	frozen_dihedral = ("
		19 15 12 16
	")
}

ee = optimize('scf')
oeprop('DIPOLE', 'QUADRUPOLE', 'MULLIKEN_CHARGES')
f=open( 'psi4out.xyz', 'w' )
f.write( "23  " )
f.write( str(ee) + "\n" )
f.write( MOL.save_string_xyz() )
f.close()
--------------------------------------------------------------------------

    Molecular point group: c1
  Charge       = 0
  Multiplicity = 1
  Basis Set: 6-31G*
  Basis Set:
  @DF-RHF Final Energy:  -422.97535671043192
    Total Energy =                       -422.9753567104322656
    Molecular point group: c1
  Basis Set: 6-31G*
  Basis Set:
  Basis Set: 6-31G*
  Basis Set:
  @DF-RHF Final Energy:  -422.97562672585929
    Total Energy =                       -422.9756267258596836
  Basis Set: 6-31G*
  Basis Set:
  Basis Set: 6-31G*
  Basis Set:
  @DF-RHF Final Energy:  -422.97570434025255
    Total Energy =                       -422.9757043402516956
  Basis Set: 6-31G*
  Basis Set:
  Basis Set: 6-31G*
  Basis Set:
  @DF-RHF Final Energy:  -422.97555189085773
    Total Energy =                       -422.9755518908573322
  Basis Set: 6-31G*
  Basis Set:
  Basis Set: 6-31G*
  Basis Set:
  @DF-RHF Final Energy:  -422.97570953346218
    Total Energy =                       -422.9757095334626911
  Basis Set: 6-31G*
  Basis Set:
  Charge       = 0
  Multiplicity = 1
  Basis Set: 6-31G*
  Basis Set:

    Orbital Energies (a.u.)
    -----------------------

    Doubly Occupied:

       1A    -20.603096     2A    -20.540602     3A    -11.374151
       4A    -11.281470     5A    -11.232441     6A    -11.224716
       7A    -11.223703     8A    -11.221503     9A    -11.213594
      10A     -1.468030    11A     -1.360812    12A     -1.093417
      13A     -1.041180    14A     -1.002638    15A     -0.930786
      16A     -0.848262    17A     -0.798870    18A     -0.773559
      19A     -0.691269    20A     -0.685403    21A     -0.669455
      22A     -0.633579    23A     -0.615829    24A     -0.596355
      25A     -0.579321    26A     -0.571247    27A     -0.547294
      28A     -0.533076    29A     -0.528719    30A     -0.505944
      31A     -0.499972    32A     -0.473560    33A     -0.465573
      34A     -0.464681    35A     -0.451346    36A     -0.435398

  @DF-RHF Final Energy:  -422.97570963249575

   => Energetics <=

    Nuclear Repulsion Energy =            452.5386959729219143
    One-Electron Energy =               -1472.6671116592665385
    Two-Electron Energy =                 597.1527060538492151
    DFT Exchange-Correlation Energy =       0.0000000000000000
    Empirical Dispersion Energy =           0.0000000000000000
    PCM Polarization Energy =               0.0000000000000000
    EFP Energy =                            0.0000000000000000
    Total Energy =                       -422.9757096324954091
    Molecular point group: c1
  Basis Set: 6-31G*
  Basis Set:

  -Total Gradient:
     Atom            X                  Y                   Z
    ------   -----------------  -----------------  -----------------
       1       -0.000000477504    -0.000000284947    -0.000014353294
       2       -0.000004645068    -0.000004501931     0.000038186421
       3       -0.000000719146     0.000001671949    -0.000008510377
       4       -0.000008087158     0.000001700535    -0.000007483231
       5       -0.000001011652    -0.000002405839    -0.000001047796
       6        0.000000445209     0.000000189495    -0.000000920050
       7        0.000000909407     0.000002452336    -0.000000783587
       8        0.000017629705     0.000010394440     0.000017813986
       9        0.000023949786    -0.000030607935    -0.000032779383
      10        0.000000234613    -0.000002102328     0.000000594892
      11       -0.000002744871     0.000004290124    -0.000004141151
      12       -0.002241616682    -0.003498320880    -0.002892472442
      13       -0.000013162164     0.000009765320    -0.000008193763
      14        0.000017892325     0.000004382983    -0.000013045314
      15        0.001737229899     0.002816348874     0.003844358917
      16        0.001638953093     0.002419780563     0.001824742532
      17        0.000006057939     0.000011483973     0.000015318254
      18       -0.000016591221     0.000032742377     0.000019043573
      19       -0.001139297986    -0.001770472243    -0.002732957633
      20       -0.000014258807    -0.000011616403    -0.000005577284
      21        0.000006099191    -0.000001015652    -0.000001012723
      22       -0.000006535035    -0.000003749812    -0.000020252424
      23       -0.000000253855     0.000009875000    -0.000016528120

  **** Optimization is complete! (in 6 steps) ****
    Final optimized geometry and variables:
    Molecular point group: c1

    Geometry (in Angstrom), charge = 0, multiplicity = 1:

    O           -2.735637893906     1.425742955256    -0.116701301769
    C           -2.582065960824     0.246646129485    -0.143936142158
    C           -3.714581601648    -0.747640029880    -0.152058925857
    O           -1.395080808478    -0.336850261172    -0.170591834052
    H           -4.341442975727    -0.553948757804    -1.014251604038
    H           -3.356422083849    -1.766170518827    -0.179709849961
    H           -4.319069864972    -0.593646768803     0.733808854955
    C           -0.247970597914     0.507050017413    -0.165843356168
    C            0.978395744385    -0.385040674378    -0.200573974803
    H           -0.289625452505     1.162567644610    -1.025794687053
    H           -0.268723104373     1.124090343695     0.722714961184
    C            2.277619587429     0.422469246240    -0.212861509413
    H            0.928158832304    -1.017998324196    -1.081956217208
    H            0.955892128500    -1.045813076312     0.661675290727
    C            3.543199636646    -0.453309839820    -0.156984603805
    H            2.309817326208     1.063065428205    -1.090573444492
    H            2.282963119619     1.104732764790     0.635920110530
    C            4.063260756674    -0.689225282806     1.260335613377
    H            4.322792126184    -0.010049089718    -0.769632966916
    H            3.330555973111    -1.413867013467    -0.621760702136
    H            4.362067831063     0.244871662925     1.726964976507
    H            4.925174670981    -1.349128092866     1.256896341848
    H            3.303374564958    -1.144018217960     1.889574514683

  Mulliken Charges: (a.u.)
   Center  Symbol    Alpha    Beta     Spin     Total
       1     O     4.28387  4.28387  0.00000 -0.56774
       2     C     2.61534  2.61534  0.00000  0.76932
       3     C     3.28774  3.28774  0.00000 -0.57548
       4     O     4.31265  4.31265  0.00000 -0.62531
       5     H     0.39748  0.39748  0.00000  0.20504
       6     H     0.39988  0.39988  0.00000  0.20024
       7     H     0.39749  0.39749  0.00000  0.20502
       8     C     2.99611  2.99611  0.00000  0.00778
       9     C     3.16568  3.16568  0.00000 -0.33137
      10     H     0.41062  0.41062  0.00000  0.17876
      11     H     0.41052  0.41052  0.00000  0.17897
      12     C     3.16402  3.16402  0.00000 -0.32803
      13     H     0.41362  0.41362  0.00000  0.17275
      14     H     0.41392  0.41392  0.00000  0.17217
      15     C     3.15493  3.15493  0.00000 -0.30986
      16     H     0.41764  0.41764  0.00000  0.16472
      17     H     0.42008  0.42008  0.00000  0.15985
      18     C     3.24017  3.24017  0.00000 -0.48033
      19     H     0.41797  0.41797  0.00000  0.16406
      20     H     0.42057  0.42057  0.00000  0.15885
      21     H     0.42024  0.42024  0.00000  0.15952
      22     H     0.41832  0.41832  0.00000  0.16336
      23     H     0.42114  0.42114  0.00000  0.15772

   Total alpha = 36.00000, Total beta = 36.00000, Total charge =  0.00000
