  ==> Input File <==

--------------------------------------------------------------------------
set {
	reference rhf
	basis 6-31G*
}

set_num_threads( 4 )
memory 2 gb

molecule MOL {
0 1

H	 -1.070890	 -1.366565	 0.180696
O	 -1.422729	 -0.573567	 -0.196946
C	 -0.731407	 0.539437	 0.309156
C	 0.680193	 0.672443	 -0.251532
H	 -1.319765	 1.404033	 0.030086
H	 -0.700012	 0.506517	 1.397677
C	 1.334794	 2.021046	 0.049255
H	 1.290620	 -0.128874	 0.154566
H	 0.634507	 0.523595	 -1.328239
H	 1.462472	 2.170533	 1.117219
H	 2.318834	 2.086075	 -0.402855
H	 0.739746	 2.844393	 -0.338406

	symmetry c1
}
set optking {
	frozen_dihedral = ("
		8 4 3 2
	")
}

ee = optimize('scf')
oeprop('DIPOLE', 'QUADRUPOLE', 'MULLIKEN_CHARGES')
f=open( 'psi4out.xyz', 'w' )
f.write( "12  " )
f.write( str(ee) + "\n" )
f.write( MOL.save_string_xyz() )
f.close()
--------------------------------------------------------------------------

    Molecular point group: c1
  Charge       = 0
  Multiplicity = 1
  Basis Set: 6-31G*
  Basis Set:
  @DF-RHF Final Energy:  -193.10967708198393
    Total Energy =                       -193.1096770819840458
    Molecular point group: c1
  Basis Set: 6-31G*
  Basis Set:
  Basis Set: 6-31G*
  Basis Set:
  @DF-RHF Final Energy:  -193.10995331233320
    Total Energy =                       -193.1099533123330616
  Basis Set: 6-31G*
  Basis Set:
  Basis Set: 6-31G*
  Basis Set:
  @DF-RHF Final Energy:  -193.10999527798847
    Total Energy =                       -193.1099952779883608
  Basis Set: 6-31G*
  Basis Set:
  Basis Set: 6-31G*
  Basis Set:
  @DF-RHF Final Energy:  -193.10999721907717
    Total Energy =                       -193.1099972190772007
  Basis Set: 6-31G*
  Basis Set:
  Charge       = 0
  Multiplicity = 1
  Basis Set: 6-31G*
  Basis Set:

    Orbital Energies (a.u.)
    -----------------------

    Doubly Occupied:

       1A    -20.553044     2A    -11.267548     3A    -11.219392
       4A    -11.216433     5A     -1.359827     6A     -1.053507
       7A     -0.918059     8A     -0.819043     9A     -0.693633
      10A     -0.634072    11A     -0.598028    12A     -0.588516
      13A     -0.542425    14A     -0.500948    15A     -0.499222
      16A     -0.469212    17A     -0.429387

  @DF-RHF Final Energy:  -193.10999807291498

   => Energetics <=

    Nuclear Repulsion Energy =            130.9272203196931343
    One-Electron Energy =                -521.3498406604151114
    Two-Electron Energy =                 197.3126222678071429
    DFT Exchange-Correlation Energy =       0.0000000000000000
    Empirical Dispersion Energy =           0.0000000000000000
    PCM Polarization Energy =               0.0000000000000000
    EFP Energy =                            0.0000000000000000
    Total Energy =                       -193.1099980729148626
    Molecular point group: c1
  Basis Set: 6-31G*
  Basis Set:

  -Total Gradient:
     Atom            X                  Y                   Z
    ------   -----------------  -----------------  -----------------
       1        0.000009645393    -0.000000720334     0.000004401668
       2       -0.000647332517     0.001012450395    -0.001344905254
       3        0.001049428865    -0.000997298491     0.002259197753
       4       -0.000977132908    -0.001299579790    -0.002611262756
       5        0.000000486998    -0.000006785086    -0.000015664858
       6       -0.000015568202    -0.000026540763     0.000008471329
       7       -0.000009055894    -0.000019918870    -0.000002639205
       8        0.000601620814     0.001358477960     0.001716981411
       9        0.000008601325    -0.000007562986    -0.000021024545
      10        0.000008332252    -0.000009967426     0.000013865106
      11       -0.000021579561    -0.000008649610     0.000005082056
      12       -0.000007446561     0.000006095004    -0.000012502705

  **** Optimization is complete! (in 5 steps) ****
    Final optimized geometry and variables:
    Molecular point group: c1

    Geometry (in Angstrom), charge = 0, multiplicity = 1:

    H           -0.928578435083    -1.986014998375     0.133926034638
    O           -1.362526480985    -1.192904385726    -0.148725249541
    C           -0.658514016857    -0.077794144844     0.332154414155
    C            0.742161398323     0.035508150432    -0.258882402055
    H           -1.249929377426     0.783346668926     0.046180442260
    H           -0.610413840527    -0.088583528241     1.420115475030
    C            1.399791616916     1.379539109435     0.056305795493
    H            1.366934955718    -0.762950009800     0.139046039472
    H            0.675533457039    -0.109670659342    -1.332454817251
    H            1.472440565135     1.542679232337     1.128170896250
    H            2.403768321872     1.427781047355    -0.351706274504
    H            0.831474351159     2.203226770681    -0.365760914636

  Mulliken Charges: (a.u.)
   Center  Symbol    Alpha    Beta     Spin     Total
       1     H     0.28336  0.28336  0.00000  0.43329
       2     O     4.37000  4.37000  0.00000 -0.74000
       3     C     2.98870  2.98870  0.00000  0.02260
       4     C     3.16841  3.16841  0.00000 -0.33682
       5     H     0.41713  0.41713  0.00000  0.16573
       6     H     0.43140  0.43140  0.00000  0.13721
       7     C     3.24707  3.24707  0.00000 -0.49413
       8     H     0.42703  0.42703  0.00000  0.14595
       9     H     0.41201  0.41201  0.00000  0.17598
      10     H     0.42085  0.42085  0.00000  0.15830
      11     H     0.41560  0.41560  0.00000  0.16879
      12     H     0.41845  0.41845  0.00000  0.16310

   Total alpha = 17.00000, Total beta = 17.00000, Total charge =  0.00000
