                              Psi4 1.0.54 Driver

  ==> Input File <==

--------------------------------------------------------------------------
set {
	reference rhf
	basis cc-pvtz
}

set_num_threads( 4 )
memory 2 gb

molecule MOL {
0 1

H	 5.207601	 -0.011256	 1.437254
C	 4.636245	 -0.446885	 0.625684
C	 3.138344	 -0.362231	 0.898539
H	 4.895952	 0.083835	 -0.283768
H	 4.957458	 -1.477130	 0.510724
C	 2.300658	 -0.977021	 -0.220517
H	 2.857263	 0.676128	 1.031745
H	 2.914602	 -0.870310	 1.833749
C	 0.797033	 -0.912336	 0.028110
H	 2.525026	 -0.479814	 -1.156078
H	 2.581444	 -2.019322	 -0.341144
C	 0.192577	 0.476087	 -0.095985
H	 0.276584	 -1.534007	 -0.696061
H	 0.545892	 -1.322557	 1.001848
C	 -1.180025	 0.697761	 0.509157
O	 0.758451	 1.354796	 -0.662493
C	 -2.285431	 -0.137488	 -0.145671
H	 -1.402440	 1.751821	 0.412580
H	 -1.129924	 0.461728	 1.568862
C	 -3.646545	 0.082747	 0.508954
H	 -2.348635	 0.118247	 -1.199806
H	 -2.034895	 -1.192387	 -0.096473
C	 -4.757412	 -0.737227	 -0.138149
H	 -3.900211	 1.137405	 0.459735
H	 -3.580878	 -0.166775	 1.564416
H	 -4.867876	 -0.486707	 -1.187777
H	 -4.549650	 -1.800049	 -0.072540
H	 -5.709585	 -0.556397	 0.346597

	symmetry c1
}
set optking {
	frozen_dihedral = ("
		12 15 17 21
	")
}

ee,wfn = optimize('scf', return_wfn=True)
oeprop( wfn, 'DIPOLE', 'QUADRUPOLE', 'MULLIKEN_CHARGES')
f=open( 'psi4out.xyz', 'w' )
f.write( "28  " )
f.write( str(ee) + "\n" )
f.write( MOL.save_string_xyz() )
f.close()
--------------------------------------------------------------------------

    Molecular point group: c1
  Charge       = 0
  Multiplicity = 1
  Basis Set: CC-PVTZ
  Basis Set:
  @DF-RHF Final Energy:  -426.31978607602207
    Total Energy =                       -426.3197860760216145
    Molecular point group: c1
  Basis Set: CC-PVTZ
  Basis Set:
  Basis Set: CC-PVTZ
  Basis Set:
  @DF-RHF Final Energy:  -426.31969952978932
    Total Energy =                       -426.3196995297900003
  Basis Set: CC-PVTZ
  Basis Set:
  Basis Set: CC-PVTZ
  Basis Set:
  @DF-RHF Final Energy:  -426.31968808583849
    Total Energy =                       -426.3196880858383793
  Basis Set: CC-PVTZ
  Basis Set:
  Basis Set: CC-PVTZ
  Basis Set:
  @DF-RHF Final Energy:  -426.31980484078269
    Total Energy =                       -426.3198048407825809
  Basis Set: CC-PVTZ
  Basis Set:
  Basis Set: CC-PVTZ
  Basis Set:
  @DF-RHF Final Energy:  -426.31980692827631
    Total Energy =                       -426.3198069282764209
  Basis Set: CC-PVTZ
  Basis Set:
  Charge       = 0
  Multiplicity = 1
  Basis Set: CC-PVTZ
  Basis Set:

    Orbital Energies (a.u.)
    -----------------------

    Doubly Occupied:

       1A    -20.536504     2A    -11.316562     3A    -11.229749
       4A    -11.228274     5A    -11.226935     6A    -11.223850
       7A    -11.214767     8A    -11.214281     9A    -11.211150
      10A    -11.204172    11A     -1.396423    12A     -1.096235
      13A     -1.079011    14A     -1.023587    15A     -0.991915
      16A     -0.908113    17A     -0.874091    18A     -0.809398
      19A     -0.800405    20A     -0.724251    21A     -0.670121
      22A     -0.655486    23A     -0.629178    24A     -0.621593
      25A     -0.611479    26A     -0.589038    27A     -0.577352
      28A     -0.576325    29A     -0.543718    30A     -0.533974
      31A     -0.521851    32A     -0.506596    33A     -0.501235
      34A     -0.485627    35A     -0.479123    36A     -0.476814
      37A     -0.473060    38A     -0.466213    39A     -0.456820
      40A     -0.394146

  @DF-RHF Final Energy:  -426.31980721405534

   => Energetics <=

    Nuclear Repulsion Energy =            532.0065201519533957
    One-Electron Energy =               -1632.4938109112549682
    Two-Electron Energy =                 674.1674835452464549
    DFT Exchange-Correlation Energy =       0.0000000000000000
    Empirical Dispersion Energy =           0.0000000000000000
    PCM Polarization Energy =               0.0000000000000000
    EFP Energy =                            0.0000000000000000
    Total Energy =                       -426.3198072140552313
    Molecular point group: c1
  Basis Set: CC-PVTZ
  Basis Set:

  -Total Gradient:
     Atom            X                  Y                   Z
    ------   -----------------  -----------------  -----------------
       1        0.000001092465     0.000000159729     0.000000131563
       2       -0.000001126328    -0.000003884889     0.000001098734
       3       -0.000013335952     0.000021116691    -0.000010790393
       4        0.000001360208     0.000001231458    -0.000001509685
       5       -0.000000361368     0.000002032942    -0.000000236670
       6       -0.000006442185    -0.000005278452     0.000006275861
       7        0.000001188662    -0.000008655613    -0.000002254804
       8       -0.000000209803    -0.000002506330     0.000001380134
       9       -0.000007162034     0.000006710283    -0.000037192626
      10        0.000001885240     0.000000326414    -0.000000428391
      11        0.000002511178     0.000000743260     0.000000144945
      12        0.000154759108    -0.000537508471     0.000522747691
      13       -0.000002772480    -0.000013226649     0.000009753080
      14       -0.000004946310     0.000005958922     0.000004039558
      15       -0.000312533241     0.000921487490    -0.000575100982
      16       -0.000001357383    -0.000005671993    -0.000013984737
      17        0.000869161734    -0.001081058212    -0.000124710121
      18       -0.000002675495    -0.000009547962    -0.000011739203
      19       -0.000013301081     0.000001571269    -0.000006557055
      20       -0.000004458348    -0.000009418601     0.000008644657
      21       -0.000663130667     0.000709011535     0.000216289881
      22        0.000002728331     0.000009123699     0.000008331946
      23       -0.000001303976     0.000000102334     0.000004689087
      24        0.000004929780    -0.000006960933    -0.000002560206
      25       -0.000009614037    -0.000000311082     0.000001672012
      26        0.000003631392     0.000000389294     0.000002254324
      27       -0.000000908757     0.000005162083    -0.000000069010
      28        0.000002391357    -0.000001098212    -0.000000319587

  **** Optimization is complete! (in 6 steps) ****
    Final optimized geometry and variables:
    Molecular point group: c1

    Geometry (in Angstrom), charge = 0, multiplicity = 1:

    H            5.186660011507     0.112051437835     1.359473038402
    C            4.632065360906    -0.324882739617     0.537061728458
    C            3.129343863546    -0.253677698304     0.786036799688
    H            4.901932332764     0.211676415336    -0.365971356447
    H            4.963496717862    -1.351985668216     0.423190828173
    C            2.314872230629    -0.870431598511    -0.348910528708
    H            2.837785840274     0.781901180500     0.918880897720
    H            2.894775406783    -0.767329017366     1.715516027234
    C            0.806858574748    -0.819905965231    -0.123653376842
    H            2.549363810080    -0.366860839179    -1.278479250548
    H            2.606614627434    -1.909657088192    -0.469820892217
    C            0.195245160347     0.566066592481    -0.243901161435
    H            0.303846135057    -1.437050070004    -0.863680903978
    H            0.543611012543    -1.243033720908     0.841166134305
    C           -1.173461792171     0.783854392679     0.371162499915
    O            0.754935941076     1.446261620395    -0.814310436643
    C           -2.283152717489    -0.054173848600    -0.272402019528
    H           -1.401248516148     1.837246980290     0.281716588251
    H           -1.110533710837     0.543268140396     1.429345656996
    C           -3.640353626525     0.174154667903     0.388433161297
    H           -2.354574575827     0.201550843071    -1.325818655521
    H           -2.036694370536    -1.109506396996    -0.219997340847
    C           -4.759694901047    -0.635263269329    -0.257213699250
    H           -3.886547278235     1.230881014069     0.343774928999
    H           -3.572657876989    -0.079531737322     1.442709429189
    H           -4.874342323206    -0.378188290708    -1.304772871544
    H           -4.557969111778    -1.699673278756    -0.198752723835
    H           -5.708078365942    -0.451499589791     0.233805554642

  Mulliken Charges: (a.u.)
   Center  Symbol    Alpha    Beta     Spin     Total
       1     H     0.44864  0.44864  0.00000  0.10272
       2     C     3.15197  3.15197  0.00000 -0.30393
       3     C     3.08455  3.08455  0.00000 -0.16911
       4     H     0.45175  0.45175  0.00000  0.09650
       5     H     0.45677  0.45677  0.00000  0.08646
       6     C     3.08736  3.08736  0.00000 -0.17472
       7     H     0.44613  0.44613  0.00000  0.10773
       8     H     0.45850  0.45850  0.00000  0.08300
       9     C     3.13051  3.13051  0.00000 -0.26102
      10     H     0.44390  0.44390  0.00000  0.11219
      11     H     0.44768  0.44768  0.00000  0.10465
      12     C     2.86355  2.86355  0.00000  0.27289
      13     H     0.43429  0.43429  0.00000  0.13143
      14     H     0.44297  0.44297  0.00000  0.11405
      15     C     3.09298  3.09298  0.00000 -0.18596
      16     O     4.17862  4.17862  0.00000 -0.35724
      17     C     3.10062  3.10062  0.00000 -0.20124
      18     H     0.43763  0.43763  0.00000  0.12475
      19     H     0.45009  0.45009  0.00000  0.09981
      20     C     3.08766  3.08766  0.00000 -0.17533
      21     H     0.44555  0.44555  0.00000  0.10889
      22     H     0.44998  0.44998  0.00000  0.10004
      23     C     3.14913  3.14913  0.00000 -0.29825
      24     H     0.45009  0.45009  0.00000  0.09983
      25     H     0.45366  0.45366  0.00000  0.09268
      26     H     0.45339  0.45339  0.00000  0.09322
      27     H     0.45520  0.45520  0.00000  0.08960
      28     H     0.44683  0.44683  0.00000  0.10634

   Total alpha = 40.00000, Total beta = 40.00000, Total charge = -0.00000

*** Psi4 exiting successfully. Buy a developer a beer!
