  ==> Input File <==

--------------------------------------------------------------------------
set {
	reference rhf
	basis 6-31G*
}

set_num_threads( 4 )
memory 2 gb

molecule MOL {
0 1

H	 -1.049105	 0.922765	 -0.291327
N	 -0.712432	 0.000013	 -0.096310
C	 0.734192	 -0.000004	 0.040609
H	 -0.995145	 -0.580299	 -0.861927
H	 1.139899	 -0.873598	 -0.456463
H	 1.139939	 0.873831	 -0.456100
H	 1.096456	 -0.000300	 1.069655

	symmetry c1
}
set optking {
	frozen_dihedral = ("
		1 2 3 7
	")
}

ee = optimize('scf')
oeprop('DIPOLE', 'QUADRUPOLE', 'MULLIKEN_CHARGES')
f=open( 'psi4out.xyz', 'w' )
f.write( "7  " )
f.write( str(ee) + "\n" )
f.write( MOL.save_string_xyz() )
f.close()
--------------------------------------------------------------------------

    Molecular point group: c1
  Charge       = 0
  Multiplicity = 1
  Basis Set: 6-31G*
  Basis Set:
  @DF-RHF Final Energy:   -95.20556521153217
    Total Energy =                        -95.2055652115322175
    Molecular point group: c1
  Basis Set: 6-31G*
  Basis Set:
  Basis Set: 6-31G*
  Basis Set:
  @DF-RHF Final Energy:   -95.20693310507171
    Total Energy =                        -95.2069331050716414
  Basis Set: 6-31G*
  Basis Set:
  Basis Set: 6-31G*
  Basis Set:
  @DF-RHF Final Energy:   -95.20712919592057
    Total Energy =                        -95.2071291959205155
  Basis Set: 6-31G*
  Basis Set:
  Basis Set: 6-31G*
  Basis Set:
  @DF-RHF Final Energy:   -95.20713264806514
    Total Energy =                        -95.2071326480651834
  Basis Set: 6-31G*
  Basis Set:
  Charge       = 0
  Multiplicity = 1
  Basis Set: 6-31G*
  Basis Set:

    Orbital Energies (a.u.)
    -----------------------

    Doubly Occupied:

       1A    -15.534043     2A    -11.237594     3A     -1.169168
       4A     -0.897581     5A     -0.662358     6A     -0.601852
       7A     -0.558331     8A     -0.516363     9A     -0.383563

  @DF-RHF Final Energy:   -95.20713286837243

   => Energetics <=

    Nuclear Repulsion Energy =             42.2560220539630365
    One-Electron Energy =                -211.8046058974809398
    Two-Electron Energy =                  74.3414509751454773
    DFT Exchange-Correlation Energy =       0.0000000000000000
    Empirical Dispersion Energy =           0.0000000000000000
    PCM Polarization Energy =               0.0000000000000000
    EFP Energy =                            0.0000000000000000
    Total Energy =                        -95.2071328683724403
    Molecular point group: c1
  Basis Set: 6-31G*
  Basis Set:

  -Total Gradient:
     Atom            X                  Y                   Z
    ------   -----------------  -----------------  -----------------
       1        0.000219110034    -0.000501659254    -0.003157043796
       2       -0.000236872407    -0.000143593376     0.003911879963
       3       -0.000053700625     0.003591180715    -0.000700627201
       4       -0.000016807811     0.000004198686    -0.000004736220
       5        0.000008059698    -0.000002424812     0.000000864276
       6        0.000011120523    -0.000006029653    -0.000000672620
       7        0.000069090585    -0.002941672306    -0.000049664402

  **** Optimization is complete! (in 5 steps) ****
    Final optimized geometry and variables:
    Molecular point group: c1

    Geometry (in Angstrom), charge = 0, multiplicity = 1:

    H           -1.085284057807     0.894377490692    -0.192365659037
    N           -0.721774461960    -0.022125771164    -0.020939808242
    C            0.734053125398     0.002879667717     0.079447532541
    H           -1.007907552910    -0.580355866482    -0.800402785862
    H            1.147343572978    -0.891353462768    -0.374122622819
    H            1.194849691680     0.859052890670    -0.408298640034
    H            1.039340726429    -0.008585547778     1.120166578717

  Mulliken Charges: (a.u.)
   Center  Symbol    Alpha    Beta     Spin     Total
       1     H     0.33273  0.33273  0.00000  0.33453
       2     N     3.92016  3.92016  0.00000 -0.84032
       3     C     3.14764  3.14764  0.00000 -0.29527
       4     H     0.33292  0.33292  0.00000  0.33415
       5     H     0.42163  0.42163  0.00000  0.15674
       6     H     0.42903  0.42903  0.00000  0.14193
       7     H     0.41588  0.41588  0.00000  0.16824

   Total alpha =  9.00000, Total beta =  9.00000, Total charge =  0.00000
