  ==> Input File <==

--------------------------------------------------------------------------
set {
	reference rhf
	basis 6-31G*
}

set_num_threads( 1 )
memory 2 gb

molecule MOL {
0 1

O	 3.175878	 0.894378	 -0.745906
C	 2.701189	 0.057885	 -0.047330
C	 1.316262	 0.093619	 0.552246
O	 3.347903	 -1.046386	 0.304773
C	 0.526820	 1.342092	 0.164673
H	 0.813072	 -0.817383	 0.245544
H	 1.429321	 0.021511	 1.631002
C	 -0.840683	 1.444632	 0.848716
H	 0.401475	 1.366736	 -0.913659
H	 1.116800	 2.216451	 0.417342
C	 -1.850822	 0.370128	 0.436197
H	 -1.259639	 2.421633	 0.619219
H	 -0.708266	 1.419863	 1.929392
C	 -3.231453	 0.580151	 1.061297
H	 -1.944448	 0.364895	 -0.648711
H	 -1.485002	 -0.615191	 0.716007
C	 -4.247650	 -0.490648	 0.660219
H	 -3.610809	 1.559590	 0.774901
H	 -3.136973	 0.596213	 2.145970
C	 -5.624797	 -0.271481	 1.285624
H	 -4.342537	 -0.508739	 -0.423437
H	 -3.872202	 -1.469978	 0.949585
H	 -6.322588	 -1.046065	 0.982782
H	 -6.043153	 0.685584	 0.986959
H	 -5.568985	 -0.282464	 2.370538
C	 4.728119	 -1.109107	 -0.004993
H	 4.882018	 -1.033965	 -1.071845
H	 5.068212	 -2.067527	 0.355250
H	 5.265056	 -0.311663	 0.488280

	symmetry c1
}
set optking {
	frozen_dihedral = ("
		21 17 14 11,
		17 14 11 15,
		15 11 8 5,
		6 3 5 9,
		11 8 5 9,
		2 4 26 27,
		6 3 2 1
	")
}

ee = energy('scf')
oeprop('DIPOLE', 'QUADRUPOLE', 'MULLIKEN_CHARGES')
f=open( 'psi4out.xyz', 'w' )
f.write( "29  " )
f.write( str(ee) + "\n" )
f.write( MOL.save_string_xyz() )
f.close()
--------------------------------------------------------------------------

    Molecular point group: c1

    Geometry (in Angstrom), charge = 0, multiplicity = 1:

       Center              X                  Y                   Z               Mass
    ------------   -----------------  -----------------  -----------------  -----------------
           O          3.134132001948     0.740739523759    -1.151073685235    15.994914619560
           C          2.659443001948    -0.095753476241    -0.452497685235    12.000000000000
           C          1.274516001948    -0.060019476241     0.147078314765    12.000000000000
           O          3.306157001948    -1.200024476241    -0.100394685235    15.994914619560
           C          0.485074001948     1.188453523759    -0.240494685235    12.000000000000
           H          0.771326001948    -0.971021476241    -0.159623685235     1.007825032070
           H          1.387575001948    -0.132127476241     1.225834314765     1.007825032070
           C         -0.882428998052     1.290993523759     0.443548314765    12.000000000000
           H          0.359729001948     1.213097523759    -1.318826685235     1.007825032070
           H          1.075054001948     2.062812523759     0.012174314765     1.007825032070
           C         -1.892567998052     0.216489523759     0.031029314765    12.000000000000
           H         -1.301384998052     2.267994523759     0.214051314765     1.007825032070
           H         -0.750011998052     1.266224523759     1.524224314765     1.007825032070
           C         -3.273198998052     0.426512523759     0.656129314765    12.000000000000
           H         -1.986193998052     0.211256523759    -1.053878685235     1.007825032070
           H         -1.526747998052    -0.768829476241     0.310839314765     1.007825032070
           C         -4.289395998052    -0.644286476241     0.255051314765    12.000000000000
           H         -3.652554998052     1.405951523759     0.369733314765     1.007825032070
           H         -3.178718998052     0.442574523759     1.740802314765     1.007825032070
           C         -5.666542998052    -0.425119476241     0.880456314765    12.000000000000
           H         -4.384282998052    -0.662377476241    -0.828604685235     1.007825032070
           H         -3.913947998052    -1.623616476241     0.544417314765     1.007825032070
           H         -6.364333998052    -1.199703476241     0.577614314765     1.007825032070
           H         -6.084898998052     0.531945523759     0.581791314765     1.007825032070
           H         -5.610730998052    -0.436102476241     1.965370314765     1.007825032070
           C          4.686373001948    -1.262745476241    -0.410160685235    12.000000000000
           H          4.840272001948    -1.187603476241    -1.477012685235     1.007825032070
           H          5.026466001948    -2.221165476241    -0.049917685235     1.007825032070
           H          5.223310001948    -0.465301476241     0.083112314765     1.007825032070

  Charge       = 0
  Multiplicity = 1
  Basis Set: 6-31G*
  Basis Set:

    Orbital Energies (a.u.)
    -----------------------

    Doubly Occupied:

       1A    -20.602810     2A    -20.545378     3A    -11.372064
       4A    -11.280912     5A    -11.234766     6A    -11.219081
       7A    -11.217643     8A    -11.215938     9A    -11.215795
      10A    -11.214421    11A    -11.209021    12A     -1.468894
      13A     -1.362552    14A     -1.098048    15A     -1.066762
      16A     -1.019407    17A     -0.977245    18A     -0.928692
      19A     -0.861622    20A     -0.799288    21A     -0.790498
      22A     -0.763773    23A     -0.700743    24A     -0.682013
      25A     -0.672323    26A     -0.650740    27A     -0.628798
      28A     -0.605043    29A     -0.594695    30A     -0.581239
      31A     -0.566617    32A     -0.550068    33A     -0.532135
      34A     -0.529621    35A     -0.517380    36A     -0.511018
      37A     -0.495728    38A     -0.477763    39A     -0.470370
      40A     -0.462405    41A     -0.458580    42A     -0.455901
      43A     -0.441273    44A     -0.434949

  @DF-RHF Final Energy:  -501.04346708178241

   => Energetics <=

    Nuclear Repulsion Energy =            610.1335384333528964
    One-Electron Energy =               -1891.3860715543753486
    Two-Electron Energy =                 780.2090660392392465
    DFT Exchange-Correlation Energy =       0.0000000000000000
    Empirical Dispersion Energy =           0.0000000000000000
    PCM Polarization Energy =               0.0000000000000000
    EFP Energy =                            0.0000000000000000
    Total Energy =                       -501.0434670817832057

  Mulliken Charges: (a.u.)
   Center  Symbol    Alpha    Beta     Spin     Total
       1     O     4.28538  4.28538  0.00000 -0.57076
       2     C     2.60472  2.60472  0.00000  0.79055
       3     C     3.20991  3.20991  0.00000 -0.41982
       4     O     4.30761  4.30761  0.00000 -0.61522
       5     C     3.15381  3.15381  0.00000 -0.30762
       6     H     0.39839  0.39839  0.00000  0.20321
       7     H     0.40175  0.40175  0.00000  0.19649
       8     C     3.15662  3.15662  0.00000 -0.31323
       9     H     0.41291  0.41291  0.00000  0.17419
      10     H     0.40894  0.40894  0.00000  0.18212
      11     C     3.15506  3.15506  0.00000 -0.31012
      12     H     0.41823  0.41823  0.00000  0.16354
      13     H     0.42399  0.42399  0.00000  0.15202
      14     C     3.15029  3.15029  0.00000 -0.30058
      15     H     0.42252  0.42252  0.00000  0.15495
      16     H     0.42359  0.42359  0.00000  0.15283
      17     C     3.15146  3.15146  0.00000 -0.30292
      18     H     0.42333  0.42333  0.00000  0.15334
      19     H     0.42402  0.42402  0.00000  0.15195
      20     C     3.23935  3.23935  0.00000 -0.47870
      21     H     0.42276  0.42276  0.00000  0.15448
      22     H     0.42341  0.42341  0.00000  0.15318
      23     H     0.41922  0.41922  0.00000  0.16156
      24     H     0.42155  0.42155  0.00000  0.15690
      25     H     0.42186  0.42186  0.00000  0.15629
      26     C     3.09274  3.09274  0.00000 -0.18547
      27     H     0.40681  0.40681  0.00000  0.18638
      28     H     0.40839  0.40839  0.00000  0.18322
      29     H     0.41138  0.41138  0.00000  0.17725

   Total alpha = 44.00000, Total beta = 44.00000, Total charge = -0.00000
