                              Psi4 1.0.54 Driver

  ==> Input File <==

--------------------------------------------------------------------------
set {
	reference rhf
	basis cc-pvtz
}

set_num_threads( 4 )
memory 2 gb

molecule MOL {
0 1

H	 2.256809	 -1.261077	 0.315481
N	 2.433987	 -0.362316	 -0.080024
C	 1.263552	 0.494993	 0.021953
H	 2.688579	 -0.505710	 -1.034989
C	 -0.016533	 -0.325589	 -0.026925
H	 1.280915	 1.180773	 -0.818522
H	 1.263064	 1.106893	 0.925038
C	 -1.280353	 0.525521	 0.047747
H	 -0.016686	 -0.912532	 -0.939714
H	 -0.014099	 -1.037598	 0.796369
C	 -2.560681	 -0.301323	 -0.007747
H	 -1.279957	 1.241025	 -0.770189
H	 -1.270445	 1.110526	 0.963468
H	 -2.617064	 -0.872870	 -0.928010
H	 -3.439525	 0.331102	 0.043462
H	 -2.609427	 -1.002736	 0.818585

	symmetry c1
}
set optking {
	frozen_dihedral = ("
		1 2 3 6
	")
}

ee,wfn = optimize('scf', return_wfn=True)
oeprop( wfn, 'DIPOLE', 'QUADRUPOLE', 'MULLIKEN_CHARGES')
f=open( 'psi4out.xyz', 'w' )
f.write( "16  " )
f.write( str(ee) + "\n" )
f.write( MOL.save_string_xyz() )
f.close()
--------------------------------------------------------------------------

    Molecular point group: c1
  Charge       = 0
  Multiplicity = 1
  Basis Set: CC-PVTZ
  Basis Set:
  @DF-RHF Final Energy:  -212.39701084779142
    Total Energy =                       -212.3970108477914209
    Molecular point group: c1
  Basis Set: CC-PVTZ
  Basis Set:
  Basis Set: CC-PVTZ
  Basis Set:
  @DF-RHF Final Energy:  -212.39812485611560
    Total Energy =                       -212.3981248561155439
  Basis Set: CC-PVTZ
  Basis Set:
  Basis Set: CC-PVTZ
  Basis Set:
  @DF-RHF Final Energy:  -212.39830547558523
    Total Energy =                       -212.3983054755852322
  Basis Set: CC-PVTZ
  Basis Set:
  Basis Set: CC-PVTZ
  Basis Set:
  @DF-RHF Final Energy:  -212.39830845900636
    Total Energy =                       -212.3983084590064436
  Basis Set: CC-PVTZ
  Basis Set:
  Charge       = 0
  Multiplicity = 1
  Basis Set: CC-PVTZ
  Basis Set:

    Orbital Energies (a.u.)
    -----------------------

    Doubly Occupied:

       1A    -15.525997     2A    -11.238368     3A    -11.215991
       4A    -11.212537     5A    -11.208842     6A     -1.177841
       7A     -1.063420     8A     -0.960845     9A     -0.848308
      10A     -0.797621    11A     -0.675130    12A     -0.629191
      13A     -0.598266    14A     -0.587426    15A     -0.558740
      16A     -0.523753    17A     -0.506678    18A     -0.483079
      19A     -0.472131    20A     -0.466453    21A     -0.379823

  @DF-RHF Final Energy:  -212.39830875969156

   => Energetics <=

    Nuclear Repulsion Energy =            186.4060287062347641
    One-Electron Energy =                -655.3477971010647707
    Two-Electron Energy =                 256.5434596351382766
    DFT Exchange-Correlation Energy =       0.0000000000000000
    Empirical Dispersion Energy =           0.0000000000000000
    PCM Polarization Energy =               0.0000000000000000
    EFP Energy =                            0.0000000000000000
    Total Energy =                       -212.3983087596917017
    Molecular point group: c1
  Basis Set: CC-PVTZ
  Basis Set:

  -Total Gradient:
     Atom            X                  Y                   Z
    ------   -----------------  -----------------  -----------------
       1       -0.000905591608    -0.001060873971    -0.002835755448
       2        0.000777482580     0.000870242574     0.003169517922
       3        0.001544898970     0.002076096330     0.001271806904
       4       -0.000001301009     0.000002418228     0.000002847426
       5        0.000043243303     0.000010505570    -0.000007850903
       6       -0.001416575165    -0.001896430055    -0.001612629574
       7       -0.000009047755     0.000008311318     0.000006532468
       8        0.000022357691    -0.000011351539    -0.000002951451
       9        0.000001815504     0.000003996219     0.000003160077
      10       -0.000009200176    -0.000009464655    -0.000008285564
      11       -0.000032600153     0.000007553900     0.000017705140
      12        0.000004177948    -0.000004031179     0.000000569909
      13       -0.000009464428     0.000005360889    -0.000006860381
      14        0.000006322771     0.000008334046     0.000001386364
      15       -0.000015762161    -0.000008812256     0.000003444316
      16       -0.000000756315    -0.000001855419    -0.000002637205

  **** Optimization is complete! (in 5 steps) ****
    Final optimized geometry and variables:
    Molecular point group: c1

    Geometry (in Angstrom), charge = 0, multiplicity = 1:

    H            2.320552755119    -1.280307946115     0.309788824608
    N            2.481198265456    -0.372942155937    -0.075078824967
    C            1.281043445865     0.450897654938     0.007851163470
    H            2.742111007683    -0.518253120747    -1.027006931370
    C           -0.031421516326    -0.327770609230    -0.026370476525
    H            1.291897964915     1.146067520042    -0.824597482713
    H            1.321717663439     1.043524859030     0.916013985500
    C           -1.265072323540     0.563736094465     0.079224166721
    H           -0.077311204858    -0.907289919438    -0.945738774100
    H           -0.037557560427    -1.046797931651     0.790829582488
    C           -2.574280536221    -0.218325840444     0.057768253016
    H           -1.261280182778     1.280181180058    -0.737864903495
    H           -1.209539333357     1.146586402336     0.994415439916
    H           -2.676173208527    -0.785521973789    -0.861446360657
    H           -3.428902799362     0.443998489174     0.133773903696
    H           -2.624670364268    -0.919191974288     0.884365223058

  Mulliken Charges: (a.u.)
   Center  Symbol    Alpha    Beta     Spin     Total
       1     H     0.43066  0.43066  0.00000  0.13868
       2     N     3.69076  3.69076  0.00000 -0.38152
       3     C     3.02240  3.02240  0.00000 -0.04479
       4     H     0.43110  0.43110  0.00000  0.13780
       5     C     3.08729  3.08729  0.00000 -0.17458
       6     H     0.45831  0.45831  0.00000  0.08338
       7     H     0.45647  0.45647  0.00000  0.08707
       8     C     3.09026  3.09026  0.00000 -0.18052
       9     H     0.45878  0.45878  0.00000  0.08244
      10     H     0.45879  0.45879  0.00000  0.08243
      11     C     3.14877  3.14877  0.00000 -0.29754
      12     H     0.45447  0.45447  0.00000  0.09105
      13     H     0.45388  0.45388  0.00000  0.09225
      14     H     0.45509  0.45509  0.00000  0.08982
      15     H     0.44818  0.44818  0.00000  0.10365
      16     H     0.45481  0.45481  0.00000  0.09039

   Total alpha = 21.00000, Total beta = 21.00000, Total charge = -0.00000

*** Psi4 exiting successfully. Buy a developer a beer!
