  ==> Input File <==

--------------------------------------------------------------------------
set {
	reference rhf
	basis cc-pvtz
}

set_num_threads( 4 )
memory 2 gb

molecule MOL {
0 1

H	 -0.481000	 -1.602000	 0.001000
N	 -0.613000	 -0.617000	 -0.000000
C	 -1.966000	 -0.108000	 0.000000
C	 0.483000	 0.180000	 0.000000
H	 -2.506000	 -0.441000	 -0.879000
H	 -1.921000	 0.969000	 -0.004000
H	 -2.504000	 -0.434000	 0.884000
C	 1.803000	 -0.565000	 0.000000
O	 0.425000	 1.379000	 0.000000
H	 1.887000	 -1.195000	 -0.880000
H	 2.609000	 0.152000	 0.004000
H	 1.884000	 -1.201000	 0.876000

	symmetry c1
}
ee = optimize('scf')
oeprop('DIPOLE', 'QUADRUPOLE', 'MULLIKEN_CHARGES')
f=open( 'psi4out.xyz', 'w' )
f.write( "12  " )
f.write( str(ee) + "\n" )
f.write( MOL.save_string_xyz() )
f.close()
--------------------------------------------------------------------------

    Molecular point group: c1
  Charge       = 0
  Multiplicity = 1
  Basis Set: CC-PVTZ
  Basis Set:
  @DF-RHF Final Energy:  -247.10088102384830
    Total Energy =                       -247.1008810238483306
    Molecular point group: c1
  Basis Set: CC-PVTZ
  Basis Set:
  Basis Set: CC-PVTZ
  Basis Set:
  @DF-RHF Final Energy:  -247.10098409658681
    Total Energy =                       -247.1009840965866715
  Basis Set: CC-PVTZ
  Basis Set:
  Charge       = 0
  Multiplicity = 1
  Basis Set: CC-PVTZ
  Basis Set:

    Orbital Energies (a.u.)
    -----------------------

    Doubly Occupied:

       1A    -20.506587     2A    -15.574931     3A    -11.336899
       4A    -11.252394     5A    -11.228013     6A     -1.388385
       7A     -1.231107     8A     -1.016763     9A     -0.932915
      10A     -0.788285    11A     -0.690995    12A     -0.651709
      13A     -0.635384    14A     -0.586925    15A     -0.582938
      16A     -0.555546    17A     -0.544883    18A     -0.511401
      19A     -0.417212    20A     -0.389339

  @DF-RHF Final Energy:  -247.10098505062123

   => Energetics <=

    Nuclear Repulsion Energy =            181.6428370074735597
    One-Electron Energy =                -695.8424288150929442
    Two-Electron Energy =                 267.0986067569981515
    DFT Exchange-Correlation Energy =       0.0000000000000000
    Empirical Dispersion Energy =           0.0000000000000000
    PCM Polarization Energy =               0.0000000000000000
    EFP Energy =                            0.0000000000000000
    Total Energy =                       -247.1009850506212615
    Molecular point group: c1
  Basis Set: CC-PVTZ
  Basis Set:

  -Total Gradient:
     Atom            X                  Y                   Z
    ------   -----------------  -----------------  -----------------
       1       -0.000038238807     0.000080738319     0.000040885406
       2        0.000172651037    -0.000052527139     0.000263183622
       3       -0.000129101527     0.000076186728     0.000049637106
       4       -0.000067652716    -0.000270924002    -0.001132878695
       5        0.000043700600    -0.000012650586     0.000013344502
       6        0.000037314180    -0.000078615171    -0.000004911766
       7        0.000021957759    -0.000006460688    -0.000027011253
       8       -0.000086273466     0.000099779876     0.000346115384
       9        0.000094062935     0.000163490389     0.000422388635
      10       -0.000065895016     0.000053061475     0.000027309516
      11       -0.000038928404    -0.000023379863     0.000014222882
      12        0.000056403428    -0.000028699336    -0.000012285339

  **** Optimization is complete! (in 3 steps) ****
    Final optimized geometry and variables:
    Molecular point group: c1

    Geometry (in Angstrom), charge = 0, multiplicity = 1:

    H           -0.490022112966    -1.644034988012     0.000678834353
    N           -0.625934426951    -0.663929341645    -0.000707275986
    C           -1.978635167825    -0.158663529094     0.001016530616
    C            0.468493825199     0.129045429905    -0.002160446424
    H           -2.519057552177    -0.493534885591    -0.876361803410
    H           -1.938891038079     0.917202382642    -0.004137073996
    H           -2.514266477995    -0.485137028949     0.884505666434
    C            1.785714503763    -0.615092394713     0.000602583784
    O            0.413284902764     1.323205722602     0.000531528992
    H            1.866993203876    -1.243309605463    -0.878792167219
    H            2.591505454298     0.100262773554     0.006421964955
    H            1.860356956314    -1.250359464902     0.875521516013

  Mulliken Charges: (a.u.)
   Center  Symbol    Alpha    Beta     Spin     Total
       1     H     0.41026  0.41026  0.00000  0.17947
       2     N     3.62192  3.62192  0.00000 -0.24385
       3     C     3.08604  3.08604  0.00000 -0.17207
       4     C     2.83652  2.83652  0.00000  0.32696
       5     H     0.45566  0.45566  0.00000  0.08867
       6     H     0.43100  0.43100  0.00000  0.13800
       7     H     0.45570  0.45570  0.00000  0.08860
       8     C     3.15351  3.15351  0.00000 -0.30702
       9     O     4.21570  4.21570  0.00000 -0.43141
      10     H     0.45001  0.45001  0.00000  0.09999
      11     H     0.43351  0.43351  0.00000  0.13298
      12     H     0.45017  0.45017  0.00000  0.09966

   Total alpha = 20.00000, Total beta = 20.00000, Total charge =  0.00000
