                              Psi4 1.0.54 Driver

  ==> Input File <==

--------------------------------------------------------------------------
set {
	reference rhf
	basis cc-pvtz
}

set_num_threads( 4 )
memory 2 gb

molecule MOL {
0 1

H	 1.458037	 -1.984092	 -2.212038
O	 1.177619	 -1.801799	 -1.327804
C	 0.187103	 -0.915616	 -1.374481
C	 -0.318151	 -0.570512	 0.000144
O	 -0.217512	 -0.477161	 -2.395271
C	 -1.454884	 0.441630	 -0.000560
H	 -0.618391	 -1.499871	 0.473471
H	 0.530749	 -0.209179	 0.571727
C	 -2.822577	 -0.232186	 0.000063
H	 -1.359760	 1.084704	 -0.867077
H	 -1.359641	 1.085996	 0.864983
H	 -2.954352	 -0.858985	 -0.875745
H	 -3.615886	 0.505352	 0.000019
H	 -2.953878	 -0.858359	 0.876394

	symmetry c1
}
set optking {
	frozen_dihedral = ("
		7 4 6 10
	")
}

ee,wfn = optimize('scf', return_wfn=True)
oeprop( wfn, 'DIPOLE', 'QUADRUPOLE', 'MULLIKEN_CHARGES')
f=open( 'psi4out.xyz', 'w' )
f.write( "14  " )
f.write( str(ee) + "\n" )
f.write( MOL.save_string_xyz() )
f.close()
--------------------------------------------------------------------------

    Molecular point group: c1
  Charge       = 0
  Multiplicity = 1
  Basis Set: CC-PVTZ
  Basis Set:
  @DF-RHF Final Energy:  -305.99829540081458
    Total Energy =                       -305.9982954008144134
    Molecular point group: c1
  Basis Set: CC-PVTZ
  Basis Set:
  Basis Set: CC-PVTZ
  Basis Set:
  @DF-RHF Final Energy:  -305.99864109719431
    Total Energy =                       -305.9986410971940813
  Basis Set: CC-PVTZ
  Basis Set:
  Basis Set: CC-PVTZ
  Basis Set:
  @DF-RHF Final Energy:  -305.99861775648560
    Total Energy =                       -305.9986177564855439
  Basis Set: CC-PVTZ
  Basis Set:
  Basis Set: CC-PVTZ
  Basis Set:
  @DF-RHF Final Energy:  -305.99865237386865
    Total Energy =                       -305.9986523738688220
  Basis Set: CC-PVTZ
  Basis Set:
  Basis Set: CC-PVTZ
  Basis Set:
  @DF-RHF Final Energy:  -305.99869570597571
    Total Energy =                       -305.9986957059757060
  Basis Set: CC-PVTZ
  Basis Set:
  Charge       = 0
  Multiplicity = 1
  Basis Set: CC-PVTZ
  Basis Set:

    Orbital Energies (a.u.)
    -----------------------

    Doubly Occupied:

       1A    -20.604962     2A    -20.541889     3A    -11.374725
       4A    -11.240004     5A    -11.222951     6A    -11.210932
       7A     -1.478816     8A     -1.370252     9A     -1.082169
      10A     -0.978315    11A     -0.860862    12A     -0.790105
      13A     -0.705947    14A     -0.696054    15A     -0.661978
      16A     -0.613769    17A     -0.599338    18A     -0.566378
      19A     -0.560391    20A     -0.494746    21A     -0.491187
      22A     -0.486905    23A     -0.480908    24A     -0.448252

  @DF-RHF Final Energy:  -305.99869648220101

   => Energetics <=

    Nuclear Repulsion Energy =            243.6435549166821772
    One-Electron Energy =                -900.1608351945565119
    Two-Electron Energy =                 350.5185837956731802
    DFT Exchange-Correlation Energy =       0.0000000000000000
    Empirical Dispersion Energy =           0.0000000000000000
    PCM Polarization Energy =               0.0000000000000000
    EFP Energy =                            0.0000000000000000
    Total Energy =                       -305.9986964822011259
    Molecular point group: c1
  Basis Set: CC-PVTZ
  Basis Set:

  -Total Gradient:
     Atom            X                  Y                   Z
    ------   -----------------  -----------------  -----------------
       1       -0.000011390817     0.000018001784     0.000008741034
       2        0.000020543431    -0.000032766932     0.000032445080
       3       -0.000039582679    -0.000002168027    -0.000034037095
       4        0.000989410670     0.001028518596     0.003487482054
       5        0.000045657272     0.000026849716    -0.000026557756
       6        0.002149093966     0.002429143237     0.001404418021
       7       -0.001141081738    -0.001250203238    -0.003092229208
       8        0.000020516441     0.000023671049    -0.000009197707
       9       -0.000040887364     0.000009503218     0.000046265071
      10       -0.001987915850    -0.002241826824    -0.001796860183
      11       -0.000003615099    -0.000007832550    -0.000007546097
      12       -0.000003726537    -0.000002524957    -0.000002060624
      13       -0.000001831602     0.000002759716     0.000000079785
      14        0.000004809911    -0.000001124790    -0.000010942373

  **** Optimization is complete! (in 6 steps) ****
    Final optimized geometry and variables:
    Molecular point group: c1

    Geometry (in Angstrom), charge = 0, multiplicity = 1:

    H            1.956494930845    -1.408663389763    -1.358136516560
    O            1.710416704060    -1.197996419978    -0.470000160738
    C            0.722595787995    -0.308420958510    -0.506917917519
    C            0.274425512214     0.077234232851     0.880398103636
    O            0.282568270612     0.098656068682    -1.526256883497
    C           -0.876596149641     1.083660323091     0.900270998808
    H           -0.003309452094    -0.852797780613     1.365285816519
    H            1.150704588875     0.447376197933     1.399106466707
    C           -2.249212956343     0.415028548718     0.893076698566
    H           -0.802918387724     1.718365252481     0.027850569733
    H           -0.783932947914     1.711399961907     1.778359258756
    H           -2.372226900719    -0.207668470819     0.014367472936
    H           -3.039614056172     1.156110190045     0.885025319042
    H           -2.388203889398    -0.208723724883     1.770141157147

  Mulliken Charges: (a.u.)
   Center  Symbol    Alpha    Beta     Spin     Total
       1     H     0.38229  0.38229  0.00000  0.23542
       2     O     4.15995  4.15995  0.00000 -0.31990
       3     C     2.80337  2.80337  0.00000  0.39326
       4     C     3.11243  3.11243  0.00000 -0.22486
       5     O     4.19247  4.19247  0.00000 -0.38493
       6     C     3.08719  3.08719  0.00000 -0.17437
       7     H     0.43914  0.43914  0.00000  0.12173
       8     H     0.43033  0.43033  0.00000  0.13934
       9     C     3.14922  3.14922  0.00000 -0.29843
      10     H     0.44232  0.44232  0.00000  0.11536
      11     H     0.44698  0.44698  0.00000  0.10605
      12     H     0.44883  0.44883  0.00000  0.10234
      13     H     0.44790  0.44790  0.00000  0.10420
      14     H     0.45759  0.45759  0.00000  0.08481

   Total alpha = 24.00000, Total beta = 24.00000, Total charge =  0.00000

*** Psi4 exiting successfully. Buy a developer a beer!
