  ==> Input File <==

--------------------------------------------------------------------------
set {
	reference rhf
	basis 6-31G*
}

set_num_threads( 1 )
memory 2 gb

molecule MOL {
0 1

O	 3.225979	 0.970355	 -0.599647
C	 2.701189	 0.057885	 -0.047330
C	 1.245376	 -0.013843	 0.345420
O	 3.347903	 -1.046386	 0.304773
C	 0.455112	 1.231400	 -0.050772
H	 0.838542	 -0.913825	 -0.103701
H	 1.208210	 -0.175333	 1.419774
C	 -0.998893	 1.219485	 0.433193
H	 0.482531	 1.345121	 -1.130325
H	 0.957290	 2.103070	 0.354729
C	 -1.883438	 0.145884	 -0.207175
H	 -1.431207	 2.195402	 0.224832
H	 -1.019646	 1.105716	 1.516076
C	 -3.358182	 0.548844	 -0.268442
H	 -1.524609	 -0.059000	 -1.214689
H	 -1.797309	 -0.788035	 0.343598
C	 -4.252392	 -0.518617	 -0.901726
H	 -3.454610	 1.476525	 -0.829997
H	 -3.714719	 0.764249	 0.737630
C	 -5.722913	 -0.106835	 -0.962584
H	 -3.896907	 -0.735796	 -1.906766
H	 -4.160694	 -1.445407	 -0.339204
H	 -6.330881	 -0.883539	 -1.416140
H	 -5.852475	 0.798823	 -1.548411
H	 -6.118018	 0.084314	 0.031211
C	 4.728119	 -1.109107	 -0.004993
H	 4.882018	 -1.033965	 -1.071845
H	 5.068212	 -2.067527	 0.355250
H	 5.265056	 -0.311663	 0.488280

	symmetry c1
}
set optking {
	frozen_dihedral = ("
		21 17 14 11,
		17 14 11 15,
		6 3 5 9,
		11 8 5 9,
		2 4 26 27,
		1 2 4 26,
		6 3 2 1
	")
}

ee = energy('scf')
oeprop('DIPOLE', 'QUADRUPOLE', 'MULLIKEN_CHARGES')
f=open( 'psi4out.xyz', 'w' )
f.write( "29  " )
f.write( str(ee) + "\n" )
f.write( MOL.save_string_xyz() )
f.close()
--------------------------------------------------------------------------

    Molecular point group: c1

    Geometry (in Angstrom), charge = 0, multiplicity = 1:

       Center              X                  Y                   Z               Mass
    ------------   -----------------  -----------------  -----------------  -----------------
           O          3.230051506471     0.858323669924    -0.417449007144    15.994914619560
           C          2.705261506471    -0.054146330076     0.134867992856    12.000000000000
           C          1.249448506471    -0.125874330076     0.527617992856    12.000000000000
           O          3.351975506471    -1.158417330076     0.486970992856    15.994914619560
           C          0.459184506471     1.119368669924     0.131425992856    12.000000000000
           H          0.842614506471    -1.025856330076     0.078496992856     1.007825032070
           H          1.212282506471    -0.287364330076     1.601971992856     1.007825032070
           C         -0.994820493529     1.107453669924     0.615390992856    12.000000000000
           H          0.486603506471     1.233089669924    -0.948127007144     1.007825032070
           H          0.961362506471     1.991038669924     0.536926992856     1.007825032070
           C         -1.879365493529     0.033852669924    -0.024977007144    12.000000000000
           H         -1.427134493529     2.083370669924     0.407029992856     1.007825032070
           H         -1.015573493529     0.993684669924     1.698273992856     1.007825032070
           C         -3.354109493529     0.436812669924    -0.086244007144    12.000000000000
           H         -1.520536493529    -0.171031330076    -1.032491007144     1.007825032070
           H         -1.793236493529    -0.900066330076     0.525795992856     1.007825032070
           C         -4.248319493529    -0.630648330076    -0.719528007144    12.000000000000
           H         -3.450537493529     1.364493669924    -0.647799007144     1.007825032070
           H         -3.710646493529     0.652217669924     0.919827992856     1.007825032070
           C         -5.718840493529    -0.218866330076    -0.780386007144    12.000000000000
           H         -3.892834493529    -0.847827330076    -1.724568007144     1.007825032070
           H         -4.156621493529    -1.557438330076    -0.157006007144     1.007825032070
           H         -6.326808493529    -0.995570330076    -1.233942007144     1.007825032070
           H         -5.848402493529     0.686791669924    -1.366213007144     1.007825032070
           H         -6.113945493529    -0.027717330076     0.213408992856     1.007825032070
           C          4.732191506471    -1.221138330076     0.177204992856    12.000000000000
           H          4.886090506471    -1.145996330076    -0.889647007144     1.007825032070
           H          5.072284506471    -2.179558330076     0.537447992856     1.007825032070
           H          5.269128506471    -0.423694330076     0.670477992856     1.007825032070

  Charge       = 0
  Multiplicity = 1
  Basis Set: 6-31G*
  Basis Set:

    Orbital Energies (a.u.)
    -----------------------

    Doubly Occupied:

       1A    -20.603387     2A    -20.545267     3A    -11.372017
       4A    -11.280671     5A    -11.234796     6A    -11.219092
       7A    -11.216903     8A    -11.215603     9A    -11.215393
      10A    -11.214446    11A    -11.208877    12A     -1.469090
      13A     -1.362547    14A     -1.097996    15A     -1.066696
      16A     -1.019413    17A     -0.977118    18A     -0.928206
      19A     -0.861712    20A     -0.799636    21A     -0.790337
      22A     -0.763647    23A     -0.699886    24A     -0.682546
      25A     -0.672026    26A     -0.651747    27A     -0.628090
      28A     -0.605373    29A     -0.593439    30A     -0.580644
      31A     -0.566547    32A     -0.550624    33A     -0.531555
      34A     -0.529366    35A     -0.517143    36A     -0.512894
      37A     -0.494301    38A     -0.477697    39A     -0.470863
      40A     -0.460151    41A     -0.459128    42A     -0.456036
      43A     -0.441404    44A     -0.434724

  @DF-RHF Final Energy:  -501.04226487166318

   => Energetics <=

    Nuclear Repulsion Energy =            609.9363383109945289
    One-Electron Energy =               -1890.9996648115818516
    Two-Electron Energy =                 780.0210616289207337
    DFT Exchange-Correlation Energy =       0.0000000000000000
    Empirical Dispersion Energy =           0.0000000000000000
    PCM Polarization Energy =               0.0000000000000000
    EFP Energy =                            0.0000000000000000
    Total Energy =                       -501.0422648716664753

  Mulliken Charges: (a.u.)
   Center  Symbol    Alpha    Beta     Spin     Total
       1     O     4.28594  4.28594  0.00000 -0.57188
       2     C     2.60532  2.60532  0.00000  0.78936
       3     C     3.20893  3.20893  0.00000 -0.41786
       4     O     4.30745  4.30745  0.00000 -0.61491
       5     C     3.15476  3.15476  0.00000 -0.30953
       6     H     0.39848  0.39848  0.00000  0.20303
       7     H     0.40126  0.40126  0.00000  0.19748
       8     C     3.15775  3.15775  0.00000 -0.31551
       9     H     0.41303  0.41303  0.00000  0.17394
      10     H     0.40926  0.40926  0.00000  0.18148
      11     C     3.15512  3.15512  0.00000 -0.31024
      12     H     0.41739  0.41739  0.00000  0.16522
      13     H     0.42259  0.42259  0.00000  0.15481
      14     C     3.15182  3.15182  0.00000 -0.30364
      15     H     0.42286  0.42286  0.00000  0.15427
      16     H     0.42242  0.42242  0.00000  0.15516
      17     C     3.15175  3.15175  0.00000 -0.30349
      18     H     0.42295  0.42295  0.00000  0.15409
      19     H     0.42354  0.42354  0.00000  0.15292
      20     C     3.23936  3.23936  0.00000 -0.47872
      21     H     0.42287  0.42287  0.00000  0.15427
      22     H     0.42339  0.42339  0.00000  0.15321
      23     H     0.41926  0.41926  0.00000  0.16147
      24     H     0.42156  0.42156  0.00000  0.15689
      25     H     0.42180  0.42180  0.00000  0.15640
      26     C     3.09239  3.09239  0.00000 -0.18478
      27     H     0.40910  0.40910  0.00000  0.18181
      28     H     0.40851  0.40851  0.00000  0.18298
      29     H     0.40913  0.40913  0.00000  0.18175

   Total alpha = 44.00000, Total beta = 44.00000, Total charge = -0.00000
