                              Psi4 1.0.54 Driver

  ==> Input File <==

--------------------------------------------------------------------------
set {
	reference rhf
	basis cc-pvtz
}

set_num_threads( 4 )
memory 2 gb

molecule MOL {
0 1

H	 2.614283	 2.028610	 0.296620
O	 3.358864	 1.662087	 -0.142800
C	 3.565468	 0.338079	 0.273842
C	 2.533667	 -0.637565	 -0.272227
H	 4.548038	 0.064914	 -0.086598
H	 3.593945	 0.282242	 1.360360
C	 1.114816	 -0.402372	 0.240993
H	 2.544552	 -0.580764	 -1.356576
H	 2.850574	 -1.642962	 -0.005497
C	 0.113298	 -1.420414	 -0.302504
H	 0.796373	 0.598427	 -0.031033
H	 1.113377	 -0.446476	 1.328807
C	 -0.620744	 -0.989704	 -1.573695
H	 0.625213	 -2.362074	 -0.485386
H	 -0.625187	 -1.623167	 0.468211
C	 0.257621	 -0.867410	 -2.817585
H	 -1.406175	 -1.712862	 -1.775359
H	 -1.123275	 -0.041942	 -1.393788
C	 -0.535498	 -0.532934	 -4.078338
H	 0.793955	 -1.801507	 -2.970154
H	 1.014214	 -0.103255	 -2.667132
C	 0.338896	 -0.406405	 -5.321447
H	 -1.286835	 -1.300246	 -4.243576
H	 -1.078637	 0.395717	 -3.924491
H	 0.871338	 -1.330460	 -5.521107
H	 -0.254875	 -0.171534	 -6.197449
H	 1.077438	 0.379592	 -5.202631

	symmetry c1
}
set optking {
	frozen_dihedral = ("
		14 10 7 4
	")
}

ee,wfn = optimize('scf', return_wfn=True)
oeprop( wfn, 'DIPOLE', 'QUADRUPOLE', 'MULLIKEN_CHARGES')
f=open( 'psi4out.xyz', 'w' )
f.write( "27  " )
f.write( str(ee) + "\n" )
f.write( MOL.save_string_xyz() )
f.close()
--------------------------------------------------------------------------

    Molecular point group: c1
  Charge       = 0
  Multiplicity = 1
  Basis Set: CC-PVTZ
  Basis Set:
  @DF-RHF Final Energy:  -388.42231004742388
    Total Energy =                       -388.4223100474238208
    Molecular point group: c1
  Basis Set: CC-PVTZ
  Basis Set:
  Basis Set: CC-PVTZ
  Basis Set:
  @DF-RHF Final Energy:  -388.42260667041126
    Total Energy =                       -388.4226066704114828
  Basis Set: CC-PVTZ
  Basis Set:
  Basis Set: CC-PVTZ
  Basis Set:
  @DF-RHF Final Energy:  -388.42329672571236
    Total Energy =                       -388.4232967257117934
  Basis Set: CC-PVTZ
  Basis Set:
  Basis Set: CC-PVTZ
  Basis Set:
  @DF-RHF Final Energy:  -388.42320990563599
    Total Energy =                       -388.4232099056360994
  Basis Set: CC-PVTZ
  Basis Set:
  Basis Set: CC-PVTZ
  Basis Set:
  @DF-RHF Final Energy:  -388.42333920042489
    Total Energy =                       -388.4233392004255165
  Basis Set: CC-PVTZ
  Basis Set:
  Basis Set: CC-PVTZ
  Basis Set:
  @DF-RHF Final Energy:  -388.42334143618945
    Total Energy =                       -388.4233414361895029
  Basis Set: CC-PVTZ
  Basis Set:
  Charge       = 0
  Multiplicity = 1
  Basis Set: CC-PVTZ
  Basis Set:

    Orbital Energies (a.u.)
    -----------------------

    Doubly Occupied:

       1A    -20.545517     2A    -11.264732     3A    -11.217724
       4A    -11.214836     5A    -11.212352     6A    -11.212290
       7A    -11.211711     8A    -11.209410     9A    -11.204773
      10A     -1.363231    11A     -1.094139    12A     -1.059682
      13A     -1.010704    14A     -0.949586    15A     -0.888627
      16A     -0.825291    17A     -0.794502    18A     -0.776862
      19A     -0.697098    20A     -0.648305    21A     -0.633315
      22A     -0.616535    23A     -0.611047    24A     -0.583541
      25A     -0.571080    26A     -0.553156    27A     -0.545844
      28A     -0.522906    29A     -0.510010    30A     -0.498288
      31A     -0.483565    32A     -0.471743    33A     -0.466860
      34A     -0.458839    35A     -0.454747    36A     -0.436366
      37A     -0.424867

  @DF-RHF Final Energy:  -388.42334207399375

   => Energetics <=

    Nuclear Repulsion Energy =            471.3739017779383289
    One-Electron Energy =               -1461.1063248641605696
    Two-Electron Energy =                 601.3090810122287166
    DFT Exchange-Correlation Energy =       0.0000000000000000
    Empirical Dispersion Energy =           0.0000000000000000
    PCM Polarization Energy =               0.0000000000000000
    EFP Energy =                            0.0000000000000000
    Total Energy =                       -388.4233420739935809
    Molecular point group: c1
  Basis Set: CC-PVTZ
  Basis Set:

  -Total Gradient:
     Atom            X                  Y                   Z
    ------   -----------------  -----------------  -----------------
       1       -0.000003006218    -0.000018023503     0.000010716791
       2        0.000036703009    -0.000017117539    -0.000002417654
       3       -0.000024899602     0.000009026878     0.000001073727
       4       -0.000015812629     0.000066814366    -0.000070008106
       5        0.000000053701     0.000028339942    -0.000009633470
       6        0.000002673040     0.000007656289    -0.000001136064
       7        0.000026506989    -0.000084960996     0.000155046152
       8       -0.000010757787    -0.000002302780     0.000007915066
       9       -0.000000898363    -0.000000737111     0.000000840000
      10        0.000004476814     0.000085846232    -0.000214396610
      11        0.000014521284     0.000012440760     0.000007130141
      12        0.000018545821     0.000001306916    -0.000008428174
      13        0.000010152853    -0.000035394682     0.000007611665
      14       -0.000054214823    -0.000033167715     0.000122809049
      15       -0.000014285067    -0.000019429975    -0.000005494459
      16        0.000006019665    -0.000003243408    -0.000001563885
      17       -0.000009363148     0.000001583721    -0.000004048099
      18        0.000013940872    -0.000002393249     0.000022048325
      19        0.000018570510     0.000008495411    -0.000001827259
      20        0.000001646777     0.000014304629    -0.000004596984
      21       -0.000014908153    -0.000005700726    -0.000008482840
      22       -0.000014471415    -0.000013890625    -0.000011169066
      23       -0.000004922067    -0.000005759482    -0.000001600187
      24       -0.000003810361     0.000008196687     0.000013014979
      25        0.000011050008    -0.000006246009    -0.000007432912
      26        0.000005905721    -0.000002057834     0.000001223768
      27        0.000000582565     0.000006413804     0.000002806110

  **** Optimization is complete! (in 7 steps) ****
    Final optimized geometry and variables:
    Molecular point group: c1

    Geometry (in Angstrom), charge = 0, multiplicity = 1:

    H            1.439359990800     2.376148535868     1.742671544625
    O            2.210717529253     1.983818817931     1.378532222369
    C            2.391971217002     0.693251809205     1.900150136217
    C            1.403910881372    -0.324636664667     1.350445466983
    H            3.398223255240     0.404103730954     1.628458913379
    H            2.344816510159     0.713465569794     2.987228471883
    C           -0.042977942258    -0.078268276902     1.780438157454
    H            1.488589970948    -0.334305967476     0.270975641217
    H            1.709449611132    -1.308507820185     1.698263094146
    C           -1.063315498940    -1.091720950633     1.233102578801
    H           -0.352589359230     0.922515266381     1.490745728676
    H           -0.075330168449    -0.102070505396     2.866303642981
    C           -1.783256813337    -0.692266962249    -0.058452295281
    H           -0.577607613340    -2.054344556683     1.095351475608
    H           -1.826855262235    -1.251107218538     1.987378297830
    C           -0.907785882307    -0.526349040094    -1.298546293055
    H           -2.537192036048    -1.446965356573    -0.266388828719
    H           -2.327037124587     0.233325158694     0.116711536630
    C           -1.719015791452    -0.254568623390    -2.562995769370
    H           -0.311021145638    -1.424023782423    -1.443845256037
    H           -0.206022230778     0.288423037495    -1.152279199388
    C           -0.851843639745    -0.075068065941    -3.804613750006
    H           -2.415754186972    -1.072414162785    -2.725506696071
    H           -2.324679673854     0.635683930262    -2.415634997258
    H           -0.257697351463    -0.962054234090    -3.998458228237
    H           -1.457793036289     0.114766239426    -4.683193219196
    H           -0.168455812764     0.759321349490    -3.687501525235

  Mulliken Charges: (a.u.)
   Center  Symbol    Alpha    Beta     Spin     Total
       1     H     0.39266  0.39266  0.00000  0.21469
       2     O     4.20568  4.20568  0.00000 -0.41137
       3     C     2.98138  2.98138  0.00000  0.03725
       4     C     3.09090  3.09090  0.00000 -0.18179
       5     H     0.44784  0.44784  0.00000  0.10432
       6     H     0.46836  0.46836  0.00000  0.06328
       7     C     3.11470  3.11470  0.00000 -0.22939
       8     H     0.44739  0.44739  0.00000  0.10522
       9     H     0.45421  0.45421  0.00000  0.09159
      10     C     3.10397  3.10397  0.00000 -0.20793
      11     H     0.45665  0.45665  0.00000  0.08669
      12     H     0.44439  0.44439  0.00000  0.11122
      13     C     3.09371  3.09371  0.00000 -0.18741
      14     H     0.45352  0.45352  0.00000  0.09296
      15     H     0.44290  0.44290  0.00000  0.11421
      16     C     3.09567  3.09567  0.00000 -0.19134
      17     H     0.44869  0.44869  0.00000  0.10262
      18     H     0.45406  0.45406  0.00000  0.09188
      19     C     3.08377  3.08377  0.00000 -0.16755
      20     H     0.45298  0.45298  0.00000  0.09404
      21     H     0.44880  0.44880  0.00000  0.10240
      22     C     3.15060  3.15060  0.00000 -0.30121
      23     H     0.45443  0.45443  0.00000  0.09115
      24     H     0.45501  0.45501  0.00000  0.08997
      25     H     0.45531  0.45531  0.00000  0.08937
      26     H     0.44854  0.44854  0.00000  0.10292
      27     H     0.45389  0.45389  0.00000  0.09222

   Total alpha = 37.00000, Total beta = 37.00000, Total charge = -0.00000

*** Psi4 exiting successfully. Buy a developer a beer!
