  ==> Input File <==

--------------------------------------------------------------------------
set {
	reference rhf
	basis 6-31G*
}

set_num_threads( 4 )
memory 2 gb

molecule MOL {
0 1

O	 3.101464	 0.808911	 -0.877269
C	 2.701189	 0.057885	 -0.047330
C	 1.421534	 0.214500	 0.738000
O	 3.347903	 -1.046386	 0.304773
C	 0.634306	 1.466870	 0.358584
H	 0.842905	 -0.690885	 0.587474
H	 1.688375	 0.224482	 1.791752
C	 -0.613093	 1.695932	 1.218829
H	 0.353488	 1.410323	 -0.688823
H	 1.289344	 2.326860	 0.446694
C	 -1.714818	 0.645687	 1.050609
H	 -1.021812	 2.671596	 0.966338
H	 -0.324948	 1.752177	 2.267551
C	 -2.979534	 0.977626	 1.845159
H	 -1.966439	 0.557211	 -0.005174
H	 -1.351583	 -0.331393	 1.361006
C	 -4.085424	 -0.067686	 1.688756
H	 -3.357347	 1.949025	 1.530715
H	 -2.726671	 1.076816	 2.899636
C	 -5.346287	 0.273197	 2.482306
H	 -4.338622	 -0.168792	 0.635517
H	 -3.711034	 -1.038531	 2.006675
H	 -6.111254	 -0.485931	 2.351318
H	 -5.765339	 1.223366	 2.163292
H	 -5.132688	 0.347507	 3.544910
C	 4.728119	 -1.109107	 -0.004993
H	 4.882018	 -1.033965	 -1.071845
H	 5.068212	 -2.067527	 0.355250
H	 5.265056	 -0.311663	 0.488280

	symmetry c1
}
set optking {
	frozen_dihedral = ("
		1 2 4 26
	")
}

ee = optimize('scf')
oeprop('DIPOLE', 'QUADRUPOLE', 'MULLIKEN_CHARGES')
f=open( 'psi4out.xyz', 'w' )
f.write( "29  " )
f.write( str(ee) + "\n" )
f.write( MOL.save_string_xyz() )
f.close()
--------------------------------------------------------------------------

    Molecular point group: c1
  Charge       = 0
  Multiplicity = 1
  Basis Set: 6-31G*
  Basis Set:
  @DF-RHF Final Energy:  -501.04162261160116
    Total Energy =                       -501.0416226116013831
    Molecular point group: c1
  Basis Set: 6-31G*
  Basis Set:
  Basis Set: 6-31G*
  Basis Set:
  @DF-RHF Final Energy:  -501.03823180407949
    Total Energy =                       -501.0382318040789187
  Basis Set: 6-31G*
  Basis Set:
  Basis Set: 6-31G*
  Basis Set:
  @DF-RHF Final Energy:  -501.04185017129726
    Total Energy =                       -501.0418501712974830
  Basis Set: 6-31G*
  Basis Set:
  Basis Set: 6-31G*
  Basis Set:
  @DF-RHF Final Energy:  -501.04190083521712
    Total Energy =                       -501.0419008352172341
  Basis Set: 6-31G*
  Basis Set:
  Basis Set: 6-31G*
  Basis Set:
  @DF-RHF Final Energy:  -501.04190561094083
    Total Energy =                       -501.0419056109410576
  Basis Set: 6-31G*
  Basis Set:
  Basis Set: 6-31G*
  Basis Set:
  @DF-RHF Final Energy:  -501.04190176574957
    Total Energy =                       -501.0419017657504810
  Basis Set: 6-31G*
  Basis Set:
  Basis Set: 6-31G*
  Basis Set:
  @DF-RHF Final Energy:  -501.04190973670131
    Total Energy =                       -501.0419097367012000
  Basis Set: 6-31G*
  Basis Set:
  Charge       = 0
  Multiplicity = 1
  Basis Set: 6-31G*
  Basis Set:

    Orbital Energies (a.u.)
    -----------------------

    Doubly Occupied:

       1A    -20.601434     2A    -20.546223     3A    -11.372323
       4A    -11.281691     5A    -11.234867     6A    -11.219123
       7A    -11.217703     8A    -11.215926     9A    -11.215777
      10A    -11.214420    11A    -11.209019    12A     -1.467714
      13A     -1.362854    14A     -1.098052    15A     -1.066693
      16A     -1.019102    17A     -0.977041    18A     -0.929039
      19A     -0.861838    20A     -0.799432    21A     -0.790555
      22A     -0.763600    23A     -0.700403    24A     -0.680985
      25A     -0.672479    26A     -0.650634    27A     -0.628567
      28A     -0.605809    29A     -0.594597    30A     -0.582132
      31A     -0.565621    32A     -0.551602    33A     -0.531841
      34A     -0.530016    35A     -0.517638    36A     -0.510925
      37A     -0.495270    38A     -0.477772    39A     -0.470528
      40A     -0.462432    41A     -0.458971    42A     -0.455149
      43A     -0.440959    44A     -0.434894

  @DF-RHF Final Energy:  -501.04190970921650

   => Energetics <=

    Nuclear Repulsion Energy =            610.0493331818427123
    One-Electron Energy =               -1891.2151851763305785
    Two-Electron Energy =                 780.1239422852712551
    DFT Exchange-Correlation Energy =       0.0000000000000000
    Empirical Dispersion Energy =           0.0000000000000000
    PCM Polarization Energy =               0.0000000000000000
    EFP Energy =                            0.0000000000000000
    Total Energy =                       -501.0419097092166112
    Molecular point group: c1
  Basis Set: 6-31G*
  Basis Set:

  -Total Gradient:
     Atom            X                  Y                   Z
    ------   -----------------  -----------------  -----------------
       1       -0.003582076067    -0.003148136117    -0.004863569596
       2        0.006146534555     0.005584723816     0.009737011311
       3       -0.000082275283    -0.000075679061    -0.000151318608
       4       -0.003754654227    -0.004136523529    -0.009351245201
       5       -0.000006473546    -0.000010192580     0.000011824022
       6       -0.000015872281    -0.000012828012    -0.000007639641
       7       -0.000014920492    -0.000018763991    -0.000012640590
       8       -0.000007556904     0.000001967507    -0.000009842591
       9        0.000002885849    -0.000004345547     0.000007302354
      10       -0.000004674277     0.000006926003    -0.000001972001
      11       -0.000000237409     0.000001514425     0.000006511492
      12       -0.000005521968     0.000003270511     0.000005758502
      13        0.000006480533    -0.000007739869    -0.000005262321
      14       -0.000002276354     0.000003191500    -0.000004915881
      15        0.000004110115    -0.000001196358    -0.000000649965
      16       -0.000003252804     0.000002921684     0.000003093463
      17       -0.000000304362     0.000000429629     0.000001060922
      18       -0.000001174987     0.000001597541     0.000001584238
      19        0.000000757192    -0.000001610614    -0.000001516224
      20       -0.000001016739    -0.000000010159    -0.000001389899
      21       -0.000000060145    -0.000000447423     0.000000395583
      22        0.000000186834    -0.000000158957     0.000000577060
      23       -0.000000652623     0.000000235960    -0.000000225312
      24        0.000000170837     0.000000311431     0.000000446491
      25        0.000000188454    -0.000000545653    -0.000000197852
      26        0.001312136704     0.001845476181     0.004731698395
      27       -0.000019812451     0.000003797356    -0.000029404775
      28        0.000000536094    -0.000014387508    -0.000020025802
      29        0.000028825736    -0.000023798166    -0.000045447569

  **** Optimization is complete! (in 8 steps) ****
    Final optimized geometry and variables:
    Molecular point group: c1

    Geometry (in Angstrom), charge = 0, multiplicity = 1:

    O            3.002995839165     0.534729998922    -1.581149438768
    C            2.576296782636    -0.239189253741    -0.787109531030
    C            1.284389226185    -0.090581154562    -0.021082732719
    O            3.169576927951    -1.396737802223    -0.510529271381
    C            0.482904841406     1.144243044801    -0.426806378166
    H            0.722618699352    -1.007608843619    -0.162324802072
    H            1.539918147266    -0.059451384151     1.035688819990
    C           -0.774752852550     1.369758086059     0.419259729028
    H            0.211161618146     1.066142392058    -1.475427370645
    H            1.125232403272     2.014476987183    -0.348087573810
    C           -1.859998775216     0.301147493957     0.259875064668
    H           -1.195141856095     2.335183980081     0.147313966107
    H           -0.495996427690     1.447500077671     1.469182425813
    C           -3.136149857321     0.628491517757     1.037877713340
    H           -2.101127911919     0.191059725732    -0.796303810522
    H           -1.485601944557    -0.665184786379     0.589978833717
    C           -4.225690453970    -0.435090929644     0.890186347720
    H           -3.524969025290     1.588856581440     0.703577293934
    H           -2.893904443311     0.749335851856     2.092597399193
    C           -5.497979138929    -0.098979379744     1.667375047248
    H           -4.468452788272    -0.557627646685    -0.163221623680
    H           -3.840242649491    -1.394940191053     1.227654656952
    H           -6.250911662114    -0.871145327580     1.543030338094
    H           -5.927791906370     0.839528053014     1.328761176690
    H           -5.294510118655    -0.003623446918     2.730291729640
    C            4.539075053968    -1.515002149307    -0.851169861221
    H            4.672962166111    -1.481210942211    -1.922490910572
    H            4.859104199207    -2.470310859777    -0.465187640827
    H            5.111266537764    -0.718649581768    -0.395542058903

  Mulliken Charges: (a.u.)
   Center  Symbol    Alpha    Beta     Spin     Total
       1     O     4.28299  4.28299  0.00000 -0.56598
       2     C     2.60463  2.60463  0.00000  0.79074
       3     C     3.21090  3.21090  0.00000 -0.42180
       4     O     4.30842  4.30842  0.00000 -0.61684
       5     C     3.15401  3.15401  0.00000 -0.30802
       6     H     0.39755  0.39755  0.00000  0.20491
       7     H     0.40272  0.40272  0.00000  0.19456
       8     C     3.15662  3.15662  0.00000 -0.31325
       9     H     0.41347  0.41347  0.00000  0.17305
      10     H     0.40812  0.40812  0.00000  0.18376
      11     C     3.15505  3.15505  0.00000 -0.31010
      12     H     0.41822  0.41822  0.00000  0.16357
      13     H     0.42406  0.42406  0.00000  0.15188
      14     C     3.15030  3.15030  0.00000 -0.30059
      15     H     0.42251  0.42251  0.00000  0.15498
      16     H     0.42350  0.42350  0.00000  0.15301
      17     C     3.15146  3.15146  0.00000 -0.30292
      18     H     0.42334  0.42334  0.00000  0.15333
      19     H     0.42407  0.42407  0.00000  0.15186
      20     C     3.23935  3.23935  0.00000 -0.47870
      21     H     0.42274  0.42274  0.00000  0.15452
      22     H     0.42339  0.42339  0.00000  0.15321
      23     H     0.41921  0.41921  0.00000  0.16158
      24     H     0.42156  0.42156  0.00000  0.15689
      25     H     0.42188  0.42188  0.00000  0.15625
      26     C     3.09272  3.09272  0.00000 -0.18544
      27     H     0.40635  0.40635  0.00000  0.18730
      28     H     0.40808  0.40808  0.00000  0.18384
      29     H     0.41281  0.41281  0.00000  0.17439

   Total alpha = 44.00000, Total beta = 44.00000, Total charge =  0.00000
