                              Psi4 1.0.54 Driver

  ==> Input File <==

--------------------------------------------------------------------------
set {
	reference rhf
	basis cc-pvtz
}

set_num_threads( 4 )
memory 2 gb

molecule MOL {
0 1

H	 -1.770843	 0.880546	 2.501007
O	 -1.386092	 1.670581	 2.168273
C	 -0.727207	 1.416297	 0.959410
C	 0.570154	 0.664296	 1.181095
H	 -1.356458	 0.860953	 0.271104
H	 -0.514758	 2.374928	 0.508216
O	 1.172093	 0.457955	 -0.054438
H	 0.368447	 -0.289061	 1.672338
H	 1.216273	 1.240519	 1.839936
C	 2.395478	 -0.199028	 -0.000366
H	 2.505946	 -0.901710	 -0.823354
H	 3.174616	 0.545641	 -0.071768
H	 2.513730	 -0.742241	 0.934223

	symmetry c1
}
set optking {
	frozen_dihedral = ("
		4 7 10 13
	")
}

ee,wfn = optimize('scf', return_wfn=True)
oeprop( wfn, 'DIPOLE', 'QUADRUPOLE', 'MULLIKEN_CHARGES')
f=open( 'psi4out.xyz', 'w' )
f.write( "13  " )
f.write( str(ee) + "\n" )
f.write( MOL.save_string_xyz() )
f.close()
--------------------------------------------------------------------------

    Molecular point group: c1
  Charge       = 0
  Multiplicity = 1
  Basis Set: CC-PVTZ
  Basis Set:
  @DF-RHF Final Energy:  -268.05891950797820
    Total Energy =                       -268.0589195079779756
    Molecular point group: c1
  Basis Set: CC-PVTZ
  Basis Set:
  Basis Set: CC-PVTZ
  Basis Set:
  @DF-RHF Final Energy:  -268.05945650507584
    Total Energy =                       -268.0594565050757296
  Basis Set: CC-PVTZ
  Basis Set:
  Basis Set: CC-PVTZ
  Basis Set:
  @DF-RHF Final Energy:  -268.05957895101307
    Total Energy =                       -268.0595789510134637
  Basis Set: CC-PVTZ
  Basis Set:
  Charge       = 0
  Multiplicity = 1
  Basis Set: CC-PVTZ
  Basis Set:

    Orbital Energies (a.u.)
    -----------------------

    Doubly Occupied:

       1A    -20.553317     2A    -20.552608     3A    -11.269648
       4A    -11.267466     5A    -11.267046     6A     -1.388673
       7A     -1.368602     8A     -1.019462     9A     -0.914180
      10A     -0.842647    11A     -0.711159    12A     -0.674335
      13A     -0.661734    14A     -0.637936    15A     -0.598547
      16A     -0.568935    17A     -0.550898    18A     -0.490646
      19A     -0.483926    20A     -0.441305    21A     -0.420168

  @DF-RHF Final Energy:  -268.05957995703704

   => Energetics <=

    Nuclear Repulsion Energy =            190.2584606576623685
    One-Electron Energy =                -743.2696080043865550
    Two-Electron Energy =                 284.9515673896872272
    DFT Exchange-Correlation Energy =       0.0000000000000000
    Empirical Dispersion Energy =           0.0000000000000000
    PCM Polarization Energy =               0.0000000000000000
    EFP Energy =                            0.0000000000000000
    Total Energy =                       -268.0595799570369877
    Molecular point group: c1
  Basis Set: CC-PVTZ
  Basis Set:

  -Total Gradient:
     Atom            X                  Y                   Z
    ------   -----------------  -----------------  -----------------
       1        0.000004494136    -0.000001912059    -0.000006159820
       2        0.000020973521     0.000016098393     0.000013919408
       3       -0.000002352284    -0.000010648970    -0.000036380038
       4       -0.000985587105    -0.001783761606    -0.000122497953
       5        0.000016045731     0.000002388650    -0.000006469834
       6       -0.000018242068     0.000015029051     0.000001133656
       7        0.001744795065     0.002954661576     0.000568124646
       8        0.000000416121     0.000006489332     0.000015404804
       9        0.000017855962    -0.000011411530    -0.000055146902
      10       -0.001754729314    -0.003113538601    -0.001440496527
      11       -0.000045536565     0.000009855355     0.000006097861
      12        0.000015609944    -0.000001339630    -0.000008976483
      13        0.000986256860     0.001918090041     0.001071447183

  **** Optimization is complete! (in 4 steps) ****
    Final optimized geometry and variables:
    Molecular point group: c1

    Geometry (in Angstrom), charge = 0, multiplicity = 1:

    H           -2.211759503483     0.108044851450     1.563430689094
    O           -1.799614374592     0.894297364872     1.255474446556
    C           -1.105139348125     0.642448839710     0.066010207718
    C            0.168248087739    -0.139017130927     0.321331848559
    H           -1.721189415794     0.108806592970    -0.650838743302
    H           -0.858591929277     1.602318741051    -0.364720128474
    O            0.801772498356    -0.344711474103    -0.899274512793
    H           -0.069632048768    -1.092602314196     0.793980510394
    H            0.801801585581     0.418153380893     1.007999194439
    C            2.016396345762    -1.027311779098    -0.847797671091
    H            2.073261289592    -1.704969149046    -1.688746185096
    H            2.847870454940    -0.330910851165    -0.904093406858
    H            2.121232144311    -1.593417915069     0.072402755103

  Mulliken Charges: (a.u.)
   Center  Symbol    Alpha    Beta     Spin     Total
       1     H     0.39414  0.39414  0.00000  0.21172
       2     O     4.20212  4.20212  0.00000 -0.40425
       3     C     2.97493  2.97493  0.00000  0.05014
       4     C     2.96486  2.96486  0.00000  0.07029
       5     H     0.46718  0.46718  0.00000  0.06564
       6     H     0.45265  0.45265  0.00000  0.09470
       7     O     4.17926  4.17926  0.00000 -0.35852
       8     H     0.48111  0.48111  0.00000  0.03778
       9     H     0.47019  0.47019  0.00000  0.05962
      10     C     3.02819  3.02819  0.00000 -0.05639
      11     H     0.45204  0.45204  0.00000  0.09592
      12     H     0.46110  0.46110  0.00000  0.07779
      13     H     0.47222  0.47222  0.00000  0.05556

   Total alpha = 21.00000, Total beta = 21.00000, Total charge = -0.00000

*** Psi4 exiting successfully. Buy a developer a beer!
