  ==> Input File <==

--------------------------------------------------------------------------
set {
	reference rhf
	basis 6-31G*
}

set_num_threads( 4 )
memory 2 gb

molecule MOL {
0 1

H	 -2.435962	 1.646975	 -1.593494
C	 -1.699077	 1.011791	 -1.141605
C	 -2.076860	 -0.007332	 -0.404944
H	 -0.661113	 1.231059	 -1.307324
O	 -1.180634	 -0.819263	 0.215062
H	 -3.111031	 -0.248160	 -0.232644
C	 0.051604	 -1.018856	 -0.387932
C	 1.043764	 0.054862	 -0.001873
H	 -0.017620	 -1.041351	 -1.469781
H	 0.437898	 -1.966374	 -0.042284
F	 2.212596	 -0.199467	 -0.571921
F	 0.652529	 1.252447	 -0.405055
F	 1.230877	 0.110694	 1.300533

	symmetry c1
}
set optking {
	frozen_dihedral = ("
		6 3 5 7
	")
}

ee = optimize('scf')
oeprop('DIPOLE', 'QUADRUPOLE', 'MULLIKEN_CHARGES')
f=open( 'psi4out.xyz', 'w' )
f.write( "13  " )
f.write( str(ee) + "\n" )
f.write( MOL.save_string_xyz() )
f.close()
--------------------------------------------------------------------------

    Molecular point group: c1
  Charge       = 0
  Multiplicity = 1
  Basis Set: 6-31G*
  Basis Set:
  @DF-RHF Final Energy:  -527.50747741591681
    Total Energy =                       -527.5074774159168101
    Molecular point group: c1
  Basis Set: 6-31G*
  Basis Set:
  Basis Set: 6-31G*
  Basis Set:
  @DF-RHF Final Energy:  -527.52538504395375
    Total Energy =                       -527.5253850439539747
  Basis Set: 6-31G*
  Basis Set:
  Basis Set: 6-31G*
  Basis Set:
  @DF-RHF Final Energy:  -527.53100884931519
    Total Energy =                       -527.5310088493154126
  Basis Set: 6-31G*
  Basis Set:
  Basis Set: 6-31G*
  Basis Set:
  @DF-RHF Final Energy:  -527.53292460627995
    Total Energy =                       -527.5329246062806305
  Basis Set: 6-31G*
  Basis Set:
  @DF-RHF Final Energy:  -527.53400996566324
    Total Energy =                       -527.5340099656634720
  @DF-RHF Final Energy:  -527.53460631587211
    Total Energy =                       -527.5346063158718835
  @DF-RHF Final Energy:  -527.53479207425949
    Total Energy =                       -527.5347920742597125
  Basis Set: 6-31G*
  Basis Set:
  @DF-RHF Final Energy:  -527.53483257543348
    Total Energy =                       -527.5348325754334837
  Basis Set: 6-31G*
  Basis Set:
  Basis Set: 6-31G*
  Basis Set:
  @DF-RHF Final Energy:  -527.53484091476162
    Total Energy =                       -527.5348409147616167
  Basis Set: 6-31G*
  Basis Set:
  Basis Set: 6-31G*
  Basis Set:
  @DF-RHF Final Energy:  -527.53484349881228
    Total Energy =                       -527.5348434988122790
  Basis Set: 6-31G*
  Basis Set:
  Charge       = 0
  Multiplicity = 1
  Basis Set: 6-31G*
  Basis Set:

    Orbital Energies (a.u.)
    -----------------------

    Doubly Occupied:

       1A    -26.342160     2A    -26.341568     3A    -26.338180
       4A    -20.607967     5A    -11.501394     6A    -11.315687
       7A    -11.302685     8A    -11.221919     9A     -1.739567
      10A     -1.637486    11A     -1.635873    12A     -1.435660
      13A     -1.080048    14A     -1.023135    15A     -0.930899
      16A     -0.836358    17A     -0.829421    18A     -0.820127
      19A     -0.774663    20A     -0.728795    21A     -0.707917
      22A     -0.698411    23A     -0.675253    24A     -0.658029
      25A     -0.654724    26A     -0.640797    27A     -0.625975
      28A     -0.606341    29A     -0.547949    30A     -0.533372
      31A     -0.498579    32A     -0.360975

  @DF-RHF Final Energy:  -527.53484392463110

   => Energetics <=

    Nuclear Repulsion Energy =            417.4618606943427608
    One-Electron Energy =               -1558.6895814071194764
    Two-Electron Energy =                 613.6928767881454405
    DFT Exchange-Correlation Energy =       0.0000000000000000
    Empirical Dispersion Energy =           0.0000000000000000
    PCM Polarization Energy =               0.0000000000000000
    EFP Energy =                            0.0000000000000000
    Total Energy =                       -527.5348439246313319
    Molecular point group: c1
  Basis Set: 6-31G*
  Basis Set:

  -Total Gradient:
     Atom            X                  Y                   Z
    ------   -----------------  -----------------  -----------------
       1        0.000004498806    -0.000000720311    -0.000009238601
       2       -0.000016518724    -0.000024360876     0.000016652974
       3       -0.000290684088     0.001174749873     0.001640557400
       4        0.000006965132     0.000007046828     0.000000492583
       5        0.001079231799     0.001983855135     0.000601337409
       6       -0.000082033578    -0.001559674939    -0.001578187536
       7       -0.000717372101    -0.001580430418    -0.000686492703
       8       -0.000018158723    -0.000003305133     0.000028500545
       9        0.000000069563     0.000000745302    -0.000000215704
      10        0.000002609635     0.000007041470     0.000006502991
      11        0.000013274133     0.000003775161    -0.000028447863
      12        0.000024797072    -0.000019538923    -0.000000089998
      13       -0.000006678915     0.000010816830     0.000008628503

  **** Optimization is complete! (in 11 steps) ****
    Final optimized geometry and variables:
    Molecular point group: c1

    Geometry (in Angstrom), charge = 0, multiplicity = 1:

    H           -3.064429559587     1.410394513098    -1.698433945099
    C           -2.189329522604     0.957376121214    -1.273902262783
    C           -2.338486274978     0.041069523323    -0.340946647035
    H           -1.235512250868     1.297325480141    -1.627318271030
    O           -1.374669152964    -0.663759899593     0.303709553282
    H           -3.307039374234    -0.261767836206     0.008504543171
    C           -0.165026095398    -0.946798555008    -0.321035855827
    C            0.947377400558    -0.070489490335     0.206826405747
    H           -0.222371962098    -0.829492073627    -1.394408862798
    H            0.097071700941    -1.969397580680    -0.087469400974
    F            2.087422806551    -0.416822396314    -0.374906664389
    F            0.744771992893     1.211171954819    -0.042865555730
    F            1.101087148304    -0.204900495654     1.508788709852

  Mulliken Charges: (a.u.)
   Center  Symbol    Alpha    Beta     Spin     Total
       1     H     0.40459  0.40459  0.00000  0.19081
       2     C     3.23968  3.23968  0.00000 -0.47936
       3     C     2.90096  2.90096  0.00000  0.19807
       4     H     0.40212  0.40212  0.00000  0.19576
       5     O     4.30864  4.30864  0.00000 -0.61727
       6     H     0.39898  0.39898  0.00000  0.20205
       7     C     3.05694  3.05694  0.00000 -0.11387
       8     C     2.45668  2.45668  0.00000  1.08664
       9     H     0.40102  0.40102  0.00000  0.19796
      10     H     0.39369  0.39369  0.00000  0.21262
      11     F     4.68364  4.68364  0.00000 -0.36727
      12     F     4.67741  4.67741  0.00000 -0.35482
      13     F     4.67566  4.67566  0.00000 -0.35133

   Total alpha = 32.00000, Total beta = 32.00000, Total charge =  0.00000
