  ==> Input File <==

--------------------------------------------------------------------------
set {
	reference rhf
	basis 6-31G*
}

set_num_threads( 1 )
memory 2 gb

molecule MOL {
0 1

O	 -2.879936	 1.189972	 -0.496190
C	 -2.668563	 0.129746	 -0.000350
C	 -3.719645	 -0.696522	 0.695190
O	 -1.481751	 -0.454642	 0.000584
H	 -4.521545	 -0.899944	 -0.004409
H	 -3.317540	 -1.624948	 1.073046
H	 -4.135242	 -0.116240	 1.510318
C	 -0.334255	 0.388708	 0.000906
C	 0.891947	 -0.504646	 0.000751
H	 -0.365390	 1.025305	 -0.873475
H	 -0.365484	 1.024911	 0.875569
C	 2.191998	 0.301789	 0.000897
H	 0.855148	 -1.151283	 -0.871571
H	 0.855132	 -1.151660	 0.872805
C	 3.441114	 -0.581407	 0.000108
H	 2.215074	 0.954890	 -0.869742
H	 2.215465	 0.953923	 0.872248
C	 4.739576	 0.224112	 -0.001102
H	 3.419457	 -1.233487	 -0.870178
H	 3.420834	 -1.233096	 0.870717
H	 4.804918	 0.861552	 -0.878265
H	 5.606527	 -0.429058	 -0.001824
H	 4.806469	 0.861674	 0.875853

	symmetry c1
}
set optking {
	frozen_dihedral = ("
		13 9 8 10,
		2 4 8 10,
		16 12 9 13,
		19 15 12 16
	")
}

ee = energy('scf')
oeprop('DIPOLE', 'QUADRUPOLE', 'MULLIKEN_CHARGES')
f=open( 'psi4out.xyz', 'w' )
f.write( "23  " )
f.write( str(ee) + "\n" )
f.write( MOL.save_string_xyz() )
f.close()
--------------------------------------------------------------------------

    Molecular point group: c1

    Geometry (in Angstrom), charge = 0, multiplicity = 1:

       Center              X                  Y                   Z               Mass
    ------------   -----------------  -----------------  -----------------  -----------------
           O         -2.882674794762     1.184371993548    -0.519486909486    15.994914619560
           C         -2.671301794762     0.124145993548    -0.023646909486    12.000000000000
           C         -3.722383794762    -0.702122006452     0.671893090514    12.000000000000
           O         -1.484489794762    -0.460242006452    -0.022712909486    15.994914619560
           H         -4.524283794762    -0.905544006452    -0.027705909486     1.007825032070
           H         -3.320278794762    -1.630548006452     1.049749090514     1.007825032070
           H         -4.137980794762    -0.121840006452     1.487021090514     1.007825032070
           C         -0.336993794762     0.383107993548    -0.022390909486    12.000000000000
           C          0.889208205238    -0.510246006452    -0.022545909486    12.000000000000
           H         -0.368128794762     1.019704993548    -0.896771909486     1.007825032070
           H         -0.368222794762     1.019310993548     0.852272090514     1.007825032070
           C          2.189259205238     0.296188993548    -0.022399909486    12.000000000000
           H          0.852409205238    -1.156883006452    -0.894867909486     1.007825032070
           H          0.852393205238    -1.157260006452     0.849508090514     1.007825032070
           C          3.438375205238    -0.587007006452    -0.023188909486    12.000000000000
           H          2.212335205238     0.949289993548    -0.893038909486     1.007825032070
           H          2.212726205238     0.948322993548     0.848951090514     1.007825032070
           C          4.736837205238     0.218511993548    -0.024398909486    12.000000000000
           H          3.416718205238    -1.239087006452    -0.893474909486     1.007825032070
           H          3.418095205238    -1.238696006452     0.847420090514     1.007825032070
           H          4.802179205238     0.855951993548    -0.901561909486     1.007825032070
           H          5.603788205238    -0.434658006452    -0.025120909486     1.007825032070
           H          4.803730205238     0.856073993548     0.852556090514     1.007825032070

  Charge       = 0
  Multiplicity = 1
  Basis Set: 6-31G*
  Basis Set:

    Orbital Energies (a.u.)
    -----------------------

    Doubly Occupied:

       1A    -20.597679     2A    -20.542350     3A    -11.374377
       4A    -11.283762     5A    -11.232080     6A    -11.225090
       7A    -11.224439     8A    -11.222102     9A    -11.213337
      10A     -1.466314    11A     -1.361094    12A     -1.094619
      13A     -1.041638    14A     -1.003821    15A     -0.931901
      16A     -0.842201    17A     -0.803392    18A     -0.774687
      19A     -0.694971    20A     -0.682935    21A     -0.664863
      22A     -0.647220    23A     -0.608307    24A     -0.588906
      25A     -0.582710    26A     -0.568912    27A     -0.557028
      28A     -0.542966    29A     -0.518279    30A     -0.504829
      31A     -0.491846    32A     -0.478371    33A     -0.471774
      34A     -0.467323    35A     -0.449394    36A     -0.433586

  @DF-RHF Final Energy:  -422.97392078541043

   => Energetics <=

    Nuclear Repulsion Energy =            449.5206233281144250
    One-Electron Energy =               -1466.6110052022420405
    Two-Electron Energy =                 594.1164610887152548
    DFT Exchange-Correlation Energy =       0.0000000000000000
    Empirical Dispersion Energy =           0.0000000000000000
    PCM Polarization Energy =               0.0000000000000000
    EFP Energy =                            0.0000000000000000
    Total Energy =                       -422.9739207854123606

  Mulliken Charges: (a.u.)
   Center  Symbol    Alpha    Beta     Spin     Total
       1     O     4.27900  4.27900  0.00000 -0.55799
       2     C     2.61518  2.61518  0.00000  0.76964
       3     C     3.28979  3.28979  0.00000 -0.57957
       4     O     4.31448  4.31448  0.00000 -0.62895
       5     H     0.39741  0.39741  0.00000  0.20518
       6     H     0.40007  0.40007  0.00000  0.19986
       7     H     0.39764  0.39764  0.00000  0.20472
       8     C     2.99697  2.99697  0.00000  0.00606
       9     C     3.16474  3.16474  0.00000 -0.32947
      10     H     0.40505  0.40505  0.00000  0.18991
      11     H     0.41702  0.41702  0.00000  0.16597
      12     C     3.16028  3.16028  0.00000 -0.32056
      13     H     0.41230  0.41230  0.00000  0.17541
      14     H     0.41495  0.41495  0.00000  0.17011
      15     C     3.15148  3.15148  0.00000 -0.30296
      16     H     0.42003  0.42003  0.00000  0.15995
      17     H     0.42169  0.42169  0.00000  0.15661
      18     C     3.23990  3.23990  0.00000 -0.47979
      19     H     0.42094  0.42094  0.00000  0.15811
      20     H     0.42154  0.42154  0.00000  0.15692
      21     H     0.42060  0.42060  0.00000  0.15879
      22     H     0.41788  0.41788  0.00000  0.16424
      23     H     0.42109  0.42109  0.00000  0.15781

   Total alpha = 36.00000, Total beta = 36.00000, Total charge =  0.00000
