  ==> Input File <==

--------------------------------------------------------------------------
set {
	reference rhf
	basis 6-31G*
}

set_num_threads( 4 )
memory 2 gb

molecule MOL {
0 1

H	 -0.367348	 2.047014	 -0.308205
C	 0.352277	 1.337084	 0.083769
N	 -0.000016	 0.000074	 -0.335546
H	 1.328359	 1.600444	 -0.307950
H	 0.381933	 1.450534	 1.172486
C	 -1.308896	 -0.046931	 -0.946195
C	 1.013050	 -0.584373	 -1.184237
H	 -1.567914	 -1.072879	 -1.182190
H	 -2.051500	 0.334056	 -0.254204
H	 -1.372375	 0.539632	 -1.868582
H	 1.965285	 -0.595869	 -0.666076
H	 0.749090	 -1.609168	 -1.419947
H	 1.146613	 -0.043165	 -2.126671

	symmetry c1
}
set optking {
	frozen_dihedral = ("
		6 3 2 1
	")
}

ee = optimize('scf')
oeprop('DIPOLE', 'QUADRUPOLE', 'MULLIKEN_CHARGES')
f=open( 'psi4out.xyz', 'w' )
f.write( "13  " )
f.write( str(ee) + "\n" )
f.write( MOL.save_string_xyz() )
f.close()
--------------------------------------------------------------------------

    Molecular point group: c1
  Charge       = 0
  Multiplicity = 1
  Basis Set: 6-31G*
  Basis Set:
  @DF-RHF Final Energy:  -173.26161821174938
    Total Energy =                       -173.2616182117493508
    Molecular point group: c1
  Basis Set: 6-31G*
  Basis Set:
  Basis Set: 6-31G*
  Basis Set:
  @DF-RHF Final Energy:  -173.26231497567017
    Total Energy =                       -173.2623149756701650
  Basis Set: 6-31G*
  Basis Set:
  Basis Set: 6-31G*
  Basis Set:
  @DF-RHF Final Energy:  -173.26249318817520
    Total Energy =                       -173.2624931881751706
  Basis Set: 6-31G*
  Basis Set:
  Basis Set: 6-31G*
  Basis Set:
  @DF-RHF Final Energy:  -173.26249614772064
    Total Energy =                       -173.2624961477206114
  Basis Set: 6-31G*
  Basis Set:
  Charge       = 0
  Multiplicity = 1
  Basis Set: 6-31G*
  Basis Set:

    Orbital Energies (a.u.)
    -----------------------

    Doubly Occupied:

       1A    -15.539821     2A    -11.235326     3A    -11.235282
       4A    -11.235263     5A     -1.219030     6A     -0.951118
       7A     -0.950349     8A     -0.806554     9A     -0.636743
      10A     -0.627961    11A     -0.626832    12A     -0.549627
      13A     -0.547418    14A     -0.514352    15A     -0.500104
      16A     -0.499347    17A     -0.339581

  @DF-RHF Final Energy:  -173.26249649600820

   => Energetics <=

    Nuclear Repulsion Energy =            138.7762533801221991
    One-Electron Energy =                -508.0480834802673371
    Two-Electron Energy =                 196.0093336041368559
    DFT Exchange-Correlation Energy =       0.0000000000000000
    Empirical Dispersion Energy =           0.0000000000000000
    PCM Polarization Energy =               0.0000000000000000
    EFP Energy =                            0.0000000000000000
    Total Energy =                       -173.2624964960083105
    Molecular point group: c1
  Basis Set: 6-31G*
  Basis Set:

  -Total Gradient:
     Atom            X                  Y                   Z
    ------   -----------------  -----------------  -----------------
       1       -0.000817884536    -0.000203647533     0.001246546425
       2        0.001235442658     0.000371808036    -0.002006982142
       3       -0.000841013058    -0.000358908229     0.001801377610
       4       -0.000011261626    -0.000016060819     0.000004395044
       5       -0.000006252939     0.000005106899     0.000010544206
       6        0.000409606509     0.000223131091    -0.001039505320
       7        0.000033106612    -0.000013483387    -0.000029371838
       8       -0.000004598823    -0.000002112863    -0.000001451494
       9       -0.000008535667    -0.000001113569    -0.000004347306
      10        0.000016811781    -0.000001664832     0.000012449393
      11        0.000004790166    -0.000003649131    -0.000006002862
      12        0.000002798817    -0.000002855468    -0.000003394437
      13       -0.000013009895     0.000003449803     0.000015742720

  **** Optimization is complete! (in 5 steps) ****
    Final optimized geometry and variables:
    Molecular point group: c1

    Geometry (in Angstrom), charge = 0, multiplicity = 1:

    H           -0.373728226182     1.907921977354     0.360432910151
    C            0.340180513946     1.166072276003     0.708998117231
    N           -0.012693131664    -0.175384605204     0.261886563438
    H            1.318502272684     1.460452924185     0.344305539556
    H            0.360939745729     1.219805445126     1.793832195323
    C           -1.327264606369    -0.247107814455    -0.332888657341
    C            0.996898811317    -0.787722938768    -0.571470703574
    H           -1.579404856382    -1.280471707044    -0.543250384635
    H           -2.067468033341     0.138082395000     0.359353536419
    H           -1.409258886542     0.318922047791    -1.266474026540
    H            1.947180269643    -0.802654521548    -0.050337641255
    H            0.721606494219    -1.814854336712    -0.783430976073
    H            1.141131861059    -0.273019415689    -1.527041935944

  Mulliken Charges: (a.u.)
   Center  Symbol    Alpha    Beta     Spin     Total
       1     H     0.42418  0.42418  0.00000  0.15164
       2     C     3.14422  3.14422  0.00000 -0.28843
       3     N     3.77053  3.77053  0.00000 -0.54106
       4     H     0.42161  0.42161  0.00000  0.15678
       5     H     0.41594  0.41594  0.00000  0.16812
       6     C     3.14185  3.14185  0.00000 -0.28370
       7     C     3.14161  3.14161  0.00000 -0.28322
       8     H     0.41793  0.41793  0.00000  0.16414
       9     H     0.41643  0.41643  0.00000  0.16714
      10     H     0.43552  0.43552  0.00000  0.12897
      11     H     0.41644  0.41644  0.00000  0.16711
      12     H     0.41804  0.41804  0.00000  0.16392
      13     H     0.43570  0.43570  0.00000  0.12860

   Total alpha = 17.00000, Total beta = 17.00000, Total charge =  0.00000
