  ==> Input File <==

--------------------------------------------------------------------------
set {
	reference rhf
	basis 6-31G*
}

set_num_threads( 1 )
memory 2 gb

molecule MOL {
0 1

O	 1.294414	 3.818495	 -1.485068
C	 0.427249	 3.957442	 -2.292209
C	 -0.842503	 3.125537	 -2.267655
C	 0.539595	 4.981992	 -3.402538
C	 -0.899083	 2.110765	 -1.129556
H	 -1.688249	 3.809929	 -2.215598
H	 -0.933486	 2.627749	 -3.232192
C	 -2.191476	 1.292583	 -1.137288
H	 -0.797684	 2.631956	 -0.182874
H	 -0.042230	 1.448276	 -1.200689
C	 -2.259874	 0.272531	 0.000494
H	 -3.046757	 1.963333	 -1.069198
H	 -2.287665	 0.773835	 -2.090029
C	 -3.549786	 -0.549746	 -0.000374
H	 -2.164530	 0.790068	 0.953428
H	 -1.405831	 -0.399065	 -0.067079
C	 -4.809590	 0.315458	 -0.000369
H	 -3.560515	 -1.202009	 -0.871156
H	 -3.561123	 -1.202955	 0.869711
H	 -4.844746	 0.956611	 -0.876632
H	 -5.706986	 -0.295590	 -0.001609
H	 -4.845960	 0.954827	 0.877144
H	 -0.281895	 5.690450	 -3.349061
H	 1.478591	 5.510986	 -3.317170
H	 0.483863	 4.496725	 -4.372613

	symmetry c1
}
set optking {
	frozen_dihedral = ("
		9 5 8 12,
		15 11 8 12,
		1 2 3 6,
		9 5 3 6
	")
}

ee = energy('scf')
oeprop('DIPOLE', 'QUADRUPOLE', 'MULLIKEN_CHARGES')
f=open( 'psi4out.xyz', 'w' )
f.write( "25  " )
f.write( str(ee) + "\n" )
f.write( MOL.save_string_xyz() )
f.close()
--------------------------------------------------------------------------

    Molecular point group: c1

    Geometry (in Angstrom), charge = 0, multiplicity = 1:

       Center              X                  Y                   Z               Mass
    ------------   -----------------  -----------------  -----------------  -----------------
           O          2.666459359029     1.664783102448    -0.183080932703    15.994914619560
           C          1.799294359029     1.803730102448    -0.990221932703    12.000000000000
           C          0.529542359029     0.971825102448    -0.965667932703    12.000000000000
           C          1.911640359029     2.828280102448    -2.100550932703    12.000000000000
           C          0.472962359029    -0.042946897552     0.172431067297    12.000000000000
           H         -0.316203640971     1.656217102448    -0.913610932703     1.007825032070
           H          0.438559359029     0.474037102448    -1.930204932703     1.007825032070
           C         -0.819430640971    -0.861128897552     0.164699067297    12.000000000000
           H          0.574361359029     0.478244102448     1.119113067297     1.007825032070
           H          1.329815359029    -0.705435897552     0.101298067297     1.007825032070
           C         -0.887828640971    -1.881180897552     1.302481067297    12.000000000000
           H         -1.674711640971    -0.190378897552     0.232789067297     1.007825032070
           H         -0.915619640971    -1.379876897552    -0.788041932703     1.007825032070
           C         -2.177740640971    -2.703457897552     1.301613067297    12.000000000000
           H         -0.792484640971    -1.363643897552     2.255415067297     1.007825032070
           H         -0.033785640971    -2.552776897552     1.234908067297     1.007825032070
           C         -3.437544640971    -1.838253897552     1.301618067297    12.000000000000
           H         -2.188469640971    -3.355720897552     0.430831067297     1.007825032070
           H         -2.189077640971    -3.356666897552     2.171698067297     1.007825032070
           H         -3.472700640971    -1.197100897552     0.425355067297     1.007825032070
           H         -4.334940640971    -2.449301897552     1.300378067297     1.007825032070
           H         -3.473914640971    -1.198884897552     2.179131067297     1.007825032070
           H          1.090150359029     3.536738102448    -2.047073932703     1.007825032070
           H          2.850636359029     3.357274102448    -2.015182932703     1.007825032070
           H          1.855908359029     2.343013102448    -3.070625932703     1.007825032070

  Charge       = 0
  Multiplicity = 1
  Basis Set: 6-31G*
  Basis Set:

    Orbital Energies (a.u.)
    -----------------------

    Doubly Occupied:

       1A    -20.550392     2A    -11.326233     3A    -11.231773
       4A    -11.228303     5A    -11.216667     6A    -11.215799
       7A    -11.215469     8A    -11.213481     9A    -11.208509
      10A     -1.395694    11A     -1.094891    12A     -1.056792
      13A     -1.013058    14A     -0.965772    15A     -0.896454
      16A     -0.825282    17A     -0.776778    18A     -0.729435
      19A     -0.658720    20A     -0.653063    21A     -0.626110
      22A     -0.622324    23A     -0.609403    24A     -0.590795
      25A     -0.565680    26A     -0.555978    27A     -0.545228
      28A     -0.521095    29A     -0.511401    30A     -0.494110
      31A     -0.488755    32A     -0.476189    33A     -0.460000
      34A     -0.456575    35A     -0.451209    36A     -0.399446

  @DF-RHF Final Energy:  -387.13327524783955

   => Energetics <=

    Nuclear Repulsion Energy =            444.3929912925037229
    One-Electron Energy =               -1405.3586444150448642
    Two-Electron Energy =                 573.8323778747004553
    DFT Exchange-Correlation Energy =       0.0000000000000000
    Empirical Dispersion Energy =           0.0000000000000000
    PCM Polarization Energy =               0.0000000000000000
    EFP Energy =                            0.0000000000000000
    Total Energy =                       -387.1332752478407428

  Mulliken Charges: (a.u.)
   Center  Symbol    Alpha    Beta     Spin     Total
       1     O     4.26117  4.26117  0.00000 -0.52234
       2     C     2.73572  2.73572  0.00000  0.52856
       3     C     3.21079  3.21079  0.00000 -0.42157
       4     C     3.28664  3.28664  0.00000 -0.57327
       5     C     3.14683  3.14683  0.00000 -0.29367
       6     H     0.41012  0.41012  0.00000  0.17976
       7     H     0.41010  0.41010  0.00000  0.17979
       8     C     3.15822  3.15822  0.00000 -0.31645
       9     H     0.41222  0.41222  0.00000  0.17557
      10     H     0.41241  0.41241  0.00000  0.17518
      11     C     3.15216  3.15216  0.00000 -0.30432
      12     H     0.42166  0.42166  0.00000  0.15668
      13     H     0.42535  0.42535  0.00000  0.14929
      14     C     3.15197  3.15197  0.00000 -0.30394
      15     H     0.42264  0.42264  0.00000  0.15473
      16     H     0.42033  0.42033  0.00000  0.15934
      17     C     3.24359  3.24359  0.00000 -0.48718
      18     H     0.42347  0.42347  0.00000  0.15306
      19     H     0.41998  0.41998  0.00000  0.16003
      20     H     0.41998  0.41998  0.00000  0.16004
      21     H     0.41879  0.41879  0.00000  0.16242
      22     H     0.42192  0.42192  0.00000  0.15616
      23     H     0.40876  0.40876  0.00000  0.18248
      24     H     0.39647  0.39647  0.00000  0.20707
      25     H     0.40871  0.40871  0.00000  0.18258

   Total alpha = 36.00000, Total beta = 36.00000, Total charge =  0.00000
