                              Psi4 1.0.54 Driver

  ==> Input File <==

--------------------------------------------------------------------------
set {
	reference rhf
	basis cc-pvtz
}

set_num_threads( 4 )
memory 2 gb

molecule MOL {
0 1

H	 -4.230259	 0.539112	 0.036360
O	 -3.515113	 -0.019339	 -0.206321
C	 -2.302264	 0.528872	 0.237390
C	 -1.175688	 -0.398187	 -0.171891
H	 -2.148018	 1.514076	 -0.197759
H	 -2.310727	 0.646384	 1.319032
C	 0.196029	 0.106276	 0.266738
H	 -1.201873	 -0.515469	 -1.250677
H	 -1.365975	 -1.378728	 0.252664
C	 1.330220	 -0.826136	 -0.155230
H	 0.359542	 1.097229	 -0.145561
H	 0.212134	 0.218135	 1.348778
C	 2.719700	 -0.407669	 0.328325
H	 1.339388	 -0.911200	 -1.239363
H	 1.119001	 -1.821953	 0.224128
C	 3.664160	 -1.566746	 0.637993
H	 2.603266	 0.194222	 1.224358
H	 3.177127	 0.241368	 -0.413932
H	 3.229871	 -2.237054	 1.372936
H	 3.894930	 -2.149858	 -0.245416
H	 4.602276	 -1.201121	 1.039776

	symmetry c1
}
set optking {
	frozen_dihedral = ("
		16 13 10 14
	")
}

ee,wfn = optimize('scf', return_wfn=True)
oeprop( wfn, 'DIPOLE', 'QUADRUPOLE', 'MULLIKEN_CHARGES')
f=open( 'psi4out.xyz', 'w' )
f.write( "21  " )
f.write( str(ee) + "\n" )
f.write( MOL.save_string_xyz() )
f.close()
--------------------------------------------------------------------------

    Molecular point group: c1
  Charge       = 0
  Multiplicity = 1
  Basis Set: CC-PVTZ
  Basis Set:
  @DF-RHF Final Energy:  -310.33115996700440
    Total Energy =                       -310.3311599670046235
    Molecular point group: c1
  Basis Set: CC-PVTZ
  Basis Set:
  Basis Set: CC-PVTZ
  Basis Set:
  @DF-RHF Final Energy:  -310.33170011932100
    Total Energy =                       -310.3317001193212832
  Basis Set: CC-PVTZ
  Basis Set:
  Basis Set: CC-PVTZ
  Basis Set:
  @DF-RHF Final Energy:  -310.33185639529233
    Total Energy =                       -310.3318563952925047
  Basis Set: CC-PVTZ
  Basis Set:
  Basis Set: CC-PVTZ
  Basis Set:
  @DF-RHF Final Energy:  -310.33186228415644
    Total Energy =                       -310.3318622841563865
  Basis Set: CC-PVTZ
  Basis Set:
  Basis Set: CC-PVTZ
  Basis Set:
  @DF-RHF Final Energy:  -310.33186601498403
    Total Energy =                       -310.3318660149847119
  Basis Set: CC-PVTZ
  Basis Set:
  Charge       = 0
  Multiplicity = 1
  Basis Set: CC-PVTZ
  Basis Set:

    Orbital Energies (a.u.)
    -----------------------

    Doubly Occupied:

       1A    -20.545385     2A    -11.265017     3A    -11.213663
       4A    -11.212602     5A    -11.210955     6A    -11.208837
       7A    -11.206216     8A     -1.363229     9A     -1.086796
      10A     -1.035174    11A     -0.957877    12A     -0.867781
      13A     -0.802680    14A     -0.790692    15A     -0.695795
      16A     -0.664475    17A     -0.631435    18A     -0.598539
      19A     -0.584350    20A     -0.564790    21A     -0.547011
      22A     -0.522883    23A     -0.507928    24A     -0.485757
      25A     -0.477541    26A     -0.462624    27A     -0.458961
      28A     -0.443150    29A     -0.437388

  @DF-RHF Final Energy:  -310.33186603310003

   => Energetics <=

    Nuclear Repulsion Energy =            309.5043975978555864
    One-Electron Energy =               -1033.9734632153279108
    Two-Electron Energy =                 414.1371995843725813
    DFT Exchange-Correlation Energy =       0.0000000000000000
    Empirical Dispersion Energy =           0.0000000000000000
    PCM Polarization Energy =               0.0000000000000000
    EFP Energy =                            0.0000000000000000
    Total Energy =                       -310.3318660330997432
    Molecular point group: c1
  Basis Set: CC-PVTZ
  Basis Set:

  -Total Gradient:
     Atom            X                  Y                   Z
    ------   -----------------  -----------------  -----------------
       1       -0.000010039391     0.000004666095     0.000000406654
       2       -0.000007018566    -0.000008205491    -0.000001265544
       3        0.000003182664    -0.000008607947     0.000003177843
       4        0.000002647117     0.000003360178     0.000003466052
       5        0.000005020559     0.000007947843    -0.000006230494
       6       -0.000003154006     0.000005910287     0.000016705948
       7       -0.000000605265     0.000007344064    -0.000020175191
       8        0.000001105677     0.000001066855    -0.000011717265
       9       -0.000005344971    -0.000015442871     0.000003194485
      10        0.001130136067    -0.004920088929     0.002129824145
      11        0.000004180074     0.000015467756    -0.000013276931
      12        0.000007632540     0.000004411264     0.000009496009
      13        0.000988651305     0.000549071324    -0.004350863646
      14       -0.001210880293     0.004064505045    -0.000764842805
      15       -0.000008958892    -0.000018058018    -0.000003257088
      16       -0.000898512625     0.000290505694     0.003003766014
      17        0.000003645031     0.000005609184     0.000013878495
      18        0.000010071371     0.000009378337    -0.000008661898
      19        0.000000241826     0.000003264169     0.000004894233
      20       -0.000000896767     0.000000345712    -0.000001206921
      21       -0.000011103453    -0.000002450552    -0.000007312096

  **** Optimization is complete! (in 6 steps) ****
    Final optimized geometry and variables:
    Molecular point group: c1

    Geometry (in Angstrom), charge = 0, multiplicity = 1:

    H           -4.244384971670     1.090602912888    -0.241931417215
    O           -3.557261027138     0.479227571421    -0.432232498594
    C           -2.325484884569     0.983429887378     0.011516543645
    C           -1.244958868162    -0.028380120234    -0.312393670589
    H           -2.103879431988     1.930561640366    -0.475995454247
    H           -2.352835893550     1.165703937303     1.083808246713
    C            0.142914299278     0.424634254717     0.128969947138
    H           -1.255067143304    -0.211254372994    -1.382198945971
    H           -1.499653010912    -0.968638531696     0.166571014682
    C            1.235675462615    -0.597961191329    -0.179969058507
    H            0.389271072215     1.366428643787    -0.356706521802
    H            0.136823309471     0.626407971098     1.197519423107
    C            2.639909300747    -0.109708685893     0.198875258704
    H            1.201671212729    -0.807105797391    -1.245410365059
    H            1.011590462036    -1.526140283700     0.336710743134
    C            3.588050859957    -1.237156361852     0.595450300500
    H            2.563843162785     0.579613625998     1.035305678409
    H            3.063133474091     0.460349962850    -0.621891737052
    H            3.216353552403    -1.763064071050     1.468159736202
    H            3.696812401441    -1.963184555900    -0.204079687094
    H            4.575411031886    -0.856918844614     0.831814437223

  Mulliken Charges: (a.u.)
   Center  Symbol    Alpha    Beta     Spin     Total
       1     H     0.39760  0.39760  0.00000  0.20480
       2     O     4.19433  4.19433  0.00000 -0.38867
       3     C     2.96335  2.96335  0.00000  0.07330
       4     C     3.08535  3.08535  0.00000 -0.17069
       5     H     0.47498  0.47498  0.00000  0.05003
       6     H     0.47484  0.47484  0.00000  0.05032
       7     C     3.10078  3.10078  0.00000 -0.20155
       8     H     0.45100  0.45100  0.00000  0.09799
       9     H     0.45087  0.45087  0.00000  0.09826
      10     C     3.08808  3.08808  0.00000 -0.17616
      11     H     0.45475  0.45475  0.00000  0.09050
      12     H     0.45566  0.45566  0.00000  0.08867
      13     C     3.08511  3.08511  0.00000 -0.17023
      14     H     0.45296  0.45296  0.00000  0.09408
      15     H     0.45358  0.45358  0.00000  0.09284
      16     C     3.14862  3.14862  0.00000 -0.29725
      17     H     0.45657  0.45657  0.00000  0.08687
      18     H     0.45215  0.45215  0.00000  0.09569
      19     H     0.45547  0.45547  0.00000  0.08905
      20     H     0.45447  0.45447  0.00000  0.09105
      21     H     0.44946  0.44946  0.00000  0.10108

   Total alpha = 29.00000, Total beta = 29.00000, Total charge = -0.00000

*** Psi4 exiting successfully. Buy a developer a beer!
