                              Psi4 1.0.54 Driver

  ==> Input File <==

--------------------------------------------------------------------------
set {
	reference rhf
	basis cc-pvtz
}

set_num_threads( 4 )
memory 2 gb

molecule MOL {
0 1

H	 -3.043836	 -0.312389	 0.865836
C	 -2.777907	 -0.260049	 -0.187457
O	 -1.401606	 -0.295183	 -0.366624
H	 -3.199417	 -1.115245	 -0.695255
H	 -3.213011	 0.645086	 -0.607339
C	 -0.718530	 0.758693	 0.228682
C	 0.718529	 0.758687	 -0.228709
H	 -1.176498	 1.708665	 -0.046615
H	 -0.748705	 0.673525	 1.312779
O	 1.401606	 -0.295166	 0.366636
H	 0.748705	 0.673477	 -1.312803
H	 1.176496	 1.708671	 0.046552
C	 2.714315	 -0.441627	 -0.061017
H	 2.765292	 -0.641548	 -1.128869
H	 3.305661	 0.447341	 0.150952
H	 3.143725	 -1.278506	 0.470147

	symmetry c1
}
set optking {
	frozen_dihedral = ("
		2 3 6 7
	")
}

ee,wfn = optimize('scf', return_wfn=True)
oeprop( wfn, 'DIPOLE', 'QUADRUPOLE', 'MULLIKEN_CHARGES')
f=open( 'psi4out.xyz', 'w' )
f.write( "16  " )
f.write( str(ee) + "\n" )
f.write( MOL.save_string_xyz() )
f.close()
--------------------------------------------------------------------------

    Molecular point group: c1
  Charge       = 0
  Multiplicity = 1
  Basis Set: CC-PVTZ
  Basis Set:
  @DF-RHF Final Energy:  -307.09749256190264
    Total Energy =                       -307.0974925619028681
    Molecular point group: c1
  Basis Set: CC-PVTZ
  Basis Set:
  Basis Set: CC-PVTZ
  Basis Set:
  @DF-RHF Final Energy:  -307.09751255631005
    Total Energy =                       -307.0975125563099368
  Basis Set: CC-PVTZ
  Basis Set:
  Charge       = 0
  Multiplicity = 1
  Basis Set: CC-PVTZ
  Basis Set:

    Orbital Energies (a.u.)
    -----------------------

    Doubly Occupied:

       1A    -20.547897     2A    -20.547616     3A    -11.267769
       4A    -11.267086     5A    -11.262201     6A    -11.261452
       7A     -1.391607     8A     -1.374573     9A     -1.032146
      10A     -0.937132    11A     -0.893149    12A     -0.823979
      13A     -0.687508    14A     -0.681717    15A     -0.659571
      16A     -0.639472    17A     -0.631087    18A     -0.598587
      19A     -0.553720    20A     -0.534057    21A     -0.509305
      22A     -0.478977    23A     -0.466703    24A     -0.423251
      25A     -0.413236

  @DF-RHF Final Energy:  -307.09751497155406

   => Energetics <=

    Nuclear Repulsion Energy =            258.6042378119171303
    One-Electron Energy =                -931.6359112512054708
    Two-Electron Energy =                 365.9341584677345622
    DFT Exchange-Correlation Energy =       0.0000000000000000
    Empirical Dispersion Energy =           0.0000000000000000
    PCM Polarization Energy =               0.0000000000000000
    EFP Energy =                            0.0000000000000000
    Total Energy =                       -307.0975149715538350
    Molecular point group: c1
  Basis Set: CC-PVTZ
  Basis Set:

  -Total Gradient:
     Atom            X                  Y                   Z
    ------   -----------------  -----------------  -----------------
       1       -0.000013915870    -0.000009306965    -0.000001916553
       2       -0.000132820613     0.000816263043    -0.001217752918
       3        0.000066915323    -0.000879380539     0.001325625817
       4        0.000031939689    -0.000009661775     0.000006883786
       5        0.000006959381     0.000001567503     0.000003160284
       6        0.000308814911    -0.000623351898     0.000918014059
       7       -0.000381081380     0.000874571137    -0.001097965046
       8        0.000027081982    -0.000021363118     0.000002582678
       9       -0.000007272041    -0.000016137035    -0.000011290456
      10        0.000086868392    -0.000087670353     0.000041470452
      11       -0.000012346116     0.000004119186     0.000021632955
      12       -0.000010176301    -0.000011796421    -0.000005184529
      13        0.000023414589    -0.000044401498     0.000010923823
      14       -0.000004227422     0.000001196122     0.000004099299
      15       -0.000001240018     0.000004401370     0.000002122032
      16        0.000011085494     0.000000951241    -0.000002405681

  **** Optimization is complete! (in 3 steps) ****
    Final optimized geometry and variables:
    Molecular point group: c1

    Geometry (in Angstrom), charge = 0, multiplicity = 1:

    H           -3.037618801745    -0.327263779968     0.913243276333
    C           -2.767893726750    -0.293053662693    -0.140267586118
    O           -1.391437248068    -0.329579390065    -0.317887964735
    H           -3.187557645794    -1.158000860347    -0.632818081343
    H           -3.201948373223     0.604294497908    -0.576817306572
    C           -0.707754296533     0.728848001135     0.269528601282
    C            0.730404171162     0.727482926305    -0.184964522004
    H           -1.158398045335     1.676841784832    -0.023692303941
    H           -0.748918378407     0.659272705595     1.354304222751
    O            1.412990268781    -0.329381125559     0.405743824830
    H            0.760890844146     0.647190075868    -1.269316854049
    H            1.188749395702     1.675890070896     0.095554952115
    C            2.727395920368    -0.471384954709    -0.018088605113
    H            2.782544225728    -0.663567842183    -1.087178878034
    H            3.316869631042     0.416812172564     0.202389590221
    H            3.155837334259    -1.311530449556     0.508625162624

  Mulliken Charges: (a.u.)
   Center  Symbol    Alpha    Beta     Spin     Total
       1     H     0.47129  0.47129  0.00000  0.05742
       2     C     3.03212  3.03212  0.00000 -0.06425
       3     O     4.16992  4.16992  0.00000 -0.33983
       4     H     0.44629  0.44629  0.00000  0.10743
       5     H     0.47277  0.47277  0.00000  0.05445
       6     C     2.96031  2.96031  0.00000  0.07938
       7     C     2.96025  2.96025  0.00000  0.07950
       8     H     0.47878  0.47878  0.00000  0.04244
       9     H     0.46811  0.46811  0.00000  0.06377
      10     O     4.16996  4.16996  0.00000 -0.33993
      11     H     0.47114  0.47114  0.00000  0.05772
      12     H     0.47664  0.47664  0.00000  0.04671
      13     C     3.03205  3.03205  0.00000 -0.06410
      14     H     0.47038  0.47038  0.00000  0.05924
      15     H     0.47381  0.47381  0.00000  0.05239
      16     H     0.44617  0.44617  0.00000  0.10766

   Total alpha = 25.00000, Total beta = 25.00000, Total charge =  0.00000

*** Psi4 exiting successfully. Buy a developer a beer!
