  ==> Input File <==

--------------------------------------------------------------------------
set {
	reference rhf
	basis cc-pvtz
}

set_num_threads( 4 )
memory 2 gb

molecule MOL {
0 1

H	 -3.268214	 -0.875720	 0.463107
C	 -2.806015	 0.000007	 0.024886
N	 -1.391133	 0.000016	 0.301321
H	 -3.029448	 0.000055	 -1.045738
H	 -3.268126	 0.875758	 0.463150
C	 -0.628705	 -0.668992	 -0.730526
C	 -1.085069	 -0.548318	 1.604849
H	 -0.909454	 -1.723078	 -0.813776
H	 -0.839705	 -0.198187	 -1.683367
C	 0.858431	 -0.575150	 -0.444807
H	 -1.629225	 0.010579	 2.356925
H	 -1.396924	 -1.594180	 1.680798
C	 0.402066	 -0.454476	 1.890568
H	 1.402587	 -1.134047	 -1.196883
H	 1.170286	 0.470711	 -0.520756
N	 1.164495	 -1.123484	 0.858721
H	 0.613067	 -0.925281	 2.843409
H	 0.682816	 0.599610	 1.973819
C	 2.579377	 -1.123475	 1.135156
H	 3.104789	 -1.685867	 0.373435
H	 2.769268	 -1.597204	 2.090187
H	 3.005849	 -0.116849	 1.166529

	symmetry c1
}
set optking {
	frozen_dihedral = ("
		6 3 2 4
	")
}

ee = optimize('scf')
oeprop('DIPOLE', 'QUADRUPOLE', 'MULLIKEN_CHARGES')
f=open( 'psi4out.xyz', 'w' )
f.write( "22  " )
f.write( str(ee) + "\n" )
f.write( MOL.save_string_xyz() )
f.close()
--------------------------------------------------------------------------

    Molecular point group: c1
  Charge       = 0
  Multiplicity = 1
  Basis Set: CC-PVTZ
  Basis Set:
  @DF-RHF Final Energy:  -344.34732524201632
    Total Energy =                       -344.3473252420171775
    Molecular point group: c1
  Basis Set: CC-PVTZ
  Basis Set:
  Basis Set: CC-PVTZ
  Basis Set:
  @DF-RHF Final Energy:  -344.34820351738665
    Total Energy =                       -344.3482035173867644
  Basis Set: CC-PVTZ
  Basis Set:
  Basis Set: CC-PVTZ
  Basis Set:
  @DF-RHF Final Energy:  -344.34831070617452
    Total Energy =                       -344.3483107061744022
  Basis Set: CC-PVTZ
  Basis Set:
  Basis Set: CC-PVTZ
  Basis Set:
  @DF-RHF Final Energy:  -344.34831671288322
    Total Energy =                       -344.3483167128830473
  Basis Set: CC-PVTZ
  Basis Set:
  Charge       = 0
  Multiplicity = 1
  Basis Set: CC-PVTZ
  Basis Set:

    Orbital Energies (a.u.)
    -----------------------

    Doubly Occupied:

       1A    -15.537544     2A    -15.535105     3A    -11.237692
       4A    -11.237448     5A    -11.236798     6A    -11.236745
       7A    -11.234327     8A    -11.234161     9A     -1.256539
      10A     -1.205224    11A     -1.026190    12A     -0.992621
      13A     -0.912510    14A     -0.868592    15A     -0.836358
      16A     -0.754309    17A     -0.666639    18A     -0.637904
      19A     -0.632447    20A     -0.627092    21A     -0.621897
      22A     -0.581476    23A     -0.551819    24A     -0.547394
      25A     -0.543202    26A     -0.518250    27A     -0.497118
      28A     -0.489816    29A     -0.467420    30A     -0.457529
      31A     -0.351619    32A     -0.343122

  @DF-RHF Final Energy:  -344.34831731981745

   => Energetics <=

    Nuclear Repulsion Energy =            421.7332777297976349
    One-Electron Energy =               -1302.4093731766829478
    Two-Electron Energy =                 536.3277781270676314
    DFT Exchange-Correlation Energy =       0.0000000000000000
    Empirical Dispersion Energy =           0.0000000000000000
    PCM Polarization Energy =               0.0000000000000000
    EFP Energy =                            0.0000000000000000
    Total Energy =                       -344.3483173198176246
    Molecular point group: c1
  Basis Set: CC-PVTZ
  Basis Set:

  -Total Gradient:
     Atom            X                  Y                   Z
    ------   -----------------  -----------------  -----------------
       1       -0.000018920372    -0.000008335997     0.000004476098
       2        0.000287448692     0.006740487118    -0.000471887854
       3       -0.000556844864    -0.005283251068     0.002156749905
       4       -0.000129669865    -0.004378135379    -0.000146915291
       5        0.000023325938    -0.000034381048     0.000008095960
       6        0.000392770757     0.002928525730    -0.001563938746
       7       -0.000004427526     0.000023162144     0.000009554558
       8       -0.000011471074     0.000011979556     0.000008162791
       9        0.000004215548     0.000001695487     0.000004859832
      10        0.000016576341     0.000010866103    -0.000001908779
      11       -0.000006106262    -0.000002060500     0.000000021931
      12        0.000008678770     0.000014388982    -0.000009995870
      13       -0.000004254991    -0.000022571952     0.000012963942
      14        0.000006997716    -0.000000264355     0.000001507951
      15        0.000000587801     0.000004545838    -0.000004784510
      16       -0.000012702960     0.000003567657    -0.000011516955
      17        0.000015671212    -0.000001010245     0.000008592592
      18       -0.000010176473    -0.000008796809    -0.000003883067
      19        0.000001096434    -0.000002014055    -0.000000071288
      20       -0.000003062680     0.000001216529     0.000000812049
      21        0.000000618148     0.000000157764     0.000000441637
      22       -0.000000350282     0.000000228503    -0.000001336885

  **** Optimization is complete! (in 5 steps) ****
    Final optimized geometry and variables:
    Molecular point group: c1

    Geometry (in Angstrom), charge = 0, multiplicity = 1:

    H           -3.222854875062    -0.308599286057    -0.177101133352
    C           -2.701040564280     0.579121719311    -0.543922662861
    N           -1.282021892941     0.527801400817    -0.282507551953
    H           -2.883074372249     0.619120628982    -1.609655179407
    H           -3.149349536458     1.446561430806    -0.074562930524
    C           -0.513200567896    -0.121761607973    -1.319210982449
    C           -0.969196861392     0.011822170876     1.028745149097
    H           -0.776585817642    -1.179436049458    -1.419916957578
    H           -0.723594858631     0.359896197708    -2.266073221991
    C            0.971981563597    -0.012500077558    -1.026031485398
    H           -1.515080952923     0.583830851938     1.770532169561
    H           -1.277437256337    -1.033336074693     1.128700290153
    C            0.518095662171     0.117574963191     1.309159762877
    H            1.525346065128    -0.565960310694    -1.775496393392
    H            1.272528308883     1.036893235417    -1.101484511747
    N            1.280004274721    -0.555258436480     0.279433278387
    H            0.735603898674    -0.344200040205     2.265046473404
    H            0.793486311908     1.173898564203     1.382471273838
    C            2.695135500224    -0.551328219117     0.554142508361
    H            3.220691706818    -1.116727533837    -0.205301799935
    H            2.887133648965    -1.019680022288     1.511451029038
    H            3.120089788245     0.456225014593     0.579786996866

  Mulliken Charges: (a.u.)
   Center  Symbol    Alpha    Beta     Spin     Total
       1     H     0.46870  0.46870  0.00000  0.06260
       2     C     3.09644  3.09644  0.00000 -0.19289
       3     N     3.61330  3.61330  0.00000 -0.22659
       4     H     0.45479  0.45479  0.00000  0.09042
       5     H     0.44998  0.44998  0.00000  0.10005
       6     C     3.03327  3.03327  0.00000 -0.06653
       7     C     3.03471  3.03471  0.00000 -0.06942
       8     H     0.46998  0.46998  0.00000  0.06004
       9     H     0.45397  0.45397  0.00000  0.09206
      10     C     3.03630  3.03630  0.00000 -0.07260
      11     H     0.45421  0.45421  0.00000  0.09159
      12     H     0.46804  0.46804  0.00000  0.06392
      13     C     3.03606  3.03606  0.00000 -0.07213
      14     H     0.45398  0.45398  0.00000  0.09203
      15     H     0.46850  0.46850  0.00000  0.06300
      16     N     3.61313  3.61313  0.00000 -0.22626
      17     H     0.45392  0.45392  0.00000  0.09217
      18     H     0.46834  0.46834  0.00000  0.06333
      19     C     3.09835  3.09835  0.00000 -0.19670
      20     H     0.45194  0.45194  0.00000  0.09612
      21     H     0.45194  0.45194  0.00000  0.09612
      22     H     0.47017  0.47017  0.00000  0.05967

   Total alpha = 32.00000, Total beta = 32.00000, Total charge =  0.00000
