  ==> Input File <==

--------------------------------------------------------------------------
set {
	reference rhf
	basis 6-31G*
}

set_num_threads( 4 )
memory 2 gb

molecule MOL {
0 1

H	 3.711303	 -0.950601	 -0.183591
O	 2.806912	 -1.182552	 0.003576
C	 2.077727	 -0.067559	 -0.035091
C	 0.624473	 -0.343591	 0.253101
O	 2.557738	 0.992866	 -0.271956
C	 -0.265902	 0.883932	 0.072916
H	 0.324016	 -1.163849	 -0.390541
H	 0.565024	 -0.726111	 1.268924
C	 -1.728698	 0.646073	 0.462102
H	 -0.209144	 1.219470	 -0.958188
H	 0.135059	 1.692851	 0.673903
C	 -2.482460	 -0.343073	 -0.431425
H	 -2.245265	 1.602650	 0.432430
H	 -1.779332	 0.308348	 1.496285
C	 -3.960546	 -0.461025	 -0.060175
H	 -2.395034	 -0.026811	 -1.468912
H	 -2.024850	 -1.327147	 -0.371646
H	 -4.472726	 -1.168004	 -0.705284
H	 -4.465146	 0.496508	 -0.151489
H	 -4.081218	 -0.800940	 0.964585

	symmetry c1
}
set optking {
	frozen_dihedral = ("
		5 3 4 7
	")
}

ee = optimize('scf')
oeprop('DIPOLE', 'QUADRUPOLE', 'MULLIKEN_CHARGES')
f=open( 'psi4out.xyz', 'w' )
f.write( "20  " )
f.write( str(ee) + "\n" )
f.write( MOL.save_string_xyz() )
f.close()
--------------------------------------------------------------------------

    Molecular point group: c1
  Charge       = 0
  Multiplicity = 1
  Basis Set: 6-31G*
  Basis Set:
  @DF-RHF Final Energy:  -383.94872284202211
    Total Energy =                       -383.9487228420219935
    Molecular point group: c1
  Basis Set: 6-31G*
  Basis Set:
  Basis Set: 6-31G*
  Basis Set:
  @DF-RHF Final Energy:  -383.94859132826400
    Total Energy =                       -383.9485913282642855
  Basis Set: 6-31G*
  Basis Set:
  Basis Set: 6-31G*
  Basis Set:
  @DF-RHF Final Energy:  -383.94873459054674
    Total Energy =                       -383.9487345905463371
  Basis Set: 6-31G*
  Basis Set:
  Basis Set: 6-31G*
  Basis Set:
  @DF-RHF Final Energy:  -383.94873720315161
    Total Energy =                       -383.9487372031516657
  Basis Set: 6-31G*
  Basis Set:
  Basis Set: 6-31G*
  Basis Set:
  @DF-RHF Final Energy:  -383.94873531161392
    Total Energy =                       -383.9487353116139730
  Basis Set: 6-31G*
  Basis Set:
  Basis Set: 6-31G*
  Basis Set:
  @DF-RHF Final Energy:  -383.94873739249977
    Total Energy =                       -383.9487373924996518
  Basis Set: 6-31G*
  Basis Set:
  Charge       = 0
  Multiplicity = 1
  Basis Set: 6-31G*
  Basis Set:

    Orbital Energies (a.u.)
    -----------------------

    Doubly Occupied:

       1A    -20.612605     2A    -20.551584     3A    -11.381217
       4A    -11.240217     5A    -11.222986     6A    -11.220708
       7A    -11.220119     8A    -11.212411     9A     -1.474639
      10A     -1.365643    11A     -1.096227    12A     -1.040969
      13A     -0.961262    14A     -0.868887    15A     -0.816153
      16A     -0.777127    17A     -0.699732    18A     -0.690041
      19A     -0.663171    20A     -0.636415    21A     -0.602811
      22A     -0.593886    23A     -0.575498    24A     -0.555531
      25A     -0.540534    26A     -0.513023    27A     -0.495727
      28A     -0.479000    29A     -0.470565    30A     -0.467632
      31A     -0.457140    32A     -0.443784

  @DF-RHF Final Energy:  -383.94873738592935

   => Energetics <=

    Nuclear Repulsion Energy =            375.8956136171146909
    One-Electron Energy =               -1267.7942121679755019
    Two-Electron Energy =                 507.9498611649314626
    DFT Exchange-Correlation Energy =       0.0000000000000000
    Empirical Dispersion Energy =           0.0000000000000000
    PCM Polarization Energy =               0.0000000000000000
    EFP Energy =                            0.0000000000000000
    Total Energy =                       -383.9487373859293484
    Molecular point group: c1
  Basis Set: 6-31G*
  Basis Set:

  -Total Gradient:
     Atom            X                  Y                   Z
    ------   -----------------  -----------------  -----------------
       1        0.000000563382     0.000000020493     0.000001628979
       2        0.000000324090    -0.000000247991    -0.000003086238
       3       -0.000049638945    -0.000088340227    -0.000342512246
       4       -0.000059330739     0.000212323116    -0.000094906160
       5        0.000043488538     0.000036416390     0.000259835749
       6        0.000000305818     0.000003190446     0.000002303971
       7        0.000066033575    -0.000164446944     0.000176574661
       8       -0.000000342134     0.000002132382    -0.000002003922
       9       -0.000002575809     0.000002015809    -0.000004328887
      10        0.000001365662    -0.000000490241     0.000000797332
      11       -0.000000207613     0.000001208080    -0.000000189541
      12        0.000002326864    -0.000004855072     0.000006259860
      13       -0.000004313290    -0.000001127828     0.000001514908
      14        0.000002403623    -0.000001152805    -0.000001279962
      15       -0.000001319621     0.000004098735    -0.000002756069
      16        0.000003153275    -0.000001124102     0.000002466477
      17       -0.000001275346    -0.000000932968     0.000000448607
      18       -0.000000558805     0.000001590141    -0.000001178384
      19       -0.000001155054     0.000000759309     0.000001596105
      20        0.000000752520    -0.000001036723    -0.000001185243

  **** Optimization is complete! (in 7 steps) ****
    Final optimized geometry and variables:
    Molecular point group: c1

    Geometry (in Angstrom), charge = 0, multiplicity = 1:

    H            3.718360661825    -0.943493430286    -0.152523901585
    O            2.811823780856    -1.178823771178     0.019457653416
    C            2.078898900884    -0.066976897998    -0.033967929027
    C            0.624487450497    -0.345543763155     0.246434511284
    O            2.558217589776     0.994419834671    -0.268029048744
    C           -0.265604080018     0.883223449974     0.073451564250
    H            0.323848386261    -1.165527147266    -0.396552428148
    H            0.566312726960    -0.729130946763     1.262524273518
    C           -1.727290892740     0.645317773814     0.466607128864
    H           -0.212830400859     1.221840302862    -0.957180791977
    H            0.138710745120     1.689483518348     0.675245637976
    C           -2.484508059151    -0.341512200133    -0.426539963592
    H           -2.243428655948     1.602235334616     0.440810422963
    H           -1.774559061221     0.305349407324     1.500224355459
    C           -3.961668799818    -0.458699431893    -0.051436824776
    H           -2.399678882466    -0.023457200815    -1.463708849373
    H           -2.027592696173    -1.326081500438    -0.369863913826
    H           -4.476361389185    -1.163887495214    -0.696501088866
    H           -4.465562117180     0.499525019087    -0.139448274527
    H           -4.079848414036    -0.800514403998     0.972981185947

  Mulliken Charges: (a.u.)
   Center  Symbol    Alpha    Beta     Spin     Total
       1     H     0.26786  0.26786  0.00000  0.46427
       2     O     4.35154  4.35154  0.00000 -0.70308
       3     C     2.62202  2.62202  0.00000  0.75596
       4     C     3.21316  3.21316  0.00000 -0.42631
       5     O     4.27930  4.27930  0.00000 -0.55861
       6     C     3.15464  3.15464  0.00000 -0.30928
       7     H     0.39697  0.39697  0.00000  0.20606
       8     H     0.39888  0.39888  0.00000  0.20223
       9     C     3.15556  3.15556  0.00000 -0.31112
      10     H     0.41330  0.41330  0.00000  0.17339
      11     H     0.40665  0.40665  0.00000  0.18669
      12     C     3.15482  3.15482  0.00000 -0.30964
      13     H     0.41787  0.41787  0.00000  0.16427
      14     H     0.42364  0.42364  0.00000  0.15272
      15     C     3.23923  3.23923  0.00000 -0.47847
      16     H     0.42158  0.42158  0.00000  0.15684
      17     H     0.42266  0.42266  0.00000  0.15467
      18     H     0.41834  0.41834  0.00000  0.16332
      19     H     0.42065  0.42065  0.00000  0.15870
      20     H     0.42131  0.42131  0.00000  0.15738

   Total alpha = 32.00000, Total beta = 32.00000, Total charge = -0.00000
