  ==> Input File <==

--------------------------------------------------------------------------
set {
	reference rhf
	basis 6-31G*
}

set_num_threads( 4 )
memory 2 gb

molecule MOL {
0 1

H	 3.172663	 1.216644	 -0.823965
O	 2.241416	 1.094379	 -0.667167
C	 2.077727	 -0.067559	 -0.035091
C	 0.624473	 -0.343591	 0.253101
O	 2.994991	 -0.767760	 0.246622
C	 -0.265902	 0.883932	 0.072916
H	 0.324016	 -1.163849	 -0.390541
H	 0.565024	 -0.726111	 1.268924
C	 -1.728698	 0.646073	 0.462102
H	 -0.209144	 1.219470	 -0.958188
H	 0.135059	 1.692851	 0.673903
C	 -2.482460	 -0.343073	 -0.431425
H	 -2.245265	 1.602650	 0.432430
H	 -1.779332	 0.308348	 1.496285
C	 -3.960546	 -0.461025	 -0.060175
H	 -2.395034	 -0.026811	 -1.468912
H	 -2.024850	 -1.327147	 -0.371646
H	 -4.472726	 -1.168004	 -0.705284
H	 -4.465146	 0.496508	 -0.151489
H	 -4.081218	 -0.800940	 0.964585

	symmetry c1
}
set optking {
	frozen_dihedral = ("
		5 3 4 7
	")
}

ee = optimize('scf')
oeprop('DIPOLE', 'QUADRUPOLE', 'MULLIKEN_CHARGES')
f=open( 'psi4out.xyz', 'w' )
f.write( "20  " )
f.write( str(ee) + "\n" )
f.write( MOL.save_string_xyz() )
f.close()
--------------------------------------------------------------------------

    Molecular point group: c1
  Charge       = 0
  Multiplicity = 1
  Basis Set: 6-31G*
  Basis Set:
  @DF-RHF Final Energy:  -383.94480780442200
    Total Energy =                       -383.9448078044218846
    Molecular point group: c1
  Basis Set: 6-31G*
  Basis Set:
  Basis Set: 6-31G*
  Basis Set:
  @DF-RHF Final Energy:  -383.94535832566976
    Total Energy =                       -383.9453583256699858
  Basis Set: 6-31G*
  Basis Set:
  Basis Set: 6-31G*
  Basis Set:
  @DF-RHF Final Energy:  -383.94598543366783
    Total Energy =                       -383.9459854336676017
  Basis Set: 6-31G*
  Basis Set:
  Basis Set: 6-31G*
  Basis Set:
  @DF-RHF Final Energy:  -383.94605367159943
    Total Energy =                       -383.9460536715992021
  Basis Set: 6-31G*
  Basis Set:
  Basis Set: 6-31G*
  Basis Set:
  @DF-RHF Final Energy:  -383.94605554869202
    Total Energy =                       -383.9460555486922431
  Basis Set: 6-31G*
  Basis Set:
  Basis Set: 6-31G*
  Basis Set:
  @DF-RHF Final Energy:  -383.94606933948387
    Total Energy =                       -383.9460693394840405
  Basis Set: 6-31G*
  Basis Set:
  Basis Set: 6-31G*
  Basis Set:
  @DF-RHF Final Energy:  -383.94607083205722
    Total Energy =                       -383.9460708320569893
  Basis Set: 6-31G*
  Basis Set:
  Charge       = 0
  Multiplicity = 1
  Basis Set: 6-31G*
  Basis Set:

    Orbital Energies (a.u.)
    -----------------------

    Doubly Occupied:

       1A    -20.615015     2A    -20.546562     3A    -11.381301
       4A    -11.240389     5A    -11.227125     6A    -11.222753
       7A    -11.221770     8A    -11.213476     9A     -1.475323
      10A     -1.363732    11A     -1.098203    12A     -1.041427
      13A     -0.959653    14A     -0.862151    15A     -0.826800
      16A     -0.791722    17A     -0.698762    18A     -0.679253
      19A     -0.664343    20A     -0.632412    21A     -0.604059
      22A     -0.590923    23A     -0.576129    24A     -0.551158
      25A     -0.548066    26A     -0.520500    27A     -0.500543
      28A     -0.482480    29A     -0.474189    30A     -0.470084
      31A     -0.456222    32A     -0.433518

  @DF-RHF Final Energy:  -383.94607040206165

   => Energetics <=

    Nuclear Repulsion Energy =            376.4926550879117713
    One-Electron Energy =               -1268.9373617018768527
    Two-Electron Energy =                 508.4986362119034311
    DFT Exchange-Correlation Energy =       0.0000000000000000
    Empirical Dispersion Energy =           0.0000000000000000
    PCM Polarization Energy =               0.0000000000000000
    EFP Energy =                            0.0000000000000000
    Total Energy =                       -383.9460704020616504
    Molecular point group: c1
  Basis Set: 6-31G*
  Basis Set:

  -Total Gradient:
     Atom            X                  Y                   Z
    ------   -----------------  -----------------  -----------------
       1        0.000011879577     0.000014669077    -0.000003876852
       2        0.000008544271    -0.000014432474    -0.000006675916
       3        0.000109643138     0.000375290482     0.001067348555
       4       -0.000237323108     0.000378783471    -0.000845764797
       5       -0.000072646701    -0.000315224178    -0.000682342093
       6        0.000014295643     0.000009944292     0.000000323368
       7        0.000127798903    -0.000462767532     0.000469970246
       8        0.000012599635     0.000011224586     0.000009243002
       9       -0.000009133408     0.000009967292     0.000005373801
      10        0.000005609907     0.000027292227    -0.000002051412
      11        0.000014939036    -0.000029263261     0.000003863275
      12        0.000004096473    -0.000000680514    -0.000011272793
      13       -0.000001255560    -0.000006141785    -0.000018625238
      14       -0.000015114098     0.000023984596     0.000008108776
      15        0.000003658557    -0.000015605255     0.000005019515
      16       -0.000012239725     0.000003504247     0.000005774139
      17        0.000033740354    -0.000007692665    -0.000006723028
      18       -0.000000150523    -0.000003009584     0.000002506266
      19        0.000003822544    -0.000000243041    -0.000002472337
      20       -0.000002764923     0.000000400020     0.000002273522

  **** Optimization is complete! (in 8 steps) ****
    Final optimized geometry and variables:
    Molecular point group: c1

    Geometry (in Angstrom), charge = 0, multiplicity = 1:

    H            3.318184300583     1.018711023617    -0.790526924990
    O            2.376348358038     0.979301812122    -0.653569229839
    C            2.107415922002    -0.149355556464    -0.002966445169
    C            0.637101681643    -0.373559620149     0.261491834543
    O            2.962357024677    -0.914873829723     0.307425806114
    C           -0.274286033622     0.844532014475     0.099574179451
    H            0.342258297054    -1.180788878189    -0.402282539205
    H            0.571933583295    -0.778735245375     1.265765627104
    C           -1.729274538996     0.571564766063     0.497157991637
    H           -0.235223087385     1.195909039816    -0.926416357002
    H            0.109075701635     1.654534596643     0.712392855790
    C           -2.467492952877    -0.425426988517    -0.400637213032
    H           -2.266449309177     1.517077031143     0.479750279200
    H           -1.764644659260     0.223381140551     1.528266181114
    C           -3.939849114593    -0.578769280870    -0.019665128178
    H           -2.394695010178    -0.097645117035    -1.435712280029
    H           -1.988566677330    -1.399807537522    -0.353213388638
    H           -4.440965705772    -1.291263330277    -0.667288414151
    H           -4.466032749736     0.368183317021    -0.098932466739
    H           -4.045327425690    -0.930242272260     1.002807471422

  Mulliken Charges: (a.u.)
   Center  Symbol    Alpha    Beta     Spin     Total
       1     H     0.26725  0.26725  0.00000  0.46549
       2     O     4.34805  4.34805  0.00000 -0.69611
       3     C     2.62195  2.62195  0.00000  0.75611
       4     C     3.21506  3.21506  0.00000 -0.43012
       5     O     4.28310  4.28310  0.00000 -0.56619
       6     C     3.15528  3.15528  0.00000 -0.31055
       7     H     0.39515  0.39515  0.00000  0.20969
       8     H     0.39639  0.39639  0.00000  0.20721
       9     C     3.15573  3.15573  0.00000 -0.31146
      10     H     0.41113  0.41113  0.00000  0.17774
      11     H     0.41284  0.41284  0.00000  0.17431
      12     C     3.15534  3.15534  0.00000 -0.31068
      13     H     0.41806  0.41806  0.00000  0.16387
      14     H     0.42241  0.42241  0.00000  0.15518
      15     C     3.23932  3.23932  0.00000 -0.47865
      16     H     0.42169  0.42169  0.00000  0.15661
      17     H     0.42163  0.42163  0.00000  0.15673
      18     H     0.41794  0.41794  0.00000  0.16411
      19     H     0.42084  0.42084  0.00000  0.15831
      20     H     0.42081  0.42081  0.00000  0.15838

   Total alpha = 32.00000, Total beta = 32.00000, Total charge =  0.00000
