                              Psi4 1.0.54 Driver

  ==> Input File <==

--------------------------------------------------------------------------
set {
	reference rhf
	basis cc-pvtz
}

set_num_threads( 4 )
memory 2 gb

molecule MOL {
0 1

H	 -3.268214	 -0.875720	 0.463107
C	 -2.806015	 0.000007	 0.024886
N	 -1.391133	 0.000016	 0.301321
H	 -3.029448	 0.000055	 -1.045738
H	 -3.268126	 0.875758	 0.463150
C	 -0.763150	 -1.257397	 -0.042374
C	 -1.097900	 0.364588	 1.670494
H	 -1.175073	 -2.082790	 0.545755
H	 -0.956254	 -1.471842	 -1.086792
C	 0.735338	 -1.188556	 0.185239
H	 -1.535377	 1.334252	 1.876540
H	 -1.532639	 -0.350238	 2.375387
C	 0.400588	 0.433428	 1.898106
H	 1.172815	 -2.158220	 -0.020808
H	 1.170077	 -0.473730	 -0.519654
N	 1.028571	 -0.823984	 1.554412
H	 0.593692	 0.647874	 2.942524
H	 0.812511	 1.258822	 1.309978
C	 2.443453	 -0.823975	 1.830847
H	 2.861493	 -1.800092	 1.618707
H	 2.615366	 -0.607787	 2.877876
H	 2.991711	 -0.085628	 1.238888

	symmetry c1
}
set optking {
	frozen_dihedral = ("
		6 3 2 4
	")
}

ee,wfn = optimize('scf', return_wfn=True)
oeprop( wfn, 'DIPOLE', 'QUADRUPOLE', 'MULLIKEN_CHARGES')
f=open( 'psi4out.xyz', 'w' )
f.write( "22  " )
f.write( str(ee) + "\n" )
f.write( MOL.save_string_xyz() )
f.close()
--------------------------------------------------------------------------

    Molecular point group: c1
  Charge       = 0
  Multiplicity = 1
  Basis Set: CC-PVTZ
  Basis Set:
  @DF-RHF Final Energy:  -344.34936451585122
    Total Energy =                       -344.3493645158514482
    Molecular point group: c1
  Basis Set: CC-PVTZ
  Basis Set:
  Basis Set: CC-PVTZ
  Basis Set:
  @DF-RHF Final Energy:  -344.35007652145464
    Total Energy =                       -344.3500765214547528
  Basis Set: CC-PVTZ
  Basis Set:
  Basis Set: CC-PVTZ
  Basis Set:
  @DF-RHF Final Energy:  -344.35015236448004
    Total Energy =                       -344.3501523644798681
  Basis Set: CC-PVTZ
  Basis Set:
  Charge       = 0
  Multiplicity = 1
  Basis Set: CC-PVTZ
  Basis Set:

    Orbital Energies (a.u.)
    -----------------------

    Doubly Occupied:

       1A    -15.538075     2A    -15.537583     3A    -11.237580
       4A    -11.237514     5A    -11.236927     6A    -11.236863
       7A    -11.234291     8A    -11.234177     9A     -1.257492
      10A     -1.206546    11A     -1.025718    12A     -0.993033
      13A     -0.912233    14A     -0.867856    15A     -0.836404
      16A     -0.755947    17A     -0.666997    18A     -0.638063
      19A     -0.631743    20A     -0.627151    21A     -0.623771
      22A     -0.582842    23A     -0.549450    24A     -0.547124
      25A     -0.542094    26A     -0.518565    27A     -0.496483
      28A     -0.490666    29A     -0.465731    30A     -0.457172
      31A     -0.353426    32A     -0.348506

  @DF-RHF Final Energy:  -344.35015305293444

   => Energetics <=

    Nuclear Repulsion Energy =            422.0186410938941322
    One-Electron Energy =               -1302.9615364232970478
    Two-Electron Energy =                 536.5927422764685844
    DFT Exchange-Correlation Energy =       0.0000000000000000
    Empirical Dispersion Energy =           0.0000000000000000
    PCM Polarization Energy =               0.0000000000000000
    EFP Energy =                            0.0000000000000000
    Total Energy =                       -344.3501530529343881
    Molecular point group: c1
  Basis Set: CC-PVTZ
  Basis Set:

  -Total Gradient:
     Atom            X                  Y                   Z
    ------   -----------------  -----------------  -----------------
       1       -0.000018837137    -0.000021808146     0.000008916449
       2       -0.000078167540    -0.003664783993     0.000722669552
       3        0.000489399854     0.001561241136    -0.002522443228
       4        0.000020748808     0.002715482288    -0.000005795457
       5        0.000019540478     0.000000456566     0.000004227172
       6       -0.000412543065    -0.000597643197     0.001838450129
       7       -0.000047031445     0.000061539629    -0.000051343211
       8       -0.000005065653     0.000007459325     0.000009730546
       9        0.000005034316    -0.000039635840    -0.000016546156
      10        0.000017551077     0.000002960215     0.000001608619
      11       -0.000007324933     0.000010532665     0.000029125579
      12        0.000006233021    -0.000007088243    -0.000006509740
      13        0.000005153490     0.000001790443    -0.000029298654
      14        0.000001060309     0.000004213444     0.000011344434
      15        0.000001359988    -0.000000470414    -0.000004217814
      16        0.000014214719    -0.000032268806     0.000018524632
      17       -0.000011076844    -0.000007392369    -0.000007587488
      18       -0.000000299436     0.000008808231     0.000001804670
      19        0.000004464590    -0.000004852055    -0.000002349499
      20        0.000000367433    -0.000000460826     0.000000451479
      21       -0.000002754835     0.000000751742    -0.000000275695
      22       -0.000002027200     0.000001168206    -0.000000486316

  **** Optimization is complete! (in 4 steps) ****
    Final optimized geometry and variables:
    Molecular point group: c1

    Geometry (in Angstrom), charge = 0, multiplicity = 1:

    H           -3.146575767856    -0.410326993940    -0.454885174740
    C           -2.622927598509     0.440435576168    -0.897403153451
    N           -1.205911173041     0.435750492966    -0.624224862251
    H           -2.796354857532     0.439474876051    -1.966893990043
    H           -3.067219022384     1.345981999116    -0.503505578714
    C           -0.593441909777    -0.829176078810    -0.971270152672
    C           -0.907768620095     0.778244224081     0.751112311264
    H           -1.014999812291    -1.647722478354    -0.380922085918
    H           -0.794377286771    -1.042341072455    -2.014973516749
    C            0.906608074759    -0.781282932334    -0.749595422067
    H           -1.333657475793     1.749701756536     0.971359760623
    H           -1.347611907195     0.058451634637     1.447761273945
    C            0.591947688390     0.829755002274     0.976735182358
    H            1.330733719848    -1.755306408414    -0.963450801501
    H            1.348122113077    -0.067737515028    -1.451632066768
    N            1.208351256136    -0.429803210868     0.620924893307
    H            0.788603691061     1.033328050658     2.022774524494
    H            1.010064770552     1.656942653605     0.395343684741
    C            2.623803436637    -0.444388778178     0.892737881807
    H            3.032668234832    -1.422374646485     0.671171402033
    H            2.801029443690    -0.238330470186     1.940996920994
    H            3.176852185588     0.293983328823     0.305122650184

  Mulliken Charges: (a.u.)
   Center  Symbol    Alpha    Beta     Spin     Total
       1     H     0.46902  0.46902  0.00000  0.06196
       2     C     3.09842  3.09842  0.00000 -0.19684
       3     N     3.61397  3.61397  0.00000 -0.22794
       4     H     0.45065  0.45065  0.00000  0.09870
       5     H     0.45342  0.45342  0.00000  0.09316
       6     C     3.03636  3.03636  0.00000 -0.07272
       7     C     3.03472  3.03472  0.00000 -0.06944
       8     H     0.46703  0.46703  0.00000  0.06594
       9     H     0.45384  0.45384  0.00000  0.09231
      10     C     3.03544  3.03544  0.00000 -0.07087
      11     H     0.45363  0.45363  0.00000  0.09274
      12     H     0.46865  0.46865  0.00000  0.06270
      13     C     3.03584  3.03584  0.00000 -0.07169
      14     H     0.45377  0.45377  0.00000  0.09246
      15     H     0.46795  0.46795  0.00000  0.06410
      16     N     3.61299  3.61299  0.00000 -0.22598
      17     H     0.45383  0.45383  0.00000  0.09233
      18     H     0.46808  0.46808  0.00000  0.06385
      19     C     3.09846  3.09846  0.00000 -0.19692
      20     H     0.45196  0.45196  0.00000  0.09608
      21     H     0.45196  0.45196  0.00000  0.09608
      22     H     0.47001  0.47001  0.00000  0.05998

   Total alpha = 32.00000, Total beta = 32.00000, Total charge = -0.00000

*** Psi4 exiting successfully. Buy a developer a beer!
