  ==> Input File <==

--------------------------------------------------------------------------
set {
	reference rhf
	basis 6-31G*
}

set_num_threads( 4 )
memory 2 gb

molecule MOL {
0 1

O	 -0.291628	 1.323815	 -0.000732
C	 -0.449655	 0.146360	 0.000961
C	 -1.783294	 -0.549321	 -0.000296
O	 0.550821	 -0.724572	 0.000672
H	 -1.863538	 -1.185371	 -0.874187
H	 -2.574672	 0.185258	 -0.002793
H	 -1.866414	 -1.182381	 0.875436
C	 1.851655	 -0.207755	 0.217496
H	 2.110864	 0.503377	 -0.553515
H	 2.515940	 -1.056999	 0.182031
H	 1.911991	 0.275444	 1.181976

	symmetry c1
}
set optking {
	frozen_dihedral = ("
		8 4 2 1
	")
}

ee = optimize('scf')
oeprop('DIPOLE', 'QUADRUPOLE', 'MULLIKEN_CHARGES')
f=open( 'psi4out.xyz', 'w' )
f.write( "11  " )
f.write( str(ee) + "\n" )
f.write( MOL.save_string_xyz() )
f.close()
--------------------------------------------------------------------------

    Molecular point group: c1
  Charge       = 0
  Multiplicity = 1
  Basis Set: 6-31G*
  Basis Set:
  @DF-RHF Final Energy:  -266.83578617666558
    Total Energy =                       -266.8357861766654651
    Molecular point group: c1
  Basis Set: 6-31G*
  Basis Set:
  Basis Set: 6-31G*
  Basis Set:
  @DF-RHF Final Energy:  -266.83469402387163
    Total Energy =                       -266.8346940238717480
  Basis Set: 6-31G*
  Basis Set:
  Basis Set: 6-31G*
  Basis Set:
  @DF-RHF Final Energy:  -266.83584987132281
    Total Energy =                       -266.8358498713227505
  Basis Set: 6-31G*
  Basis Set:
  Basis Set: 6-31G*
  Basis Set:
  @DF-RHF Final Energy:  -266.83585476199914
    Total Energy =                       -266.8358547619993146
  Basis Set: 6-31G*
  Basis Set:
  Charge       = 0
  Multiplicity = 1
  Basis Set: 6-31G*
  Basis Set:

    Orbital Energies (a.u.)
    -----------------------

    Doubly Occupied:

       1A    -20.605398     2A    -20.546829     3A    -11.376554
       4A    -11.282433     5A    -11.234785     6A     -1.470925
       7A     -1.364641     8A     -1.035793     9A     -0.953126
      10A     -0.778263    11A     -0.695734    12A     -0.680969
      13A     -0.677117    14A     -0.595556    15A     -0.592093
      16A     -0.561090    17A     -0.526778    18A     -0.521785
      19A     -0.457865    20A     -0.442322

  @DF-RHF Final Energy:  -266.83585548720180

   => Energetics <=

    Nuclear Repulsion Energy =            183.2937653250560288
    One-Electron Energy =                -727.4591334943474976
    Two-Electron Energy =                 277.3295126820897849
    DFT Exchange-Correlation Energy =       0.0000000000000000
    Empirical Dispersion Energy =           0.0000000000000000
    PCM Polarization Energy =               0.0000000000000000
    EFP Energy =                            0.0000000000000000
    Total Energy =                       -266.8358554872016839
    Molecular point group: c1
  Basis Set: 6-31G*
  Basis Set:

  -Total Gradient:
     Atom            X                  Y                   Z
    ------   -----------------  -----------------  -----------------
       1       -0.000056699792     0.000053430820    -0.003596605184
       2       -0.000032825865    -0.000299258078     0.006647396700
       3        0.000009225722    -0.000000067067     0.000105938008
       4        0.000352725706     0.000649897866    -0.005823505445
       5       -0.000005877189     0.000012540146    -0.000039752377
       6        0.000003227703     0.000003516184    -0.000011968391
       7        0.000010042768    -0.000011731540    -0.000040750096
       8       -0.000285971651    -0.000413735441     0.002801243254
       9        0.000002904847     0.000012402599    -0.000012223103
      10        0.000003812333    -0.000001810349    -0.000008927866
      11       -0.000000564585    -0.000005185143    -0.000020845501

  **** Optimization is complete! (in 5 steps) ****
    Final optimized geometry and variables:
    Molecular point group: c1

    Geometry (in Angstrom), charge = 0, multiplicity = 1:

    O           -0.291593083981     1.326782851472    -0.013084265471
    C           -0.448056977038     0.149378369421    -0.029855179221
    C           -1.780776521846    -0.547349723857    -0.059192032247
    O            0.554119161603    -0.720108710790    -0.058505806434
    H           -1.844561663757    -1.176949147265    -0.939111216162
    H           -2.573000144789     0.186153428490    -0.070093361391
    H           -1.878426104424    -1.187323350868     0.810124323543
    C            1.857023720239    -0.204945839623     0.150191286529
    H            2.128119692318     0.479579354853    -0.640303471621
    H            2.516006200262    -1.059054872990     0.147751145464
    H            1.912457995310     0.308067462694     1.099786946157

  Mulliken Charges: (a.u.)
   Center  Symbol    Alpha    Beta     Spin     Total
       1     O     4.28128  4.28128  0.00000 -0.56257
       2     C     2.62258  2.62258  0.00000  0.75485
       3     C     3.28186  3.28186  0.00000 -0.56371
       4     O     4.29961  4.29961  0.00000 -0.59922
       5     H     0.39926  0.39926  0.00000  0.20148
       6     H     0.39661  0.39661  0.00000  0.20679
       7     H     0.40062  0.40062  0.00000  0.19876
       8     C     3.09253  3.09253  0.00000 -0.18506
       9     H     0.40717  0.40717  0.00000  0.18565
      10     H     0.40824  0.40824  0.00000  0.18352
      11     H     0.41025  0.41025  0.00000  0.17951

   Total alpha = 20.00000, Total beta = 20.00000, Total charge =  0.00000
