  ==> Input File <==

--------------------------------------------------------------------------
set {
	reference rhf
	basis 6-31G*
}

set_num_threads( 1 )
memory 2 gb

molecule MOL {
0 1

O	 2.773411	 -0.393144	 -0.110583
C	 1.705091	 0.115954	 0.001797
C	 0.381791	 -0.609817	 0.001258
O	 1.535917	 1.423798	 0.150327
C	 -0.823008	 0.326187	 0.001381
H	 0.371250	 -1.265087	 -0.865474
H	 0.370908	 -1.265746	 0.867490
C	 -2.149452	 -0.435131	 -0.000098
H	 -0.770201	 0.977095	 -0.865636
H	 -0.771220	 0.975655	 0.869608
C	 -3.368779	 0.488503	 -0.000883
H	 -2.193746	 -1.087250	 -0.871175
H	 -2.195311	 -1.087803	 0.870418
C	 -4.693822	 -0.272754	 -0.001129
H	 -3.325798	 1.139422	 -0.871284
H	 -3.326423	 1.139959	 0.869145
H	 -4.781274	 -0.907928	 -0.878124
H	 -5.538651	 0.408946	 -0.001420
H	 -4.781694	 -0.907783	 0.875984
C	 2.703446	 2.224705	 0.169837
H	 3.346152	 1.939670	 0.990333
H	 2.362544	 3.240307	 0.297168
H	 3.247660	 2.125950	 -0.758378

	symmetry c1
}
set optking {
	frozen_dihedral = ("
		15 11 8 12,
		9 5 8 12,
		9 5 3 6,
		1 2 4 20
	")
}

ee = energy('scf')
oeprop('DIPOLE', 'QUADRUPOLE', 'MULLIKEN_CHARGES')
f=open( 'psi4out.xyz', 'w' )
f.write( "23  " )
f.write( str(ee) + "\n" )
f.write( MOL.save_string_xyz() )
f.close()
--------------------------------------------------------------------------

    Molecular point group: c1

    Geometry (in Angstrom), charge = 0, multiplicity = 1:

       Center              X                  Y                   Z               Mass
    ------------   -----------------  -----------------  -----------------  -----------------
           O          2.958930762840    -0.731384257729    -0.135444376255    15.994914619560
           C          1.890610762840    -0.222286257729    -0.023064376255    12.000000000000
           C          0.567310762840    -0.948057257729    -0.023603376255    12.000000000000
           O          1.721436762840     1.085557742271     0.125465623745    15.994914619560
           C         -0.637488237160    -0.012053257729    -0.023480376255    12.000000000000
           H          0.556769762840    -1.603327257729    -0.890335376255     1.007825032070
           H          0.556427762840    -1.603986257729     0.842628623745     1.007825032070
           C         -1.963932237160    -0.773371257729    -0.024959376255    12.000000000000
           H         -0.584681237160     0.638854742271    -0.890497376255     1.007825032070
           H         -0.585700237160     0.637414742271     0.844746623745     1.007825032070
           C         -3.183259237160     0.150262742271    -0.025744376255    12.000000000000
           H         -2.008226237160    -1.425490257729    -0.896036376255     1.007825032070
           H         -2.009791237160    -1.426043257729     0.845556623745     1.007825032070
           C         -4.508302237160    -0.610994257729    -0.025990376255    12.000000000000
           H         -3.140278237160     0.801181742271    -0.896145376255     1.007825032070
           H         -3.140903237160     0.801718742271     0.844283623745     1.007825032070
           H         -4.595754237160    -1.246168257729    -0.902985376255     1.007825032070
           H         -5.353131237160     0.070705742271    -0.026281376255     1.007825032070
           H         -4.596174237160    -1.246023257729     0.851122623745     1.007825032070
           C          2.888965762840     1.886464742271     0.144975623745    12.000000000000
           H          3.531671762840     1.601429742271     0.965471623745     1.007825032070
           H          2.548063762840     2.902066742271     0.272306623745     1.007825032070
           H          3.433179762840     1.787709742271    -0.783239376255     1.007825032070

  Charge       = 0
  Multiplicity = 1
  Basis Set: 6-31G*
  Basis Set:

    Orbital Energies (a.u.)
    -----------------------

    Doubly Occupied:

       1A    -20.605321     2A    -20.542238     3A    -11.372603
       4A    -11.281260     5A    -11.235523     6A    -11.220915
       7A    -11.218863     8A    -11.218199     9A    -11.210987
      10A     -1.469976    11A     -1.361806    12A     -1.096357
      13A     -1.046075    14A     -0.981508    15A     -0.935302
      16A     -0.847101    17A     -0.796588    18A     -0.774083
      19A     -0.694690    20A     -0.685264    21A     -0.670350
      22A     -0.651758    23A     -0.609906    24A     -0.590624
      25A     -0.576415    26A     -0.560690    27A     -0.557524
      28A     -0.524440    29A     -0.521714    30A     -0.507152
      31A     -0.488772    32A     -0.480909    33A     -0.469141
      34A     -0.467932    35A     -0.450949    36A     -0.425042

  @DF-RHF Final Energy:  -422.97226949081460

   => Energetics <=

    Nuclear Repulsion Energy =            457.6612116140427133
    One-Electron Energy =               -1482.9706445477406760
    Two-Electron Energy =                 602.3371634428847301
    DFT Exchange-Correlation Energy =       0.0000000000000000
    Empirical Dispersion Energy =           0.0000000000000000
    PCM Polarization Energy =               0.0000000000000000
    EFP Energy =                            0.0000000000000000
    Total Energy =                       -422.9722694908132326

  Mulliken Charges: (a.u.)
   Center  Symbol    Alpha    Beta     Spin     Total
       1     O     4.28850  4.28850  0.00000 -0.57700
       2     C     2.60072  2.60072  0.00000  0.79856
       3     C     3.21606  3.21606  0.00000 -0.43212
       4     O     4.30555  4.30555  0.00000 -0.61110
       5     C     3.15058  3.15058  0.00000 -0.30116
       6     H     0.39803  0.39803  0.00000  0.20394
       7     H     0.39824  0.39824  0.00000  0.20352
       8     C     3.15330  3.15330  0.00000 -0.30660
       9     H     0.41499  0.41499  0.00000  0.17003
      10     H     0.41187  0.41187  0.00000  0.17626
      11     C     3.15136  3.15136  0.00000 -0.30272
      12     H     0.42357  0.42357  0.00000  0.15286
      13     H     0.42367  0.42367  0.00000  0.15266
      14     C     3.23954  3.23954  0.00000 -0.47908
      15     H     0.42221  0.42221  0.00000  0.15559
      16     H     0.42217  0.42217  0.00000  0.15565
      17     H     0.42141  0.42141  0.00000  0.15718
      18     H     0.41866  0.41866  0.00000  0.16269
      19     H     0.42148  0.42148  0.00000  0.15704
      20     C     3.09199  3.09199  0.00000 -0.18398
      21     H     0.40864  0.40864  0.00000  0.18271
      22     H     0.40884  0.40884  0.00000  0.18231
      23     H     0.40861  0.40861  0.00000  0.18277

   Total alpha = 36.00000, Total beta = 36.00000, Total charge =  0.00000
