  ==> Input File <==

--------------------------------------------------------------------------
set {
	reference rhf
	basis 6-31G*
}

set_num_threads( 4 )
memory 2 gb

molecule MOL {
0 1

H	 -2.424759	 0.139789	 -0.846863
C	 -1.805396	 0.772356	 -0.219496
N	 -0.528168	 0.128977	 -0.000000
H	 -2.316811	 0.899830	 0.727733
H	 -1.730928	 1.749809	 -0.703548
C	 0.248044	 -0.037491	 -1.209632
H	 0.000683	 0.647690	 0.672519
H	 0.998722	 0.743888	 -1.266824
H	 -0.398417	 0.061950	 -2.074060
H	 0.763621	 -0.999315	 -1.275517

	symmetry c1
}
set optking {
	frozen_dihedral = ("
		2 3 6 8
	")
}

ee = optimize('scf')
oeprop('DIPOLE', 'QUADRUPOLE', 'MULLIKEN_CHARGES')
f=open( 'psi4out.xyz', 'w' )
f.write( "10  " )
f.write( str(ee) + "\n" )
f.write( MOL.save_string_xyz() )
f.close()
--------------------------------------------------------------------------

    Molecular point group: c1
  Charge       = 0
  Multiplicity = 1
  Basis Set: 6-31G*
  Basis Set:
  @DF-RHF Final Energy:  -134.23318806760537
    Total Energy =                       -134.2331880676055107
    Molecular point group: c1
  Basis Set: 6-31G*
  Basis Set:
  Basis Set: 6-31G*
  Basis Set:
  @DF-RHF Final Energy:  -134.23429530551527
    Total Energy =                       -134.2342953055152748
  Basis Set: 6-31G*
  Basis Set:
  Basis Set: 6-31G*
  Basis Set:
  @DF-RHF Final Energy:  -134.23442318476694
    Total Energy =                       -134.2344231847669676
  Basis Set: 6-31G*
  Basis Set:
  Basis Set: 6-31G*
  Basis Set:
  @DF-RHF Final Energy:  -134.23442924556778
    Total Energy =                       -134.2344292455677248
  Basis Set: 6-31G*
  Basis Set:
  Charge       = 0
  Multiplicity = 1
  Basis Set: 6-31G*
  Basis Set:

    Orbital Energies (a.u.)
    -----------------------

    Doubly Occupied:

       1A    -15.534223     2A    -11.236064     3A    -11.235592
       4A     -1.194353     5A     -0.947710     6A     -0.854585
       7A     -0.660753     8A     -0.606730     9A     -0.588462
      10A     -0.543946    11A     -0.513431    12A     -0.506985
      13A     -0.353582

  @DF-RHF Final Energy:  -134.23443010219000

   => Energetics <=

    Nuclear Repulsion Energy =             84.3947380380242151
    One-Electron Energy =                -347.7055044572884981
    Two-Electron Energy =                 129.0763363170742082
    DFT Exchange-Correlation Energy =       0.0000000000000000
    Empirical Dispersion Energy =           0.0000000000000000
    PCM Polarization Energy =               0.0000000000000000
    EFP Energy =                            0.0000000000000000
    Total Energy =                       -134.2344301021900606
    Molecular point group: c1
  Basis Set: 6-31G*
  Basis Set:

  -Total Gradient:
     Atom            X                  Y                   Z
    ------   -----------------  -----------------  -----------------
       1       -0.000000156596    -0.000000858199     0.000000560123
       2       -0.001094765226    -0.002276863792    -0.000423348489
       3        0.002153313516     0.002704626188     0.001139199966
       4        0.000016805771    -0.000007856859    -0.000007776860
       5        0.000012137622    -0.000012036372     0.000011660015
       6       -0.003222496110     0.001561595117    -0.002474161462
       7       -0.000008748035     0.000002071282     0.000011066310
       8        0.002121811417    -0.001955886197     0.001699993559
       9        0.000014864335    -0.000005995328     0.000034553321
      10        0.000007233305    -0.000008795840     0.000008253517

  **** Optimization is complete! (in 5 steps) ****
    Final optimized geometry and variables:
    Molecular point group: c1

    Geometry (in Angstrom), charge = 0, multiplicity = 1:

    H           -1.744607197808    -0.158838279245    -0.354587225591
    C           -1.124127905955     0.463048701952     0.281358300995
    N            0.159809030542    -0.173882351943     0.474188739758
    H           -1.625858891310     0.556086327903     1.237925345774
    H           -1.071924985208     1.456836058165    -0.171553434546
    C            0.958257894904    -0.340297027473    -0.728171975322
    H            0.682348904262     0.292607333649     1.185777912988
    H            1.733935998211     0.416997247271    -0.836143858350
    H            0.326054881370    -0.303054636306    -1.607539009162
    H            1.454594449437    -1.306234906723    -0.722290300868

  Mulliken Charges: (a.u.)
   Center  Symbol    Alpha    Beta     Spin     Total
       1     H     0.41800  0.41800  0.00000  0.16401
       2     C     3.14205  3.14205  0.00000 -0.28409
       3     N     3.84628  3.84628  0.00000 -0.69257
       4     H     0.41808  0.41808  0.00000  0.16384
       5     H     0.43524  0.43524  0.00000  0.12952
       6     C     3.14345  3.14345  0.00000 -0.28690
       7     H     0.33076  0.33076  0.00000  0.33848
       8     H     0.42941  0.42941  0.00000  0.14118
       9     H     0.42017  0.42017  0.00000  0.15967
      10     H     0.41657  0.41657  0.00000  0.16686

   Total alpha = 13.00000, Total beta = 13.00000, Total charge =  0.00000
