  ==> Input File <==

--------------------------------------------------------------------------
set {
	reference rhf
	basis cc-pvtz
}

set_num_threads( 4 )
memory 2 gb

molecule MOL {
0 1

H	 3.042960	 -0.068326	 0.305133
O	 2.346458	 0.482891	 0.000011
C	 1.135873	 0.113391	 0.608264
C	 0.027642	 1.012027	 0.090274
H	 1.206017	 0.222916	 1.687547
H	 0.910674	 -0.929307	 0.402041
C	 -1.138737	 0.285728	 -0.581921
H	 0.464661	 1.708096	 -0.618252
H	 -0.340737	 1.603071	 0.925246
C	 -1.933983	 -0.631436	 0.343653
H	 -0.763151	 -0.285569	 -1.422081
H	 -1.808359	 1.035291	 -0.992333
H	 -2.789188	 -1.049673	 -0.174718
H	 -1.335629	 -1.461368	 0.700418
H	 -2.305435	 -0.092167	 1.209725

	symmetry c1
}
set optking {
	frozen_dihedral = ("
		2 3 4 8
	")
}

ee = optimize('scf')
oeprop('DIPOLE', 'QUADRUPOLE', 'MULLIKEN_CHARGES')
f=open( 'psi4out.xyz', 'w' )
f.write( "15  " )
f.write( str(ee) + "\n" )
f.write( MOL.save_string_xyz() )
f.close()
--------------------------------------------------------------------------

    Molecular point group: c1
  Charge       = 0
  Multiplicity = 1
  Basis Set: CC-PVTZ
  Basis Set:
  @DF-RHF Final Energy:  -232.23153041389514
    Total Energy =                       -232.2315304138952001
    Molecular point group: c1
  Basis Set: CC-PVTZ
  Basis Set:
  Basis Set: CC-PVTZ
  Basis Set:
  @DF-RHF Final Energy:  -232.23200098183287
    Total Energy =                       -232.2320009818325843
  Basis Set: CC-PVTZ
  Basis Set:
  Basis Set: CC-PVTZ
  Basis Set:
  @DF-RHF Final Energy:  -232.23218607361670
    Total Energy =                       -232.2321860736166173
  Basis Set: CC-PVTZ
  Basis Set:
  Basis Set: CC-PVTZ
  Basis Set:
  @DF-RHF Final Energy:  -232.23218123431741
    Total Energy =                       -232.2321812343175225
  Basis Set: CC-PVTZ
  Basis Set:
  Basis Set: CC-PVTZ
  Basis Set:
  @DF-RHF Final Energy:  -232.23219577574412
    Total Energy =                       -232.2321957757441737
  Basis Set: CC-PVTZ
  Basis Set:
  Basis Set: CC-PVTZ
  Basis Set:
  @DF-RHF Final Energy:  -232.23219805306732
    Total Energy =                       -232.2321980530674637
  Basis Set: CC-PVTZ
  Basis Set:
  Charge       = 0
  Multiplicity = 1
  Basis Set: CC-PVTZ
  Basis Set:

    Orbital Energies (a.u.)
    -----------------------

    Doubly Occupied:

       1A    -20.545297     2A    -11.265663     3A    -11.214455
       4A    -11.209462     5A    -11.208331     6A     -1.362362
       7A     -1.068714     8A     -0.969814     9A     -0.870333
      10A     -0.784035    11A     -0.704717    12A     -0.648022
      13A     -0.605833    14A     -0.591024    15A     -0.558451
      16A     -0.537358    17A     -0.510497    18A     -0.476393
      19A     -0.472396    20A     -0.455892    21A     -0.432079

  @DF-RHF Final Energy:  -232.23219811424289

   => Energetics <=

    Nuclear Repulsion Energy =            188.4296562380985449
    One-Electron Energy =                -688.3414558187914736
    Two-Electron Energy =                 267.6796014664499808
    DFT Exchange-Correlation Energy =       0.0000000000000000
    Empirical Dispersion Energy =           0.0000000000000000
    PCM Polarization Energy =               0.0000000000000000
    EFP Energy =                            0.0000000000000000
    Total Energy =                       -232.2321981142429195
    Molecular point group: c1
  Basis Set: CC-PVTZ
  Basis Set:

  -Total Gradient:
     Atom            X                  Y                   Z
    ------   -----------------  -----------------  -----------------
       1       -0.000003978199    -0.000000216212    -0.000001313332
       2       -0.000106571142    -0.000385236259    -0.000484072784
       3        0.000182375209     0.000600635515     0.000753100664
       4       -0.000191879948    -0.000718977759    -0.000890218928
       5       -0.000000189436    -0.000002204195     0.000002506386
       6       -0.000000991909    -0.000000768708     0.000002499945
       7       -0.000017326414     0.000016219752     0.000006121376
       8        0.000135058603     0.000499198280     0.000622498748
       9       -0.000003177229    -0.000001765755    -0.000006382850
      10        0.000009274286    -0.000006504286    -0.000004315363
      11       -0.000000871524    -0.000003424646     0.000007019409
      12       -0.000000032494     0.000003124288    -0.000005206131
      13        0.000001484122    -0.000001404325    -0.000001505145
      14       -0.000001282240    -0.000002271397     0.000002821065
      15       -0.000001891688     0.000003595710    -0.000003553059

  **** Optimization is complete! (in 7 steps) ****
    Final optimized geometry and variables:
    Molecular point group: c1

    Geometry (in Angstrom), charge = 0, multiplicity = 1:

    H            2.918556802465    -0.270337819929     0.172035629146
    O            2.206062524998     0.270311028521    -0.115739677607
    C            1.009249964736    -0.151750152505     0.490462805770
    C           -0.128922493490     0.759218223181     0.015317654321
    H            1.106381033068    -0.115511183292     1.571415222004
    H            0.805630032149    -1.183666540316     0.218102681088
    C           -1.278583717305     0.032344640626    -0.681672102772
    H            0.308519678183     1.481666170188    -0.661549380425
    H           -0.523290785460     1.325359241821     0.853437873382
    C           -2.108075711885    -0.850118685611     0.247735895083
    H           -0.880473690317    -0.566805758714    -1.495902671890
    H           -1.931163014015     0.770290450502    -1.137259191259
    H           -2.908703153380    -1.341342075806    -0.293150973440
    H           -1.507386567959    -1.624020955074     0.713242527304
    H           -2.557418258868    -0.261586504649     1.041063752667

  Mulliken Charges: (a.u.)
   Center  Symbol    Alpha    Beta     Spin     Total
       1     H     0.39553  0.39553  0.00000  0.20894
       2     O     4.19847  4.19847  0.00000 -0.39693
       3     C     2.96483  2.96483  0.00000  0.07034
       4     C     3.09508  3.09508  0.00000 -0.19016
       5     H     0.47144  0.47144  0.00000  0.05712
       6     H     0.47490  0.47490  0.00000  0.05021
       7     C     3.09645  3.09645  0.00000 -0.19290
       8     H     0.44028  0.44028  0.00000  0.11944
       9     H     0.45386  0.45386  0.00000  0.09228
      10     C     3.14918  3.14918  0.00000 -0.29837
      11     H     0.45173  0.45173  0.00000  0.09654
      12     H     0.44916  0.44916  0.00000  0.10168
      13     H     0.44757  0.44757  0.00000  0.10485
      14     H     0.45684  0.45684  0.00000  0.08632
      15     H     0.45468  0.45468  0.00000  0.09064

   Total alpha = 21.00000, Total beta = 21.00000, Total charge = -0.00000
