  ==> Input File <==

--------------------------------------------------------------------------
set {
	reference rhf
	basis 6-31G*
}

set_num_threads( 4 )
memory 2 gb

molecule MOL {
0 1

H	 -2.431244	 2.344052	 0.919368
O	 -1.743603	 1.747771	 0.659554
C	 -2.306886	 0.532354	 0.237577
C	 -1.177863	 -0.397191	 -0.171080
H	 -2.889558	 0.081238	 1.039633
H	 -2.979954	 0.693546	 -0.603456
C	 0.198102	 0.111031	 0.262842
H	 -1.208843	 -0.518759	 -1.250427
H	 -1.368741	 -1.376554	 0.258909
C	 1.331804	 -0.827780	 -0.158768
H	 0.361943	 1.100838	 -0.156218
H	 0.217265	 0.229072	 1.345532
C	 2.723619	 -0.410569	 0.329459
H	 1.342964	 -0.912588	 -1.244120
H	 1.116806	 -1.824343	 0.220779
C	 3.243875	 0.895854	 -0.272975
H	 3.424222	 -1.207124	 0.091250
H	 2.714788	 -0.329854	 1.414619
H	 3.251977	 0.848779	 -1.358681
H	 2.637085	 1.747371	 0.016682
H	 4.259473	 1.094070	 0.055697

	symmetry c1
}
set optking {
	frozen_dihedral = ("
		2 3 4 8
	")
}

ee = optimize('scf')
oeprop('DIPOLE', 'QUADRUPOLE', 'MULLIKEN_CHARGES')
f=open( 'psi4out.xyz', 'w' )
f.write( "21  " )
f.write( str(ee) + "\n" )
f.write( MOL.save_string_xyz() )
f.close()
--------------------------------------------------------------------------

    Molecular point group: c1
  Charge       = 0
  Multiplicity = 1
  Basis Set: 6-31G*
  Basis Set:
  @DF-RHF Final Energy:  -310.20337131032829
    Total Energy =                       -310.2033713103285208
    Molecular point group: c1
  Basis Set: 6-31G*
  Basis Set:
  Basis Set: 6-31G*
  Basis Set:
  @DF-RHF Final Energy:  -310.20384016094033
    Total Energy =                       -310.2038401609405582
  Basis Set: 6-31G*
  Basis Set:
  Basis Set: 6-31G*
  Basis Set:
  @DF-RHF Final Energy:  -310.20524800135115
    Total Energy =                       -310.2052480013511513
  Basis Set: 6-31G*
  Basis Set:
  Basis Set: 6-31G*
  Basis Set:
  @DF-RHF Final Energy:  -310.20530265969313
    Total Energy =                       -310.2053026596930749
  Basis Set: 6-31G*
  Basis Set:
  Basis Set: 6-31G*
  Basis Set:
  @DF-RHF Final Energy:  -310.20531181767211
    Total Energy =                       -310.2053118176722251
  Basis Set: 6-31G*
  Basis Set:
  Basis Set: 6-31G*
  Basis Set:
  @DF-RHF Final Energy:  -310.20531429619797
    Total Energy =                       -310.2053142961984804
  Basis Set: 6-31G*
  Basis Set:
  Charge       = 0
  Multiplicity = 1
  Basis Set: 6-31G*
  Basis Set:

    Orbital Energies (a.u.)
    -----------------------

    Doubly Occupied:

       1A    -20.552504     2A    -11.268877     3A    -11.212819
       4A    -11.209176     5A    -11.206755     6A    -11.202930
       7A    -11.201808     8A     -1.359158     9A     -1.077650
      10A     -1.025417    11A     -0.950731    12A     -0.875145
      13A     -0.799706    14A     -0.771472    15A     -0.695532
      16A     -0.653877    17A     -0.617118    18A     -0.601996
      19A     -0.583585    20A     -0.561220    21A     -0.532998
      22A     -0.519521    23A     -0.494685    24A     -0.492702
      25A     -0.481402    26A     -0.456488    27A     -0.447471
      28A     -0.435903    29A     -0.423240

  @DF-RHF Final Energy:  -310.20531443744341

   => Energetics <=

    Nuclear Repulsion Energy =            318.1669846650890463
    One-Electron Energy =               -1051.3208320386620471
    Two-Electron Energy =                 422.9485329361296522
    DFT Exchange-Correlation Energy =       0.0000000000000000
    Empirical Dispersion Energy =           0.0000000000000000
    PCM Polarization Energy =               0.0000000000000000
    EFP Energy =                            0.0000000000000000
    Total Energy =                       -310.2053144374432918
    Molecular point group: c1
  Basis Set: 6-31G*
  Basis Set:

  -Total Gradient:
     Atom            X                  Y                   Z
    ------   -----------------  -----------------  -----------------
       1        0.000003894636    -0.000018088490    -0.000004725648
       2        0.000287031724    -0.001081164519     0.003108817792
       3       -0.000929518518     0.000715039242    -0.003965239547
       4        0.003052684614     0.003912309596     0.000409990199
       5       -0.000001152401    -0.000040336021    -0.000019073896
       6        0.000001756763    -0.000032228008    -0.000012920352
       7        0.000026399607     0.000010817856     0.000007780607
       8       -0.002436932169    -0.003467107797     0.000468996011
       9       -0.000008758625     0.000006991351     0.000003371558
      10        0.000000181914    -0.000007774452     0.000009556880
      11        0.000011376708     0.000005435813     0.000004151786
      12        0.000008381134    -0.000002727692    -0.000006635700
      13       -0.000004666253     0.000004787988    -0.000000972327
      14        0.000000490399    -0.000003346915    -0.000000611880
      15       -0.000003755557    -0.000002985617     0.000000290420
      16       -0.000002004030    -0.000003259454    -0.000000613859
      17        0.000000794334     0.000004593471    -0.000004029005
      18        0.000000073065    -0.000003321943    -0.000000630094
      19       -0.000001004900    -0.000001554012     0.000001334172
      20       -0.000006188752     0.000001571344     0.000001555890
      21        0.000000916306     0.000002348257    -0.000000393009

  **** Optimization is complete! (in 7 steps) ****
    Final optimized geometry and variables:
    Molecular point group: c1

    Geometry (in Angstrom), charge = 0, multiplicity = 1:

    H           -2.897636024830     2.034383977025     0.785458891768
    O           -2.153916869738     1.503655212100     0.538434486409
    C           -2.607902943799     0.244057734353     0.108029529119
    C           -1.421657013700    -0.640757052181    -0.320661922664
    H           -3.146975575024    -0.239559190524     0.919901588051
    H           -3.305952774157     0.355203371577    -0.718161105067
    C           -0.043027148598    -0.150199570527     0.126491888150
    H           -1.438170994750    -0.775344727828    -1.399154449409
    H           -1.585998264588    -1.636415901241     0.085441157817
    C            1.067559440488    -1.116307587216    -0.294938803919
    H            0.135578532966     0.835208492009    -0.284675933094
    H           -0.032723696231    -0.034881733190     1.207086657663
    C            2.468464684453    -0.722977790380     0.188167864660
    H            1.077369272310    -1.206819442612    -1.380494934983
    H            0.837642840520    -2.108646612268     0.088860984400
    C            3.010693307866     0.570369018690    -0.422940909370
    H            3.154479051234    -1.533651825843    -0.046048210735
    H            2.462363661023    -0.634825170465     1.272704914333
    H            3.018032351892     0.515351356202    -1.508404416696
    H            2.417416446764     1.432921320865    -0.139326460634
    H            4.029753013300     0.753577764952    -0.095686241184

  Mulliken Charges: (a.u.)
   Center  Symbol    Alpha    Beta     Spin     Total
       1     H     0.28057  0.28057  0.00000  0.43887
       2     O     4.37134  4.37134  0.00000 -0.74268
       3     C     2.99063  2.99063  0.00000  0.01874
       4     C     3.17542  3.17542  0.00000 -0.35084
       5     H     0.43101  0.43101  0.00000  0.13798
       6     H     0.42953  0.42953  0.00000  0.14093
       7     C     3.14619  3.14619  0.00000 -0.29238
       8     H     0.41958  0.41958  0.00000  0.16084
       9     H     0.42160  0.42160  0.00000  0.15679
      10     C     3.15422  3.15422  0.00000 -0.30845
      11     H     0.40882  0.40882  0.00000  0.18237
      12     H     0.41950  0.41950  0.00000  0.16101
      13     C     3.15143  3.15143  0.00000 -0.30285
      14     H     0.42603  0.42603  0.00000  0.14795
      15     H     0.42494  0.42494  0.00000  0.15013
      16     C     3.24137  3.24137  0.00000 -0.48275
      17     H     0.42274  0.42274  0.00000  0.15451
      18     H     0.42355  0.42355  0.00000  0.15289
      19     H     0.42333  0.42333  0.00000  0.15334
      20     H     0.41743  0.41743  0.00000  0.16514
      21     H     0.42077  0.42077  0.00000  0.15846

   Total alpha = 29.00000, Total beta = 29.00000, Total charge =  0.00000
