  ==> Input File <==

--------------------------------------------------------------------------
set {
	reference rhf
	basis 6-31G*
}

set_num_threads( 4 )
memory 2 gb

molecule MOL {
0 1

H	 -3.918283	 -1.427527	 -0.970217
C	 -2.850435	 -1.303229	 -1.002380
C	 -2.198454	 -1.239236	 -2.224662
C	 -2.130651	 -1.207553	 0.178167
H	 -2.757869	 -1.313569	 -3.139482
C	 -0.825394	 -1.079404	 -2.265210
H	 -2.637771	 -1.257370	 1.124714
C	 -0.756129	 -1.047528	 0.140006
H	 -0.304209	 -1.027848	 -3.201895
C	 -0.099734	 -0.983030	 -1.083410
H	 -0.195154	 -0.973051	 1.051094
C	 1.377298	 -0.811633	 -1.181686
O	 1.970282	 -0.730723	 0.000018
O	 1.973385	 -0.752265	 -2.211256
C	 3.377318	 -0.566646	 -0.000065
H	 3.695437	 -0.028981	 -0.881264
H	 3.789299	 -1.563704	 0.000236
H	 3.695516	 -0.028316	 0.880770

	symmetry c1
}
set optking {
	frozen_dihedral = ("
		12 13 15 16
	")
}

ee = optimize('scf')
oeprop('DIPOLE', 'QUADRUPOLE', 'MULLIKEN_CHARGES')
f=open( 'psi4out.xyz', 'w' )
f.write( "18  " )
f.write( str(ee) + "\n" )
f.write( MOL.save_string_xyz() )
f.close()
--------------------------------------------------------------------------

    Molecular point group: c1
  Charge       = 0
  Multiplicity = 1
  Basis Set: 6-31G*
  Basis Set:
  @DF-RHF Final Energy:  -457.34815040323463
    Total Energy =                       -457.3481504032339444
    Molecular point group: c1
  Basis Set: 6-31G*
  Basis Set:
  Basis Set: 6-31G*
  Basis Set:
  @DF-RHF Final Energy:  -457.34909994487606
    Total Energy =                       -457.3490999448756611
  Basis Set: 6-31G*
  Basis Set:
  Basis Set: 6-31G*
  Basis Set:
  @DF-RHF Final Energy:  -457.34920426258088
    Total Energy =                       -457.3492042625805425
  Basis Set: 6-31G*
  Basis Set:
  Basis Set: 6-31G*
  Basis Set:
  @DF-RHF Final Energy:  -457.34937825959634
    Total Energy =                       -457.3493782595967332
  Basis Set: 6-31G*
  Basis Set:
  Basis Set: 6-31G*
  Basis Set:
  @DF-RHF Final Energy:  -457.34947984803682
    Total Energy =                       -457.3494798480367081
  Basis Set: 6-31G*
  Basis Set:
  Charge       = 0
  Multiplicity = 1
  Basis Set: 6-31G*
  Basis Set:

    Orbital Energies (a.u.)
    -----------------------

    Doubly Occupied:

       1A    -20.607203     2A    -20.544026     3A    -11.378724
       4A    -11.282250     5A    -11.245231     6A    -11.245036
       7A    -11.243801     8A    -11.241389     9A    -11.237190
      10A    -11.236428    11A     -1.471358    12A     -1.364265
      13A     -1.164970    14A     -1.047932    15A     -1.024521
      16A     -0.978844    17A     -0.859908    18A     -0.834016
      19A     -0.777451    20A     -0.739952    21A     -0.683654
      22A     -0.675889    23A     -0.671717    24A     -0.631188
      25A     -0.623718    26A     -0.597542    27A     -0.585271
      28A     -0.564138    29A     -0.526632    30A     -0.516434
      31A     -0.503524    32A     -0.498495    33A     -0.457349
      34A     -0.444330    35A     -0.344653    36A     -0.340695

  @DF-RHF Final Energy:  -457.34948009825411

   => Energetics <=

    Nuclear Repulsion Energy =            492.7838617341108716
    One-Electron Energy =               -1599.8872350782887679
    Two-Electron Energy =                 649.7538932459239049
    DFT Exchange-Correlation Energy =       0.0000000000000000
    Empirical Dispersion Energy =           0.0000000000000000
    PCM Polarization Energy =               0.0000000000000000
    EFP Energy =                            0.0000000000000000
    Total Energy =                       -457.3494800982540482
    Molecular point group: c1
  Basis Set: 6-31G*
  Basis Set:

  -Total Gradient:
     Atom            X                  Y                   Z
    ------   -----------------  -----------------  -----------------
       1        0.000001328720    -0.000001271069    -0.000000832075
       2       -0.000000877767    -0.000001910423    -0.000009790256
       3       -0.000000119494     0.000011683447    -0.000002920374
       4        0.000020172764     0.000004658269     0.000002528280
       5        0.000004668691     0.000002982084    -0.000001442482
       6        0.000024892241    -0.000017621326     0.000000837138
       7        0.000008170532     0.000002304480     0.000001318528
       8        0.000031121944    -0.000013615376    -0.000020209188
       9        0.000003212983     0.000001442463    -0.000011457687
      10        0.000037346542     0.000015845839     0.000018145031
      11        0.000018259564     0.000007289021     0.000019222245
      12       -0.000099706053     0.001452764519     0.000036934145
      13        0.000247279035    -0.002489219982    -0.000159808733
      14       -0.000089290223     0.000001255735    -0.000126101515
      15       -0.000405815223     0.002418858329     0.001156307511
      16        0.000184807365    -0.001408461181    -0.000859633810
      17       -0.000018455587    -0.000020034760     0.000000009707
      18        0.000033003959     0.000033049930    -0.000043106456

  **** Optimization is complete! (in 6 steps) ****
    Final optimized geometry and variables:
    Molecular point group: c1

    Geometry (in Angstrom), charge = 0, multiplicity = 1:

    H           -4.031027220611    -0.446559932387     0.006744648713
    C           -2.962652539388    -0.329397034296    -0.032757578833
    C           -2.318464925711    -0.270828733596    -1.259456506958
    C           -2.234287170679    -0.237616541791     1.142793075112
    H           -2.884411390041    -0.342284134990    -2.170525743531
    C           -0.944711147956    -0.120453602919    -1.309371104541
    H           -2.735304304978    -0.283320657126     2.092780597384
    C           -0.859023291482    -0.086751450643     1.095196725978
    H           -0.429710851868    -0.073334859065    -2.249644421487
    C           -0.210372833153    -0.027499152286    -0.132610408135
    H           -0.291685340418    -0.015589259700     2.002518913690
    C            1.267388607765     0.134716818341    -0.242102146660
    O            1.864657862946     0.204579125321     0.938443550042
    O            1.851610904689     0.193416795508    -1.278456104457
    C            3.268851328486     0.394784574306     0.968848120455
    H            3.598463390199     0.955756326216     0.109941645726
    H            3.762085861401    -0.568224967724     0.974973472299
    H            3.485741627265     0.923018648373     1.884454481474

  Mulliken Charges: (a.u.)
   Center  Symbol    Alpha    Beta     Spin     Total
       1     H     0.39545  0.39545  0.00000  0.20909
       2     C     3.09000  3.09000  0.00000 -0.18001
       3     C     3.10707  3.10707  0.00000 -0.21415
       4     C     3.10713  3.10713  0.00000 -0.21425
       5     H     0.39544  0.39544  0.00000  0.20912
       6     C     3.08648  3.08648  0.00000 -0.17296
       7     H     0.39635  0.39635  0.00000  0.20730
       8     C     3.08700  3.08700  0.00000 -0.17401
       9     H     0.37595  0.37595  0.00000  0.24810
      10     C     3.07755  3.07755  0.00000 -0.15511
      11     H     0.38055  0.38055  0.00000  0.23890
      12     C     2.57937  2.57937  0.00000  0.84125
      13     O     4.31580  4.31580  0.00000 -0.63159
      14     O     4.29165  4.29165  0.00000 -0.58330
      15     C     3.09554  3.09554  0.00000 -0.19107
      16     H     0.39782  0.39782  0.00000  0.20437
      17     H     0.41184  0.41184  0.00000  0.17632
      18     H     0.40900  0.40900  0.00000  0.18200

   Total alpha = 36.00000, Total beta = 36.00000, Total charge = -0.00000
