                              Psi4 1.0.54 Driver

  ==> Input File <==

--------------------------------------------------------------------------
set {
	reference rhf
	basis cc-pvtz
}

set_num_threads( 4 )
memory 2 gb

molecule MOL {
0 1

H	 -0.171879	 0.813433	 -2.540478
C	 -0.927841	 0.922060	 -1.769528
O	 -0.775228	 0.000056	 -0.739966
H	 -1.893476	 0.732748	 -2.216585
H	 -0.915453	 1.947470	 -1.414544
C	 0.406133	 -0.000384	 0.036994
C	 1.526415	 -0.003194	 -0.997339
C	 0.498772	 1.259027	 0.900673
C	 0.495883	 -1.257378	 0.904465
H	 1.452279	 0.872071	 -1.630204
H	 1.451276	 -0.881020	 -1.626529
H	 2.497919	 -0.002741	 -0.517601
H	 0.368981	 2.144239	 0.289753
H	 1.470064	 1.313479	 1.377660
H	 -0.248448	 1.271586	 1.684297
H	 0.363971	 -2.144195	 0.296316
H	 1.467114	 -1.312636	 1.381470
H	 -0.251246	 -1.265768	 1.688235

	symmetry c1
}
set optking {
	frozen_dihedral = ("
		2 3 6 7
	")
}

ee,wfn = optimize('scf', return_wfn=True)
oeprop( wfn, 'DIPOLE', 'QUADRUPOLE', 'MULLIKEN_CHARGES')
f=open( 'psi4out.xyz', 'w' )
f.write( "18  " )
f.write( str(ee) + "\n" )
f.write( MOL.save_string_xyz() )
f.close()
--------------------------------------------------------------------------

    Molecular point group: c1
  Charge       = 0
  Multiplicity = 1
  Basis Set: CC-PVTZ
  Basis Set:
  @DF-RHF Final Energy:  -271.26700247471200
    Total Energy =                       -271.2670024747121147
    Molecular point group: c1
  Basis Set: CC-PVTZ
  Basis Set:
  Basis Set: CC-PVTZ
  Basis Set:
  @DF-RHF Final Energy:  -271.17645525176965
    Total Energy =                       -271.1764552517695392
  Basis Set: CC-PVTZ
  Basis Set:
  Basis Set: CC-PVTZ
  Basis Set:
  @DF-RHF Final Energy:  -271.25827406490231
    Total Energy =                       -271.2582740649021389
  Basis Set: CC-PVTZ
  Basis Set:
  Basis Set: CC-PVTZ
  Basis Set:
  @DF-RHF Final Energy:  -271.27512624441522
    Total Energy =                       -271.2751262444152758
  Basis Set: CC-PVTZ
  Basis Set:
  @DF-RHF Final Energy:  -271.27403773733772
    Total Energy =                       -271.2740377373376646
  @DF-RHF Final Energy:  -271.27654837426303
    Total Energy =                       -271.2765483742628021
  Basis Set: CC-PVTZ
  Basis Set:
  @DF-RHF Final Energy:  -271.27658946505170
    Total Energy =                       -271.2765894650518703
  Basis Set: CC-PVTZ
  Basis Set:
  Basis Set: CC-PVTZ
  Basis Set:
  @DF-RHF Final Energy:  -271.27660944143031
    Total Energy =                       -271.2766094414302529
  Basis Set: CC-PVTZ
  Basis Set:
  Basis Set: CC-PVTZ
  Basis Set:
  @DF-RHF Final Energy:  -271.27661791905643
    Total Energy =                       -271.2766179190562639
  Basis Set: CC-PVTZ
  Basis Set:
  Charge       = 0
  Multiplicity = 1
  Basis Set: CC-PVTZ
  Basis Set:

    Orbital Energies (a.u.)
    -----------------------

    Doubly Occupied:

       1A    -20.540424     2A    -11.280165     3A    -11.258360
       4A    -11.208553     5A    -11.205646     6A    -11.201932
       7A     -1.373471     8A     -1.074666     9A     -0.947824
      10A     -0.939815    11A     -0.913198    12A     -0.753428
      13A     -0.656877    14A     -0.646924    15A     -0.639721
      16A     -0.592694    17A     -0.575375    18A     -0.553211
      19A     -0.534500    20A     -0.525452    21A     -0.515224
      22A     -0.489829    23A     -0.487479    24A     -0.441355
      25A     -0.406534

  @DF-RHF Final Energy:  -271.27661818188642

   => Energetics <=

    Nuclear Repulsion Energy =            272.6999852589100328
    One-Electron Energy =                -908.4278957662986613
    Two-Electron Energy =                 364.4512923255022656
    DFT Exchange-Correlation Energy =       0.0000000000000000
    Empirical Dispersion Energy =           0.0000000000000000
    PCM Polarization Energy =               0.0000000000000000
    EFP Energy =                            0.0000000000000000
    Total Energy =                       -271.2766181818863629
    Molecular point group: c1
  Basis Set: CC-PVTZ
  Basis Set:

  -Total Gradient:
     Atom            X                  Y                   Z
    ------   -----------------  -----------------  -----------------
       1        0.000024882808    -0.000002485466     0.000038315829
       2        0.000396787945    -0.000691107108    -0.000172717343
       3       -0.000743788056     0.001181394321     0.000027877370
       4        0.000011580190     0.000005448637    -0.000025373508
       5        0.000009056758     0.000054552387     0.000051435992
       6        0.000272528470    -0.001166018278     0.000255959807
       7       -0.000018865119     0.000581730905    -0.000199700942
       8        0.000024980014     0.000020656826     0.000095353028
       9        0.000039163220     0.000046015736     0.000011330823
      10       -0.000025038423     0.000011503677    -0.000044204611
      11        0.000013098701    -0.000048593173     0.000018696099
      12        0.000000830553     0.000016324020    -0.000017876194
      13       -0.000006786086    -0.000012493622    -0.000016792618
      14       -0.000015699231     0.000013405386    -0.000018970442
      15        0.000030489089     0.000004714534     0.000005559133
      16        0.000032500030    -0.000005004195    -0.000029407890
      17       -0.000024432312     0.000009932879     0.000018952307
      18       -0.000021288549    -0.000019977467     0.000001563163

  **** Optimization is complete! (in 10 steps) ****
    Final optimized geometry and variables:
    Molecular point group: c1

    Geometry (in Angstrom), charge = 0, multiplicity = 1:

    H            0.198193851793    -0.549333323899    -2.369054734582
    C           -0.693787761830    -0.160240846363    -1.889249960116
    O           -0.766706800433    -0.513683289748    -0.546400687658
    H           -1.555919441334    -0.595277188999    -2.374696300165
    H           -0.727198539091     0.914203412281    -2.041797217924
    C            0.149279392096     0.040127349018     0.378348946208
    C            1.594640314778    -0.091706893986    -0.103961160848
    C           -0.194481896014     1.506788604596     0.647542511858
    C           -0.054707136650    -0.782579009944     1.645341540487
    H            1.793390433350     0.528420921658    -0.969194999395
    H            1.818685675147    -1.120442831879    -0.360670584180
    H            2.274340403979     0.216662839905     0.681015859311
    H           -0.057718940078     2.121467250591    -0.233576866368
    H            0.442035156448     1.908691590209     1.427154221586
    H           -1.225306850466     1.595593995397     0.967377424760
    H            0.189350920261    -1.821301165234     1.461242610344
    H            0.570884389561    -0.416780191421     2.450945152636
    H           -1.089233794421    -0.730309192856     1.959940520061

  Mulliken Charges: (a.u.)
   Center  Symbol    Alpha    Beta     Spin     Total
       1     H     0.46764  0.46764  0.00000  0.06471
       2     C     3.04445  3.04445  0.00000 -0.08890
       3     O     4.19088  4.19088  0.00000 -0.38176
       4     H     0.44117  0.44117  0.00000  0.11766
       5     H     0.47033  0.47033  0.00000  0.05933
       6     C     2.87403  2.87403  0.00000  0.25194
       7     C     3.16920  3.16920  0.00000 -0.33840
       8     C     3.15774  3.15774  0.00000 -0.31548
       9     C     3.14143  3.14143  0.00000 -0.28285
      10     H     0.44791  0.44791  0.00000  0.10418
      11     H     0.44486  0.44486  0.00000  0.11027
      12     H     0.44634  0.44634  0.00000  0.10732
      13     H     0.44956  0.44956  0.00000  0.10087
      14     H     0.45064  0.45064  0.00000  0.09871
      15     H     0.44670  0.44670  0.00000  0.10660
      16     H     0.44990  0.44990  0.00000  0.10020
      17     H     0.45927  0.45927  0.00000  0.08146
      18     H     0.44794  0.44794  0.00000  0.10412

   Total alpha = 25.00000, Total beta = 25.00000, Total charge = -0.00000

*** Psi4 exiting successfully. Buy a developer a beer!
