  ==> Input File <==

--------------------------------------------------------------------------
set {
	reference rhf
	basis 6-31G*
}

set_num_threads( 4 )
memory 2 gb

molecule MOL {
0 1

H	 5.268524	 0.192471	 1.070992
C	 4.673736	 -0.214914	 0.259335
C	 3.185378	 -0.203514	 0.605509
H	 4.871837	 0.380453	 -0.627026
H	 5.025590	 -1.224632	 0.065769
C	 2.317601	 -0.778379	 -0.516234
H	 2.874655	 0.814325	 0.817774
H	 3.023650	 -0.778480	 1.515976
C	 2.513945	 -2.278012	 -0.739433
H	 1.272058	 -0.588199	 -0.301026
H	 2.549040	 -0.261467	 -1.444824
C	 1.946408	 -3.155865	 0.366243
H	 2.018010	 -2.580433	 -1.660497
H	 3.566018	 -2.515479	 -0.880599
C	 2.425654	 -4.595382	 0.435725
O	 1.139789	 -2.740599	 1.142983
C	 2.071846	 -5.425263	 -0.807369
H	 1.979260	 -5.035554	 1.319295
H	 3.505441	 -4.594225	 0.572624
C	 2.482015	 -6.892052	 -0.662799
H	 0.999848	 -5.367541	 -0.983729
H	 2.554890	 -5.006160	 -1.686284
C	 2.135125	 -7.728420	 -1.893677
H	 1.995135	 -7.315911	 0.212045
H	 3.552155	 -6.949107	 -0.475875
H	 1.066371	 -7.716905	 -2.086959
H	 2.635629	 -7.349413	 -2.780222
H	 2.435934	 -8.762751	 -1.761190

	symmetry c1
}
set optking {
	frozen_dihedral = ("
		10 6 3 2
	")
}

ee = optimize('scf')
oeprop('DIPOLE', 'QUADRUPOLE', 'MULLIKEN_CHARGES')
f=open( 'psi4out.xyz', 'w' )
f.write( "28  " )
f.write( str(ee) + "\n" )
f.write( MOL.save_string_xyz() )
f.close()
--------------------------------------------------------------------------

    Molecular point group: c1
  Charge       = 0
  Multiplicity = 1
  Basis Set: 6-31G*
  Basis Set:
  @DF-RHF Final Energy:  -426.16686533520601
    Total Energy =                       -426.1668653352066940
    Molecular point group: c1
  Basis Set: 6-31G*
  Basis Set:
  Basis Set: 6-31G*
  Basis Set:
  @DF-RHF Final Energy:  -426.16731046365601
    Total Energy =                       -426.1673104636560083
  Basis Set: 6-31G*
  Basis Set:
  Basis Set: 6-31G*
  Basis Set:
  @DF-RHF Final Energy:  -426.16731508095882
    Total Energy =                       -426.1673150809585877
  Basis Set: 6-31G*
  Basis Set:
  Basis Set: 6-31G*
  Basis Set:
  @DF-RHF Final Energy:  -426.16728053172199
    Total Energy =                       -426.1672805317223265
  Basis Set: 6-31G*
  Basis Set:
  Basis Set: 6-31G*
  Basis Set:
  @DF-RHF Final Energy:  -426.16745247871836
    Total Energy =                       -426.1674524787179053
  Basis Set: 6-31G*
  Basis Set:
  Basis Set: 6-31G*
  Basis Set:
  @DF-RHF Final Energy:  -426.16744826979266
    Total Energy =                       -426.1674482697922031
  Basis Set: 6-31G*
  Basis Set:
  Basis Set: 6-31G*
  Basis Set:
  @DF-RHF Final Energy:  -426.16744555756463
    Total Energy =                       -426.1674455575648608
  Basis Set: 6-31G*
  Basis Set:
  Charge       = 0
  Multiplicity = 1
  Basis Set: 6-31G*
  Basis Set:

    Orbital Energies (a.u.)
    -----------------------

    Doubly Occupied:

       1A    -20.547946     2A    -11.321962     3A    -11.232426
       4A    -11.229383     5A    -11.228836     6A    -11.226107
       7A    -11.217025     8A    -11.216330     9A    -11.212524
      10A    -11.209638    11A     -1.393047    12A     -1.095213
      13A     -1.077360    14A     -1.021888    15A     -0.989273
      16A     -0.910567    17A     -0.879828    18A     -0.809087
      19A     -0.795547    20A     -0.719350    21A     -0.665929
      22A     -0.652226    23A     -0.638973    24A     -0.619893
      25A     -0.606067    26A     -0.597306    27A     -0.577042
      28A     -0.560855    29A     -0.542556    30A     -0.538875
      31A     -0.526974    32A     -0.508849    33A     -0.500967
      34A     -0.485089    35A     -0.479613    36A     -0.475929
      37A     -0.468046    38A     -0.461555    39A     -0.457421
      40A     -0.391811

  @DF-RHF Final Energy:  -426.16745349506834

   => Energetics <=

    Nuclear Repulsion Energy =            536.5766477494539686
    One-Electron Energy =               -1641.3095767146778599
    Two-Electron Energy =                 678.5654754701556612
    DFT Exchange-Correlation Energy =       0.0000000000000000
    Empirical Dispersion Energy =           0.0000000000000000
    PCM Polarization Energy =               0.0000000000000000
    EFP Energy =                            0.0000000000000000
    Total Energy =                       -426.1674534950682300
    Molecular point group: c1
  Basis Set: 6-31G*
  Basis Set:

  -Total Gradient:
     Atom            X                  Y                   Z
    ------   -----------------  -----------------  -----------------
       1       -0.000001978268    -0.000002211770    -0.000002656772
       2       -0.000016333335     0.000259658736    -0.000125704300
       3        0.000031762250    -0.000288496542     0.000124643687
       4        0.000005989216    -0.000000327317    -0.000002314298
       5        0.000000753973     0.000001159104    -0.000000323455
       6       -0.000037968477    -0.000306213461     0.000202082457
       7       -0.000004712358    -0.000005576151    -0.000001636440
       8       -0.000006599236     0.000000196393    -0.000001377204
       9        0.000011895915    -0.000004070524     0.000001583299
      10        0.000017497756     0.000344011684    -0.000190987682
      11        0.000000165894     0.000000563898    -0.000002016252
      12       -0.000005191976    -0.000004217598     0.000008034545
      13        0.000000300359     0.000005355495     0.000006234837
      14        0.000001643129    -0.000000831809    -0.000001001663
      15       -0.000013612034    -0.000008341412    -0.000010567228
      16        0.000002305824     0.000004241172    -0.000005422177
      17        0.000008592507    -0.000000098589     0.000004554855
      18        0.000003560579     0.000000190145     0.000001054238
      19        0.000001807690     0.000008806038    -0.000001203485
      20       -0.000001767401    -0.000000874091    -0.000002008493
      21        0.000001510785     0.000004785197    -0.000003443973
      22        0.000002959182    -0.000006015845     0.000000895062
      23       -0.000002751528    -0.000001983548     0.000002050346
      24        0.000001047455    -0.000000251806     0.000001519011
      25       -0.000000434847     0.000000865458    -0.000001703138
      26       -0.000000196667    -0.000000001091    -0.000000975250
      27        0.000000546748     0.000000181047     0.000000741830
      28       -0.000000793135    -0.000000502814    -0.000000052359

  **** Optimization is complete! (in 8 steps) ****
    Final optimized geometry and variables:
    Molecular point group: c1

    Geometry (in Angstrom), charge = 0, multiplicity = 1:

    H            2.722538101274     3.730668689360     1.298951654467
    C            2.183147346751     3.239631109907     0.494943568552
    C            0.680549533073     3.218896986816     0.783453138645
    H            2.398688874119     3.778471187926    -0.423875910166
    H            2.596069411286     2.240242684351     0.394991768104
    C           -0.172133674954     2.620258601153    -0.342058020097
    H            0.347146115872     4.239969559473     0.949597210663
    H            0.487989025428     2.685846306665     1.708873899489
    C            0.013926890044     1.118675063728    -0.571207949735
    H           -1.218125502713     2.807256820052    -0.129924358036
    H            0.056662712610     3.137186050585    -1.271511035626
    C           -0.532938294839     0.243424262158     0.546922554563
    H           -0.513953485205     0.825868838520    -1.477619882712
    H            1.055018573745     0.865143010912    -0.748868914977
    C           -0.054067790948    -1.196574607634     0.609350157444
    O           -1.325004314611     0.660282479915     1.337683908017
    C           -0.436011703418    -2.027615111865    -0.624634439636
    H           -0.482142579619    -1.634655070066     1.502957473328
    H            1.028465679507    -1.197082927113     0.722929785810
    C           -0.024677870370    -3.494762751159    -0.487361556804
    H           -1.511532100422    -1.968634220507    -0.777405398129
    H            0.028090635479    -1.610087331533    -1.514452364924
    C           -0.400666134911    -4.332328241127    -1.708846686687
    H           -0.492104440076    -3.916705601993     0.398940145176
    H            1.049374983534    -3.553068748171    -0.324779178946
    H           -1.473513959049    -4.319476110679    -1.877810090705
    H            0.080123973008    -3.955302185274    -2.607063838921
    H           -0.098427320578    -5.366938084232    -1.581744976221

  Mulliken Charges: (a.u.)
   Center  Symbol    Alpha    Beta     Spin     Total
       1     H     0.41764  0.41764  0.00000  0.16472
       2     C     3.24133  3.24133  0.00000 -0.48265
       3     C     3.15824  3.15824  0.00000 -0.31648
       4     H     0.42253  0.42253  0.00000  0.15495
       5     H     0.42557  0.42557  0.00000  0.14885
       6     C     3.15124  3.15124  0.00000 -0.30249
       7     H     0.41947  0.41947  0.00000  0.16105
       8     H     0.41049  0.41049  0.00000  0.17902
       9     C     3.21334  3.21334  0.00000 -0.42668
      10     H     0.40519  0.40519  0.00000  0.18963
      11     H     0.42223  0.42223  0.00000  0.15554
      12     C     2.73123  2.73123  0.00000  0.53754
      13     H     0.40283  0.40283  0.00000  0.19433
      14     H     0.41160  0.41160  0.00000  0.17679
      15     C     3.20157  3.20157  0.00000 -0.40313
      16     O     4.26670  4.26670  0.00000 -0.53340
      17     C     3.16377  3.16377  0.00000 -0.32753
      18     H     0.39981  0.39981  0.00000  0.20037
      19     H     0.41327  0.41327  0.00000  0.17347
      20     C     3.15181  3.15181  0.00000 -0.30361
      21     H     0.41374  0.41374  0.00000  0.17251
      22     H     0.41857  0.41857  0.00000  0.16285
      23     C     3.24033  3.24033  0.00000 -0.48067
      24     H     0.41838  0.41838  0.00000  0.16324
      25     H     0.42145  0.42145  0.00000  0.15710
      26     H     0.41960  0.41960  0.00000  0.16080
      27     H     0.42119  0.42119  0.00000  0.15762
      28     H     0.41688  0.41688  0.00000  0.16625

   Total alpha = 40.00000, Total beta = 40.00000, Total charge = -0.00000
