                              Psi4 1.0.54 Driver

  ==> Input File <==

--------------------------------------------------------------------------
set {
	reference rhf
	basis cc-pvtz
}

set_num_threads( 4 )
memory 2 gb

molecule MOL {
0 1

H	 2.796236	 -0.366994	 -1.009725
N	 2.433987	 -0.362316	 -0.080024
C	 1.263552	 0.494993	 0.021953
H	 3.164979	 -0.040194	 0.519329
C	 -0.016533	 -0.325589	 -0.026925
H	 1.280915	 1.180773	 -0.818522
H	 1.263064	 1.106893	 0.925038
C	 -1.280353	 0.525521	 0.047747
H	 -0.016686	 -0.912532	 -0.939714
H	 -0.014099	 -1.037598	 0.796369
C	 -2.560681	 -0.301323	 -0.007747
H	 -1.279957	 1.241025	 -0.770189
H	 -1.270445	 1.110526	 0.963468
H	 -2.617064	 -0.872870	 -0.928010
H	 -3.439525	 0.331102	 0.043462
H	 -2.609427	 -1.002736	 0.818585

	symmetry c1
}
set optking {
	frozen_dihedral = ("
		1 2 3 6
	")
}

ee,wfn = optimize('scf', return_wfn=True)
oeprop( wfn, 'DIPOLE', 'QUADRUPOLE', 'MULLIKEN_CHARGES')
f=open( 'psi4out.xyz', 'w' )
f.write( "16  " )
f.write( str(ee) + "\n" )
f.write( MOL.save_string_xyz() )
f.close()
--------------------------------------------------------------------------

    Molecular point group: c1
  Charge       = 0
  Multiplicity = 1
  Basis Set: CC-PVTZ
  Basis Set:
  @DF-RHF Final Energy:  -212.39687285614002
    Total Energy =                       -212.3968728561401349
    Molecular point group: c1
  Basis Set: CC-PVTZ
  Basis Set:
  Basis Set: CC-PVTZ
  Basis Set:
  @DF-RHF Final Energy:  -212.39381486149421
    Total Energy =                       -212.3938148614939507
  Basis Set: CC-PVTZ
  Basis Set:
  Basis Set: CC-PVTZ
  Basis Set:
  @DF-RHF Final Energy:  -212.39797779043312
    Total Energy =                       -212.3979777904331172
  Basis Set: CC-PVTZ
  Basis Set:
  Basis Set: CC-PVTZ
  Basis Set:
  @DF-RHF Final Energy:  -212.39806567849180
    Total Energy =                       -212.3980656784917755
  Basis Set: CC-PVTZ
  Basis Set:
  Basis Set: CC-PVTZ
  Basis Set:
  @DF-RHF Final Energy:  -212.39807025690573
    Total Energy =                       -212.3980702569057257
  Basis Set: CC-PVTZ
  Basis Set:
  Charge       = 0
  Multiplicity = 1
  Basis Set: CC-PVTZ
  Basis Set:

    Orbital Energies (a.u.)
    -----------------------

    Doubly Occupied:

       1A    -15.526425     2A    -11.239007     3A    -11.210554
       4A    -11.204075     5A    -11.202533     6A     -1.176249
       7A     -1.058763     8A     -0.959056     9A     -0.842971
      10A     -0.787793    11A     -0.675455    12A     -0.624971
      13A     -0.610947    14A     -0.577344    15A     -0.553684
      16A     -0.532054    17A     -0.490369    18A     -0.474364
      19A     -0.465911    20A     -0.459617    21A     -0.382222

  @DF-RHF Final Energy:  -212.39807116509968

   => Energetics <=

    Nuclear Repulsion Energy =            186.1617884164696193
    One-Electron Energy =                -655.0109908736476427
    Two-Electron Energy =                 256.4511312920781165
    DFT Exchange-Correlation Energy =       0.0000000000000000
    Empirical Dispersion Energy =           0.0000000000000000
    PCM Polarization Energy =               0.0000000000000000
    EFP Energy =                            0.0000000000000000
    Total Energy =                       -212.3980711650999069
    Molecular point group: c1
  Basis Set: CC-PVTZ
  Basis Set:

  -Total Gradient:
     Atom            X                  Y                   Z
    ------   -----------------  -----------------  -----------------
       1        0.000938131743     0.001968811263     0.000696157975
       2       -0.001372083943    -0.002891075855    -0.001255778151
       3        0.001071841167     0.002420715987     0.001791862380
       4       -0.000002028812     0.000009578250     0.000019369072
       5        0.000038384176    -0.000006395353     0.000035450478
       6       -0.000665369372    -0.001505102760    -0.001297342221
       7       -0.000004894364    -0.000004360415     0.000009746774
       8       -0.000000043648     0.000019193923    -0.000004548853
       9        0.000001432317     0.000003925348     0.000001665422
      10       -0.000001919395    -0.000012947299     0.000008279092
      11        0.000004074846    -0.000007575980    -0.000000346558
      12       -0.000000992741     0.000008620930     0.000000453930
      13       -0.000001238268    -0.000000385311     0.000002207086
      14        0.000000456302    -0.000006618386    -0.000006405503
      15       -0.000004481573     0.000003283315    -0.000001177476
      16       -0.000001268435     0.000000332342     0.000000406556

  **** Optimization is complete! (in 6 steps) ****
    Final optimized geometry and variables:
    Molecular point group: c1

    Geometry (in Angstrom), charge = 0, multiplicity = 1:

    H            2.950512155496     0.099084543152    -0.624689096794
    N            2.458274265661     0.027448430283     0.239347119787
    C            1.154485399189     0.682356804944     0.166765295992
    H            3.036569387007     0.452908462000     0.930595705322
    C            0.031922714281    -0.331617657655    -0.015270995442
    H            1.111084355832     1.399285071970    -0.650608953661
    H            0.986584646619     1.239830640969     1.081769191807
    C           -1.349773214910     0.308525171276    -0.103867743220
    H            0.225572163629    -0.909935291608    -0.915203617083
    H            0.064409430020    -1.035382788864     0.810556568984
    C           -2.469968195165    -0.710543074936    -0.285147809771
    H           -1.370553549926     1.014404400743    -0.930326602805
    H           -1.536689230822     0.889778145024     0.795674274900
    H           -2.331745467903    -1.284982280353    -1.195064233558
    H           -3.437912750103    -0.225873783501    -0.343735059050
    H           -2.499306412827    -1.409927856975     0.543583965455

  Mulliken Charges: (a.u.)
   Center  Symbol    Alpha    Beta     Spin     Total
       1     H     0.42915  0.42915  0.00000  0.14169
       2     N     3.69303  3.69303  0.00000 -0.38605
       3     C     3.04337  3.04337  0.00000 -0.08673
       4     H     0.42658  0.42658  0.00000  0.14684
       5     C     3.06401  3.06401  0.00000 -0.12801
       6     H     0.46178  0.46178  0.00000  0.07643
       7     H     0.45651  0.45651  0.00000  0.08698
       8     C     3.09103  3.09103  0.00000 -0.18206
       9     H     0.45897  0.45897  0.00000  0.08205
      10     H     0.45423  0.45423  0.00000  0.09154
      11     C     3.14905  3.14905  0.00000 -0.29809
      12     H     0.45695  0.45695  0.00000  0.08611
      13     H     0.45655  0.45655  0.00000  0.08689
      14     H     0.45503  0.45503  0.00000  0.08994
      15     H     0.44930  0.44930  0.00000  0.10140
      16     H     0.45446  0.45446  0.00000  0.09108

   Total alpha = 21.00000, Total beta = 21.00000, Total charge = -0.00000

*** Psi4 exiting successfully. Buy a developer a beer!
