  ==> Input File <==

--------------------------------------------------------------------------
set {
	reference rhf
	basis 6-31G*
}

set_num_threads( 4 )
memory 2 gb

molecule MOL {
0 1

O	 1.585293	 -0.321797	 -0.435147
C	 0.576249	 0.131685	 -0.000108
C	 -0.766779	 -0.556801	 -0.000461
O	 0.500397	 1.333805	 0.556505
C	 -1.945214	 0.412366	 0.000161
H	 -0.796911	 -1.211249	 -0.867467
H	 -0.796854	 -1.212390	 0.865687
C	 -3.287791	 -0.317055	 0.000105
H	 -1.876087	 1.060580	 -0.866812
H	 -1.875822	 1.059691	 0.867761
H	 -3.394745	 -0.949193	 -0.877058
H	 -4.111778	 0.388953	 0.000015
H	 -3.394954	 -0.949187	 0.877259
C	 1.696541	 2.089020	 0.620525
H	 2.444139	 1.568118	 1.201300
H	 1.432756	 3.019385	 1.098755
H	 2.082704	 2.274095	 -0.371511

	symmetry c1
}
set optking {
	frozen_dihedral = ("
		1 2 3 6
	")
}

ee = optimize('scf')
oeprop('DIPOLE', 'QUADRUPOLE', 'MULLIKEN_CHARGES')
f=open( 'psi4out.xyz', 'w' )
f.write( "17  " )
f.write( str(ee) + "\n" )
f.write( MOL.save_string_xyz() )
f.close()
--------------------------------------------------------------------------

    Molecular point group: c1
  Charge       = 0
  Multiplicity = 1
  Basis Set: 6-31G*
  Basis Set:
  @DF-RHF Final Energy:  -344.90370741000601
    Total Energy =                       -344.9037074100057225
    Molecular point group: c1
  Basis Set: 6-31G*
  Basis Set:
  Basis Set: 6-31G*
  Basis Set:
  @DF-RHF Final Energy:  -344.90316727571661
    Total Energy =                       -344.9031672757168394
  Basis Set: 6-31G*
  Basis Set:
  Basis Set: 6-31G*
  Basis Set:
  @DF-RHF Final Energy:  -344.90390709685954
    Total Energy =                       -344.9039070968597116
  Basis Set: 6-31G*
  Basis Set:
  Basis Set: 6-31G*
  Basis Set:
  @DF-RHF Final Energy:  -344.90466627249117
    Total Energy =                       -344.9046662724911130
  Basis Set: 6-31G*
  Basis Set:
  Basis Set: 6-31G*
  Basis Set:
  @DF-RHF Final Energy:  -344.90467834263234
    Total Energy =                       -344.9046783426321667
  Basis Set: 6-31G*
  Basis Set:
  Basis Set: 6-31G*
  Basis Set:
  @DF-RHF Final Energy:  -344.90468283379596
    Total Energy =                       -344.9046828337960164
  Basis Set: 6-31G*
  Basis Set:
  Charge       = 0
  Multiplicity = 1
  Basis Set: 6-31G*
  Basis Set:

    Orbital Energies (a.u.)
    -----------------------

    Doubly Occupied:

       1A    -20.606258     2A    -20.542029     3A    -11.372469
       4A    -11.281792     5A    -11.236075     6A    -11.227032
       7A    -11.217129     8A     -1.470319     9A     -1.361502
      10A     -1.083253    11A     -0.997644    12A     -0.942955
      13A     -0.831298    14A     -0.774986    15A     -0.696832
      16A     -0.682974    17A     -0.670971    18A     -0.638089
      19A     -0.595863    20A     -0.573385    21A     -0.556742
      22A     -0.534485    23A     -0.523837    24A     -0.514260
      25A     -0.489804    26A     -0.482164    27A     -0.453989
      28A     -0.430837

  @DF-RHF Final Energy:  -344.90468330321693

   => Energetics <=

    Nuclear Repulsion Energy =            314.2977375375864426
    One-Electron Energy =               -1092.8268957142981890
    Two-Electron Energy =                 433.6244748734945347
    DFT Exchange-Correlation Energy =       0.0000000000000000
    Empirical Dispersion Energy =           0.0000000000000000
    PCM Polarization Energy =               0.0000000000000000
    EFP Energy =                            0.0000000000000000
    Total Energy =                       -344.9046833032171548
    Molecular point group: c1
  Basis Set: 6-31G*
  Basis Set:

  -Total Gradient:
     Atom            X                  Y                   Z
    ------   -----------------  -----------------  -----------------
       1        0.000184724168    -0.000388971655     0.000836642025
       2       -0.000339037685     0.000641936718    -0.001327956473
       3        0.000501424001    -0.000937129423     0.000980733370
       4       -0.000023074201     0.000025276628     0.000016412223
       5        0.000015616244    -0.000003312199    -0.000015932752
       6       -0.000340787306     0.000667734102    -0.000502324312
       7        0.000004236534    -0.000005282874     0.000019093786
       8       -0.000002750726    -0.000001926557     0.000014719528
       9        0.000004565132     0.000005095861    -0.000012098466
      10       -0.000001687443    -0.000000109752    -0.000004777241
      11       -0.000005764233     0.000011955215    -0.000009593487
      12        0.000006433777    -0.000001181150     0.000009063840
      13        0.000007232653    -0.000008970401    -0.000003675451
      14       -0.000006587729    -0.000008745455    -0.000003970568
      15        0.000001153976     0.000002651809     0.000000188386
      16       -0.000007304465    -0.000001477933     0.000001227841
      17        0.000001607301     0.000002457064     0.000002247750

  **** Optimization is complete! (in 7 steps) ****
    Final optimized geometry and variables:
    Molecular point group: c1

    Geometry (in Angstrom), charge = 0, multiplicity = 1:

    O            1.767084664485    -0.746359845159    -0.543056567618
    C            0.778095972130    -0.245879330162    -0.111535045432
    C           -0.570241758347    -0.929379666026    -0.093745916936
    O            0.760727250093     0.956547302955     0.444835934809
    C           -1.791712299518    -0.008196425714    -0.103199749374
    H           -0.583774761044    -1.598687663856    -0.945737441206
    H           -0.583154133422    -1.556896998924     0.794977944505
    C           -3.097710142669    -0.800987222348    -0.136152117556
    H           -1.743476306875     0.648591762642    -0.967260266586
    H           -1.771669772313     0.632023386884     0.770729845733
    H           -3.159675229166    -1.424719534674    -1.023200128684
    H           -3.954867955944    -0.135604110763    -0.139246283306
    H           -3.186172500723    -1.449749946740     0.730790969986
    C            1.993100947798     1.652169281762     0.507587285025
    H            2.712159240796     1.096862137008     1.092199795246
    H            1.774394793760     2.596743128097     0.980694050186
    H            2.389146484561     1.811932359132    -0.484703685459

  Mulliken Charges: (a.u.)
   Center  Symbol    Alpha    Beta     Spin     Total
       1     O     4.28836  4.28836  0.00000 -0.57672
       2     C     2.60711  2.60711  0.00000  0.78578
       3     C     3.20630  3.20630  0.00000 -0.41261
       4     O     4.30329  4.30329  0.00000 -0.60658
       5     C     3.15454  3.15454  0.00000 -0.30908
       6     H     0.39811  0.39811  0.00000  0.20379
       7     H     0.40069  0.40069  0.00000  0.19863
       8     C     3.24274  3.24274  0.00000 -0.48548
       9     H     0.41676  0.41676  0.00000  0.16648
      10     H     0.40887  0.40887  0.00000  0.18226
      11     H     0.41956  0.41956  0.00000  0.16089
      12     H     0.41547  0.41547  0.00000  0.16906
      13     H     0.42038  0.42038  0.00000  0.15923
      14     C     3.09258  3.09258  0.00000 -0.18516
      15     H     0.40846  0.40846  0.00000  0.18308
      16     H     0.40863  0.40863  0.00000  0.18274
      17     H     0.40815  0.40815  0.00000  0.18369

   Total alpha = 28.00000, Total beta = 28.00000, Total charge =  0.00000
