                              Psi4 1.0.54 Driver

  ==> Input File <==

--------------------------------------------------------------------------
set {
	reference rhf
	basis cc-pvtz
}

set_num_threads( 4 )
memory 2 gb

molecule MOL {
0 1

O	 0.390917	 -0.392405	 -2.176337
C	 -0.083659	 -0.765475	 -1.158754
C	 -1.461965	 -1.343761	 -1.012077
O	 0.550743	 -0.719877	 0.000412
H	 -1.394420	 -2.343782	 -0.603664
H	 -1.948307	 -1.366743	 -1.973574
H	 -2.035377	 -0.743199	 -0.317844
C	 1.863204	 -0.194033	 0.000410
H	 2.031502	 0.409177	 -0.879273
H	 2.524488	 -1.045142	 0.000793
H	 2.031291	 0.409823	 0.879686

	symmetry c1
}
set optking {
	frozen_dihedral = ("
		2 4 8 9
	")
}

ee,wfn = optimize('scf', return_wfn=True)
oeprop( wfn, 'DIPOLE', 'QUADRUPOLE', 'MULLIKEN_CHARGES')
f=open( 'psi4out.xyz', 'w' )
f.write( "11  " )
f.write( str(ee) + "\n" )
f.write( MOL.save_string_xyz() )
f.close()
--------------------------------------------------------------------------

    Molecular point group: c1
  Charge       = 0
  Multiplicity = 1
  Basis Set: CC-PVTZ
  Basis Set:
  @DF-RHF Final Energy:  -266.93643925019717
    Total Energy =                       -266.9364392501973384
    Molecular point group: c1
  Basis Set: CC-PVTZ
  Basis Set:
  Basis Set: CC-PVTZ
  Basis Set:
  @DF-RHF Final Energy:  -266.93720094857804
    Total Energy =                       -266.9372009485780382
  Basis Set: CC-PVTZ
  Basis Set:
  Basis Set: CC-PVTZ
  Basis Set:
  @DF-RHF Final Energy:  -266.93690484999081
    Total Energy =                       -266.9369048499908104
  Basis Set: CC-PVTZ
  Basis Set:
  Basis Set: CC-PVTZ
  Basis Set:
  @DF-RHF Final Energy:  -266.93763115802153
    Total Energy =                       -266.9376311580216452
  Basis Set: CC-PVTZ
  Basis Set:
  Charge       = 0
  Multiplicity = 1
  Basis Set: CC-PVTZ
  Basis Set:

    Orbital Energies (a.u.)
    -----------------------

    Doubly Occupied:

       1A    -20.597950     2A    -20.534687     3A    -11.369872
       4A    -11.278794     5A    -11.232714     6A     -1.472272
       7A     -1.368113     8A     -1.037062     9A     -0.954087
      10A     -0.779422    11A     -0.699219    12A     -0.682609
      13A     -0.681043    14A     -0.597759    15A     -0.592725
      16A     -0.561715    17A     -0.530078    18A     -0.521605
      19A     -0.459383    20A     -0.445919

  @DF-RHF Final Energy:  -266.93763937636118

   => Energetics <=

    Nuclear Repulsion Energy =            183.3483382110465243
    One-Electron Energy =                -727.7778944640947429
    Two-Electron Energy =                 277.4919168766871280
    DFT Exchange-Correlation Energy =       0.0000000000000000
    Empirical Dispersion Energy =           0.0000000000000000
    PCM Polarization Energy =               0.0000000000000000
    EFP Energy =                            0.0000000000000000
    Total Energy =                       -266.9376393763610622
    Molecular point group: c1
  Basis Set: CC-PVTZ
  Basis Set:

  -Total Gradient:
     Atom            X                  Y                   Z
    ------   -----------------  -----------------  -----------------
       1        0.000069779026     0.000028681538    -0.000166975390
       2       -0.000405185009     0.001074286753     0.000456859638
       3        0.000054282935    -0.000009037973     0.000055186976
       4        0.000736226641    -0.001769394058    -0.000518076025
       5        0.000014411402    -0.000044342881     0.000008213862
       6        0.000047692067     0.000029745371    -0.000014291612
       7       -0.000007735665     0.000029692891     0.000015118123
       8       -0.000693575835     0.001718257957     0.000878866665
       9        0.000387840719    -0.001007858172    -0.000703455261
      10       -0.000106652305     0.000055912430     0.000051102092
      11       -0.000097083975    -0.000105943856    -0.000062549065

  **** Optimization is complete! (in 5 steps) ****
    Final optimized geometry and variables:
    Molecular point group: c1

    Geometry (in Angstrom), charge = 0, multiplicity = 1:

    O            0.085073387848     0.314495113265    -1.328307963656
    C           -0.357701878714    -0.081208173519    -0.305192106973
    C           -1.732104402889    -0.663278217903    -0.135740725241
    O            0.300476019199    -0.069701023821     0.842381753172
    H           -1.653224923181    -1.673220274923     0.245430423398
    H           -2.243750593324    -0.662450391744    -1.084281230903
    H           -2.286208698295    -0.080612281643     0.588735567938
    C            1.607724418021     0.470456850354     0.881642198870
    H            1.781855181837     1.119170769721     0.040395694054
    H            2.325715813189    -0.337680671827     0.864459450570
    H            1.696730504807     1.012555808027     1.809810755200

  Mulliken Charges: (a.u.)
   Center  Symbol    Alpha    Beta     Spin     Total
       1     O     4.19721  4.19721  0.00000 -0.39441
       2     C     2.79870  2.79870  0.00000  0.40261
       3     C     3.13934  3.13934  0.00000 -0.27867
       4     O     4.14941  4.14941  0.00000 -0.29881
       5     H     0.44539  0.44539  0.00000  0.10922
       6     H     0.43796  0.43796  0.00000  0.12408
       7     H     0.44582  0.44582  0.00000  0.10837
       8     C     3.03590  3.03590  0.00000 -0.07180
       9     H     0.44508  0.44508  0.00000  0.10983
      10     H     0.45578  0.45578  0.00000  0.08843
      11     H     0.44942  0.44942  0.00000  0.10116

   Total alpha = 20.00000, Total beta = 20.00000, Total charge =  0.00000

*** Psi4 exiting successfully. Buy a developer a beer!
