  ==> Input File <==

--------------------------------------------------------------------------
set {
	reference rhf
	basis 6-31G*
}

set_num_threads( 4 )
memory 2 gb

molecule MOL {
0 1

O	 3.897269	 -0.343646	 0.231831
C	 2.843464	 0.164689	 -0.000222
C	 1.546494	 -0.624492	 -0.000609
C	 2.732177	 1.643056	 -0.311993
C	 0.291004	 0.242674	 0.000989
H	 1.557904	 -1.283758	 -0.867573
H	 1.558622	 -1.285963	 0.864672
C	 -0.994322	 -0.586602	 0.000262
H	 0.309117	 0.896430	 -0.865270
H	 0.309661	 0.894078	 0.869017
C	 -2.259874	 0.272531	 0.000494
H	 -1.004862	 -1.240012	 -0.870939
H	 -1.005220	 -1.241071	 0.870675
C	 -3.549786	 -0.549746	 -0.000374
H	 -2.250389	 0.926680	 -0.869574
H	 -2.250838	 0.925513	 0.871430
C	 -4.809590	 0.315458	 -0.000369
H	 -3.560515	 -1.202009	 -0.871156
H	 -3.561123	 -1.202955	 0.869711
H	 -4.844746	 0.956611	 -0.876632
H	 -5.706986	 -0.295590	 -0.001609
H	 -4.845960	 0.954827	 0.877144
H	 2.082356	 2.134056	 0.406526
H	 3.712791	 2.097233	 -0.281122
H	 2.295089	 1.790836	 -1.295228

	symmetry c1
}
set optking {
	frozen_dihedral = ("
		1 2 3 6
	")
}

ee = optimize('scf')
oeprop('DIPOLE', 'QUADRUPOLE', 'MULLIKEN_CHARGES')
f=open( 'psi4out.xyz', 'w' )
f.write( "25  " )
f.write( str(ee) + "\n" )
f.write( MOL.save_string_xyz() )
f.close()
--------------------------------------------------------------------------

    Molecular point group: c1
  Charge       = 0
  Multiplicity = 1
  Basis Set: 6-31G*
  Basis Set:
  @DF-RHF Final Energy:  -387.12971427184345
    Total Energy =                       -387.1297142718436817
    Molecular point group: c1
  Basis Set: 6-31G*
  Basis Set:
  Basis Set: 6-31G*
  Basis Set:
  @DF-RHF Final Energy:  -387.13106539754187
    Total Energy =                       -387.1310653975416471
  Basis Set: 6-31G*
  Basis Set:
  Basis Set: 6-31G*
  Basis Set:
  @DF-RHF Final Energy:  -387.13218541485401
    Total Energy =                       -387.1321854148546890
  Basis Set: 6-31G*
  Basis Set:
  Basis Set: 6-31G*
  Basis Set:
  @DF-RHF Final Energy:  -387.13230553679216
    Total Energy =                       -387.1323055367919324
  Basis Set: 6-31G*
  Basis Set:
  Basis Set: 6-31G*
  Basis Set:
  @DF-RHF Final Energy:  -387.13229573345365
    Total Energy =                       -387.1322957334539296
  Basis Set: 6-31G*
  Basis Set:
  Basis Set: 6-31G*
  Basis Set:
  @DF-RHF Final Energy:  -387.13228917575475
    Total Energy =                       -387.1322891757556590
  Basis Set: 6-31G*
  Basis Set:
  Basis Set: 6-31G*
  Basis Set:
  @DF-RHF Final Energy:  -387.13231635060339
    Total Energy =                       -387.1323163506034462
  Basis Set: 6-31G*
  Basis Set:
  Charge       = 0
  Multiplicity = 1
  Basis Set: 6-31G*
  Basis Set:

    Orbital Energies (a.u.)
    -----------------------

    Doubly Occupied:

       1A    -20.545084     2A    -11.325637     3A    -11.230959
       4A    -11.230259     5A    -11.227357     6A    -11.224233
       7A    -11.220754     8A    -11.220048     9A    -11.212682
      10A     -1.392157    11A     -1.101496    12A     -1.060544
      13A     -1.009751    14A     -0.971707    15A     -0.898506
      16A     -0.822154    17A     -0.797567    18A     -0.730764
      19A     -0.668298    20A     -0.648070    21A     -0.634788
      22A     -0.623713    23A     -0.597197    24A     -0.590071
      25A     -0.563614    26A     -0.560059    27A     -0.546443
      28A     -0.530404    29A     -0.524058    30A     -0.496909
      31A     -0.490737    32A     -0.470804    33A     -0.469566
      34A     -0.467739    35A     -0.460263    36A     -0.395346

  @DF-RHF Final Energy:  -387.13231628599306

   => Energetics <=

    Nuclear Repulsion Energy =            438.4401697703104901
    One-Electron Energy =               -1393.2254920066566228
    Two-Electron Energy =                 567.6530059503531902
    DFT Exchange-Correlation Energy =       0.0000000000000000
    Empirical Dispersion Energy =           0.0000000000000000
    PCM Polarization Energy =               0.0000000000000000
    EFP Energy =                            0.0000000000000000
    Total Energy =                       -387.1323162859929425
    Molecular point group: c1
  Basis Set: 6-31G*
  Basis Set:

  -Total Gradient:
     Atom            X                  Y                   Z
    ------   -----------------  -----------------  -----------------
       1        0.000149406188    -0.000247461349    -0.001271946211
       2       -0.000124465246     0.000174205113     0.001916187054
       3       -0.000534179881     0.001039708112    -0.001329732899
       4        0.000005032204    -0.000001751930    -0.000006782411
       5        0.000003641726    -0.000005395479    -0.000024403330
       6        0.000489411265    -0.000941463277     0.000697814565
       7        0.000003196262     0.000003132196    -0.000000843971
       8        0.000005011702    -0.000006333223     0.000015038926
       9       -0.000005251101     0.000010278789     0.000000176601
      10        0.000013868838    -0.000013987840     0.000003968836
      11        0.000000167914    -0.000003153182    -0.000004223162
      12        0.000002530163    -0.000007373513     0.000009301933
      13       -0.000004608483     0.000005411801     0.000007060347
      14       -0.000001247355     0.000005594862    -0.000009977621
      15       -0.000000639658     0.000007865220     0.000004937936
      16       -0.000002505472    -0.000008218696     0.000003200239
      17       -0.000005395228    -0.000003146487    -0.000006056957
      18       -0.000000802957    -0.000003354363     0.000001223633
      19        0.000001000859     0.000005143423    -0.000000089735
      20       -0.000000669297     0.000000235188     0.000000546351
      21       -0.000003228772     0.000001514661    -0.000000480005
      22        0.000001688201    -0.000001403951    -0.000000505349
      23        0.000000509246    -0.000005369282    -0.000000023829
      24        0.000005927899    -0.000002274764    -0.000001251529
      25        0.000001600981    -0.000002402029    -0.000003139412

  **** Optimization is complete! (in 8 steps) ****
    Final optimized geometry and variables:
    Molecular point group: c1

    Geometry (in Angstrom), charge = 0, multiplicity = 1:

    O            3.900140563820    -0.508043792470     0.265087999997
    C            2.907496180429     0.107648321463     0.019699040370
    C            1.564262690946    -0.613196855652     0.002946938285
    C            2.973885638404     1.579746876287    -0.325641403002
    C            0.293396000136     0.237867147680     0.010556670919
    H            1.581697419779    -1.255919170010    -0.875403808274
    H            1.573425254547    -1.287143944472     0.853781399845
    C           -0.973993104684    -0.619844659139     0.004737531537
    H            0.277834849893     0.898849429454    -0.852211204417
    H            0.284216847503     0.878349950411     0.889806010027
    C           -2.260169759583     0.207851357231     0.013235601269
    H           -0.966303379849    -1.265274567966    -0.871742663617
    H           -0.964534387653    -1.280529398914     0.869465099524
    C           -3.528650129687    -0.647195360523     0.004828780945
    H           -2.268602412466     0.870111975619    -0.850969638061
    H           -2.268172824997     0.852369101725     0.890690065299
    C           -4.809947938073     0.185700198716     0.012661924535
    H           -3.522533466702    -1.291437384794    -0.871759661185
    H           -3.522704158246    -1.308081157351     0.868894219608
    H           -4.862310933557     0.833059557542    -0.858191009565
    H           -5.691041788107    -0.448315382177     0.006475273211
    H           -4.862479811675     0.816171336268     0.895785393520
    H            2.383879977492     2.169588318310     0.368344509564
    H            4.004441607097     1.903894337791    -0.290817374550
    H            2.572578484112     1.755269149422    -1.319529249908

  Mulliken Charges: (a.u.)
   Center  Symbol    Alpha    Beta     Spin     Total
       1     O     4.26381  4.26381  0.00000 -0.52762
       2     C     2.73558  2.73558  0.00000  0.52884
       3     C     3.20595  3.20595  0.00000 -0.41189
       4     C     3.29183  3.29183  0.00000 -0.58366
       5     C     3.16184  3.16184  0.00000 -0.32368
       6     H     0.40211  0.40211  0.00000  0.19577
       7     H     0.39928  0.39928  0.00000  0.20143
       8     C     3.15264  3.15264  0.00000 -0.30529
       9     H     0.41973  0.41973  0.00000  0.16054
      10     H     0.41934  0.41934  0.00000  0.16132
      11     C     3.15095  3.15095  0.00000 -0.30190
      12     H     0.42150  0.42150  0.00000  0.15700
      13     H     0.42043  0.42043  0.00000  0.15914
      14     C     3.15194  3.15194  0.00000 -0.30387
      15     H     0.42363  0.42363  0.00000  0.15274
      16     H     0.42322  0.42322  0.00000  0.15356
      17     C     3.23959  3.23959  0.00000 -0.47919
      18     H     0.42235  0.42235  0.00000  0.15531
      19     H     0.42208  0.42208  0.00000  0.15585
      20     H     0.42157  0.42157  0.00000  0.15686
      21     H     0.41829  0.41829  0.00000  0.16342
      22     H     0.42141  0.42141  0.00000  0.15718
      23     H     0.40715  0.40715  0.00000  0.18570
      24     H     0.39559  0.39559  0.00000  0.20882
      25     H     0.40819  0.40819  0.00000  0.18361

   Total alpha = 36.00000, Total beta = 36.00000, Total charge =  0.00000
