                              Psi4 1.0.54 Driver

  ==> Input File <==

--------------------------------------------------------------------------
set {
	reference rhf
	basis cc-pvtz
}

set_num_threads( 4 )
memory 2 gb

molecule MOL {
0 1

O	 2.456509	 1.996425	 1.500384
C	 2.208257	 1.154352	 2.300005
C	 0.918822	 0.359346	 2.266019
C	 3.172561	 0.817592	 3.414875
C	 -0.022386	 0.732590	 1.129514
H	 1.184994	 -0.694079	 2.215857
H	 0.429890	 0.487221	 3.229139
C	 -1.305938	 -0.092981	 1.135684
H	 0.493218	 0.605030	 0.184530
H	 -0.262434	 1.787450	 1.198666
C	 -2.258482	 0.271340	 0.000669
H	 -1.057380	 -1.149855	 1.068526
H	 -1.816675	 0.038273	 2.087095
C	 -3.544441	 -0.550271	 -0.000253
H	 -1.748927	 0.140226	 -0.950791
H	 -2.508150	 1.327436	 0.067406
C	 -4.804551	 0.308747	 0.000556
H	 -3.553737	 -1.201524	 -0.870151
H	 -3.553831	 -1.203282	 0.868313
H	 -4.842050	 0.949078	 -0.874436
H	 -5.698404	 -0.304480	 -0.000254
H	 -4.842277	 0.947103	 0.876982
H	 3.459914	 -0.226569	 3.358280
H	 4.050428	 1.440638	 3.340347
H	 2.698000	 0.969235	 4.378119

	symmetry c1
}
set optking {
	frozen_dihedral = ("
		15 11 14 18
	")
}

ee,wfn = optimize('scf', return_wfn=True)
oeprop( wfn, 'DIPOLE', 'QUADRUPOLE', 'MULLIKEN_CHARGES')
f=open( 'psi4out.xyz', 'w' )
f.write( "25  " )
f.write( str(ee) + "\n" )
f.write( MOL.save_string_xyz() )
f.close()
--------------------------------------------------------------------------

    Molecular point group: c1
  Charge       = 0
  Multiplicity = 1
  Basis Set: CC-PVTZ
  Basis Set:
  @DF-RHF Final Energy:  -387.26895038509412
    Total Energy =                       -387.2689503850940582
    Molecular point group: c1
  Basis Set: CC-PVTZ
  Basis Set:
  Basis Set: CC-PVTZ
  Basis Set:
  @DF-RHF Final Energy:  -387.26919042520973
    Total Energy =                       -387.2691904252098993
  Basis Set: CC-PVTZ
  Basis Set:
  Basis Set: CC-PVTZ
  Basis Set:
  @DF-RHF Final Energy:  -387.26925479036328
    Total Energy =                       -387.2692547903629929
  Basis Set: CC-PVTZ
  Basis Set:
  Basis Set: CC-PVTZ
  Basis Set:
  @DF-RHF Final Energy:  -387.26917631176866
    Total Energy =                       -387.2691763117688879
  Basis Set: CC-PVTZ
  Basis Set:
  Charge       = 0
  Multiplicity = 1
  Basis Set: CC-PVTZ
  Basis Set:

    Orbital Energies (a.u.)
    -----------------------

    Doubly Occupied:

       1A    -20.538893     2A    -11.320527     3A    -11.230242
       4A    -11.226601     5A    -11.215546     6A    -11.214574
       7A    -11.213357     8A    -11.211354     9A    -11.207035
      10A     -1.398943    11A     -1.094234    12A     -1.056039
      13A     -1.015279    14A     -0.970048    15A     -0.891283
      16A     -0.816779    17A     -0.790691    18A     -0.730963
      19A     -0.660216    20A     -0.654893    21A     -0.628383
      22A     -0.625511    23A     -0.602475    24A     -0.587688
      25A     -0.570156    26A     -0.559071    27A     -0.533808
      28A     -0.530303    29A     -0.516057    30A     -0.493992
      31A     -0.485975    32A     -0.478068    33A     -0.464174
      34A     -0.456091    35A     -0.451015    36A     -0.401309

  @DF-RHF Final Energy:  -387.26925596513234

   => Energetics <=

    Nuclear Repulsion Energy =            439.7652348798401931
    One-Electron Energy =               -1396.3858310840903414
    Two-Electron Energy =                 569.3513402391180307
    DFT Exchange-Correlation Energy =       0.0000000000000000
    Empirical Dispersion Energy =           0.0000000000000000
    PCM Polarization Energy =               0.0000000000000000
    EFP Energy =                            0.0000000000000000
    Total Energy =                       -387.2692559651321744
    Molecular point group: c1
  Basis Set: CC-PVTZ
  Basis Set:

  -Total Gradient:
     Atom            X                  Y                   Z
    ------   -----------------  -----------------  -----------------
       1        0.000014164753     0.000024684197     0.000038941595
       2       -0.000004520822    -0.000101604186    -0.000055054902
       3       -0.000042933104     0.000013372595     0.000006087978
       4        0.000007071472     0.000049562440     0.000005079277
       5        0.000001907823     0.000006205857    -0.000002202680
       6        0.000003625154     0.000003699538    -0.000000234355
       7       -0.000004321001    -0.000003272222    -0.000000302644
       8       -0.000019832356     0.000017820265    -0.000039016500
       9       -0.000001476334    -0.000003833847    -0.000001136596
      10       -0.000002490555     0.000000844344     0.000000340760
      11       -0.001092154943     0.001700016147    -0.000856938997
      12        0.000018742567    -0.000006507727     0.000019531794
      13        0.000004966225    -0.000004984059     0.000019893898
      14        0.001012319573    -0.001598201098     0.001135625685
      15        0.000789841578    -0.001169417001     0.000570078137
      16        0.000016776595     0.000050148443    -0.000035951454
      17        0.000022390678    -0.000018444499    -0.000005405507
      18       -0.000715975539     0.001067822301    -0.000809161221
      19       -0.000004127814    -0.000062020065     0.000006378907
      20       -0.000021974138     0.000013662185    -0.000001965813
      21        0.000020972608     0.000001399840    -0.000001504365
      22       -0.000006936230     0.000014509954     0.000010497907
      23       -0.000002366984     0.000003640475    -0.000011407399
      24        0.000005547346    -0.000002844266     0.000008303862
      25        0.000000783446     0.000003740390    -0.000000477364

  **** Optimization is complete! (in 5 steps) ****
    Final optimized geometry and variables:
    Molecular point group: c1

    Geometry (in Angstrom), charge = 0, multiplicity = 1:

    O            2.824179053442     1.432472187920     0.193605482078
    C            2.575462681315     0.590599613296     0.993202712167
    C            1.283567850252    -0.200694748067     0.962093824370
    C            3.541301301504     0.250915657299     2.105945885212
    C            0.340947748505     0.175286487043    -0.172353233609
    H            1.546736615976    -1.254827029733     0.911245137429
    H            0.797285471373    -0.071424861864     1.926371118966
    C           -0.944233072477    -0.646715818762    -0.164079241420
    H            0.854331421436     0.046862368584    -1.118512602843
    H            0.103652670009     1.230838205335    -0.102583399961
    C           -1.901336312109    -0.277254583575    -1.295783261932
    H           -0.699651966108    -1.704412460528    -0.234892609553
    H           -1.453008064015    -0.517241098636     0.788946976131
    C           -3.197858656392    -1.112491530232    -1.302471141448
    H           -1.379057675744    -0.400597958849    -2.239132847764
    H           -2.143859793884     0.778159264857    -1.218424453720
    C           -4.466224698874    -0.263292927467    -1.323722126393
    H           -3.207882815275    -1.766896524539    -2.167449325685
    H           -3.222356585145    -1.759306387383    -0.431358679151
    H           -4.495226456249     0.373081185785    -2.201962378095
    H           -5.355486105454    -0.883526731956    -1.334722919264
    H           -4.520259747471     0.379342053924    -0.450913579558
    H            3.825425040742    -0.794068045679     2.048448613491
    H            4.420933557733     0.871320784317     2.029719679973
    H            3.069198325835     0.403864877031     3.070190499544

  Mulliken Charges: (a.u.)
   Center  Symbol    Alpha    Beta     Spin     Total
       1     O     4.17076  4.17076  0.00000 -0.34152
       2     C     2.86218  2.86218  0.00000  0.27564
       3     C     3.11356  3.11356  0.00000 -0.22712
       4     C     3.15125  3.15125  0.00000 -0.30251
       5     C     3.08391  3.08391  0.00000 -0.16782
       6     H     0.44557  0.44557  0.00000  0.10887
       7     H     0.44560  0.44560  0.00000  0.10881
       8     C     3.09169  3.09169  0.00000 -0.18339
       9     H     0.44609  0.44609  0.00000  0.10781
      10     H     0.44579  0.44579  0.00000  0.10841
      11     C     3.09317  3.09317  0.00000 -0.18633
      12     H     0.45460  0.45460  0.00000  0.09081
      13     H     0.45559  0.45559  0.00000  0.08881
      14     C     3.08858  3.08858  0.00000 -0.17716
      15     H     0.44972  0.44972  0.00000  0.10056
      16     H     0.45290  0.45290  0.00000  0.09420
      17     C     3.14739  3.14739  0.00000 -0.29477
      18     H     0.45061  0.45061  0.00000  0.09877
      19     H     0.45508  0.45508  0.00000  0.08983
      20     H     0.45387  0.45387  0.00000  0.09225
      21     H     0.44992  0.44992  0.00000  0.10017
      22     H     0.45602  0.45602  0.00000  0.08797
      23     H     0.45040  0.45040  0.00000  0.09921
      24     H     0.43537  0.43537  0.00000  0.12926
      25     H     0.45038  0.45038  0.00000  0.09925

   Total alpha = 36.00000, Total beta = 36.00000, Total charge = -0.00000

*** Psi4 exiting successfully. Buy a developer a beer!
