  ==> Input File <==

--------------------------------------------------------------------------
set {
	reference rhf
	basis 6-31G*
}

set_num_threads( 4 )
memory 2 gb

molecule MOL {
0 1

H	 2.591676	 2.013956	 0.335017
O	 3.341076	 1.666752	 -0.126416
C	 3.569581	 0.339145	 0.272707
C	 2.539767	 -0.640285	 -0.279495
H	 4.553106	 0.084646	 -0.100901
H	 3.608576	 0.269204	 1.359154
C	 1.480373	 -1.069244	 0.738614
H	 2.056071	 -0.183831	 -1.139177
H	 3.068986	 -1.519583	 -0.642992
C	 0.494144	 -2.093333	 0.169919
H	 0.936789	 -0.192407	 1.079259
H	 1.970983	 -1.494080	 1.614489
C	 -0.536858	 -2.621055	 1.174351
H	 -0.024137	 -1.656520	 -0.681800
H	 1.058530	 -2.937869	 -0.219861
C	 -1.543094	 -1.579843	 1.672190
H	 -1.084566	 -3.435957	 0.705559
H	 -0.017816	 -3.057370	 2.026444
C	 -2.613725	 -2.176040	 2.588561
H	 -2.025442	 -1.109034	 0.816742
H	 -1.026739	 -0.785667	 2.206011
C	 -3.615674	 -1.137657	 3.092071
H	 -3.145623	 -2.962002	 2.056737
H	 -2.133154	 -2.655383	 3.438953
H	 -4.136993	 -0.662910	 2.265593
H	 -4.362179	 -1.591100	 3.736862
H	 -3.118918	 -0.356268	 3.660427

	symmetry c1
}
set optking {
	frozen_dihedral = ("
		8 4 3 2
	")
}

ee = optimize('scf')
oeprop('DIPOLE', 'QUADRUPOLE', 'MULLIKEN_CHARGES')
f=open( 'psi4out.xyz', 'w' )
f.write( "27  " )
f.write( str(ee) + "\n" )
f.write( MOL.save_string_xyz() )
f.close()
--------------------------------------------------------------------------

    Molecular point group: c1
  Charge       = 0
  Multiplicity = 1
  Basis Set: 6-31G*
  Basis Set:
  @DF-RHF Final Energy:  -388.27688198450574
    Total Energy =                       -388.2768819845056214
    Molecular point group: c1
  Basis Set: 6-31G*
  Basis Set:
  Basis Set: 6-31G*
  Basis Set:
  @DF-RHF Final Energy:  -388.27728322412719
    Total Energy =                       -388.2772832241273591
  Basis Set: 6-31G*
  Basis Set:
  Basis Set: 6-31G*
  Basis Set:
  @DF-RHF Final Energy:  -388.27737707850696
    Total Energy =                       -388.2773770785069019
  Basis Set: 6-31G*
  Basis Set:
  Basis Set: 6-31G*
  Basis Set:
  @DF-RHF Final Energy:  -388.27737297495247
    Total Energy =                       -388.2773729749527547
  Basis Set: 6-31G*
  Basis Set:
  Basis Set: 6-31G*
  Basis Set:
  @DF-RHF Final Energy:  -388.27738824963859
    Total Energy =                       -388.2773882496388751
  Basis Set: 6-31G*
  Basis Set:
  Basis Set: 6-31G*
  Basis Set:
  @DF-RHF Final Energy:  -388.27738532118673
    Total Energy =                       -388.2773853211855339
  Basis Set: 6-31G*
  Basis Set:
  Basis Set: 6-31G*
  Basis Set:
  @DF-RHF Final Energy:  -388.27738848470170
    Total Energy =                       -388.2773884847019872
  Basis Set: 6-31G*
  Basis Set:
  Charge       = 0
  Multiplicity = 1
  Basis Set: 6-31G*
  Basis Set:

    Orbital Energies (a.u.)
    -----------------------

    Doubly Occupied:

       1A    -20.551774     2A    -11.266607     3A    -11.220200
       4A    -11.217343     5A    -11.216597     6A    -11.216011
       7A    -11.215183     8A    -11.214920     9A    -11.210033
      10A     -1.357803    11A     -1.095584    12A     -1.061730
      13A     -1.010883    14A     -0.946506    15A     -0.886365
      16A     -0.822326    17A     -0.804368    18A     -0.779184
      19A     -0.687632    20A     -0.654732    21A     -0.642137
      22A     -0.609259    23A     -0.600878    24A     -0.584019
      25A     -0.576654    26A     -0.552784    27A     -0.540746
      28A     -0.531915    29A     -0.506490    30A     -0.499972
      31A     -0.485389    32A     -0.474354    33A     -0.465669
      34A     -0.460881    35A     -0.452060    36A     -0.441012
      37A     -0.422754

  @DF-RHF Final Energy:  -388.27738848334479

   => Energetics <=

    Nuclear Repulsion Energy =            456.6491563295153355
    One-Electron Energy =               -1431.2875903367419141
    Two-Electron Energy =                 586.3610455238816712
    DFT Exchange-Correlation Energy =       0.0000000000000000
    Empirical Dispersion Energy =           0.0000000000000000
    PCM Polarization Energy =               0.0000000000000000
    EFP Energy =                            0.0000000000000000
    Total Energy =                       -388.2773884833449074
    Molecular point group: c1
  Basis Set: 6-31G*
  Basis Set:

  -Total Gradient:
     Atom            X                  Y                   Z
    ------   -----------------  -----------------  -----------------
       1       -0.000002961688     0.000026925441     0.000005509777
       2        0.002041141061    -0.000442665108    -0.002778268972
       3       -0.003487184927     0.000974343484     0.004295599352
       4        0.004558862926    -0.002081065569    -0.004086528257
       5        0.000000931569    -0.000036943400     0.000020783365
       6        0.000013873872    -0.000011171987     0.000001254834
       7        0.000021541408    -0.000017537848     0.000018265546
       8       -0.003154513234     0.001607474766     0.002501628329
       9       -0.000001112961    -0.000018709515     0.000025520829
      10        0.000008916700    -0.000008413273     0.000001018466
      11        0.000000304422     0.000003860448     0.000004216855
      12       -0.000007787439    -0.000002867241    -0.000004938210
      13        0.000006225829     0.000002324948     0.000006016688
      14       -0.000000816702     0.000001741561     0.000001966996
      15        0.000001506639    -0.000001495524    -0.000000961955
      16       -0.000001476555     0.000001426914    -0.000003789386
      17        0.000002264596     0.000005376053    -0.000004436105
      18       -0.000001069282    -0.000004734031    -0.000000207894
      19       -0.000001639528    -0.000000906460    -0.000001914073
      20       -0.000002055028    -0.000004424256    -0.000001811448
      21        0.000001310282     0.000006424962    -0.000002271017
      22        0.000005362381     0.000001682678     0.000005551923
      23       -0.000002388697     0.000002669820    -0.000001695827
      24       -0.000000710596    -0.000003174022    -0.000001576487
      25        0.000000316712    -0.000002431115    -0.000000174158
      26        0.000001831059    -0.000000049153     0.000001509841
      27       -0.000000672819     0.000002337422    -0.000000269012

  **** Optimization is complete! (in 8 steps) ****
    Final optimized geometry and variables:
    Molecular point group: c1

    Geometry (in Angstrom), charge = 0, multiplicity = 1:

    H            2.058037856289     2.935763668823    -0.795784642189
    O            2.881837068922     2.654082474226    -1.168915459278
    C            3.176421890042     1.350274808234    -0.732763285599
    C            2.205895562491     0.294682937508    -1.283598321881
    H            4.179124670169     1.158637154375    -1.090930259875
    H            3.212452894110     1.308721356062     0.354290281563
    C            1.121422820348    -0.121010773130    -0.282311980377
    H            1.724558145032     0.719009123417    -2.159975628929
    H            2.754572317284    -0.586346214721    -1.604848511410
    C            0.115962233313    -1.112624355625    -0.872505696538
    H            0.601623407471     0.768710407537     0.068701510891
    H            1.590621929912    -0.563998664649     0.594901680117
    C           -0.925394245497    -1.643181940390     0.119668305629
    H           -0.393521552361    -0.648954746447    -1.715580726392
    H            0.664825004680    -1.958978423006    -1.280610336225
    C           -1.907533654369    -0.592783055457     0.645387597402
    H           -1.491334216806    -2.433886673608    -0.368451665091
    H           -0.415010665631    -2.111635424131     0.959725992771
    C           -2.990174757364    -1.187766888616     1.548338890720
    H           -2.380563773074    -0.089962677971    -0.197154472745
    H           -1.372442015054     0.175507322329     1.198342438609
    C           -3.967493466418    -0.140156515745     2.080307901098
    H           -3.540549623884    -1.947584549592     0.997681364044
    H           -2.519319934519    -1.699355721880     2.385214360636
    H           -4.479468102600     0.367030721730     1.267324360155
    H           -4.722980237797    -0.592860352894     2.715037969186
    H           -3.452184607401     0.615029503357     2.667276074587

  Mulliken Charges: (a.u.)
   Center  Symbol    Alpha    Beta     Spin     Total
       1     H     0.28345  0.28345  0.00000  0.43309
       2     O     4.36983  4.36983  0.00000 -0.73965
       3     C     2.99590  2.99590  0.00000  0.00821
       4     C     3.17279  3.17279  0.00000 -0.34558
       5     H     0.41430  0.41430  0.00000  0.17140
       6     H     0.42931  0.42931  0.00000  0.14138
       7     C     3.15852  3.15852  0.00000 -0.31703
       8     H     0.41133  0.41133  0.00000  0.17735
       9     H     0.41924  0.41924  0.00000  0.16152
      10     C     3.15298  3.15298  0.00000 -0.30597
      11     H     0.42763  0.42763  0.00000  0.14474
      12     H     0.42277  0.42277  0.00000  0.15446
      13     C     3.15333  3.15333  0.00000 -0.30667
      14     H     0.42280  0.42280  0.00000  0.15441
      15     H     0.42110  0.42110  0.00000  0.15780
      16     C     3.15261  3.15261  0.00000 -0.30523
      17     H     0.42123  0.42123  0.00000  0.15754
      18     H     0.42381  0.42381  0.00000  0.15238
      19     C     3.15120  3.15120  0.00000 -0.30241
      20     H     0.42452  0.42452  0.00000  0.15097
      21     H     0.42329  0.42329  0.00000  0.15343
      22     C     3.23922  3.23922  0.00000 -0.47843
      23     H     0.42277  0.42277  0.00000  0.15445
      24     H     0.42298  0.42298  0.00000  0.15405
      25     H     0.42177  0.42177  0.00000  0.15647
      26     H     0.41905  0.41905  0.00000  0.16191
      27     H     0.42228  0.42228  0.00000  0.15543

   Total alpha = 37.00000, Total beta = 37.00000, Total charge =  0.00000
