                              Psi4 1.0.54 Driver

  ==> Input File <==

--------------------------------------------------------------------------
set {
	reference rhf
	basis cc-pvtz
}

set_num_threads( 4 )
memory 2 gb

molecule MOL {
0 1

H	 -3.411584	 0.977151	 1.534647
O	 -2.560987	 1.259392	 1.253823
C	 -2.021813	 0.336996	 0.342658
C	 -0.669613	 0.837286	 -0.127252
H	 -1.905458	 -0.635057	 0.815203
H	 -2.687084	 0.211613	 -0.509443
C	 0.490865	 -0.082543	 0.241244
H	 -0.708709	 0.967192	 -1.204587
H	 -0.507562	 1.822272	 0.303070
C	 1.839800	 0.429565	 -0.255472
H	 0.305636	 -1.070211	 -0.165276
H	 0.527397	 -0.195943	 1.322876
C	 3.001144	 -0.485193	 0.119072
H	 1.804373	 0.541073	 -1.335756
H	 2.020437	 1.423114	 0.146921
H	 2.866892	 -1.477297	 -0.298806
H	 3.943543	 -0.095749	 -0.249061
H	 3.085064	 -0.590459	 1.195790

	symmetry c1
}
set optking {
	frozen_dihedral = ("
		2 3 4 8
	")
}

ee,wfn = optimize('scf', return_wfn=True)
oeprop( wfn, 'DIPOLE', 'QUADRUPOLE', 'MULLIKEN_CHARGES')
f=open( 'psi4out.xyz', 'w' )
f.write( "18  " )
f.write( str(ee) + "\n" )
f.write( MOL.save_string_xyz() )
f.close()
--------------------------------------------------------------------------

    Molecular point group: c1
  Charge       = 0
  Multiplicity = 1
  Basis Set: CC-PVTZ
  Basis Set:
  @DF-RHF Final Energy:  -271.28094339144167
    Total Energy =                       -271.2809433914414967
    Molecular point group: c1
  Basis Set: CC-PVTZ
  Basis Set:
  Basis Set: CC-PVTZ
  Basis Set:
  @DF-RHF Final Energy:  -271.28124780817222
    Total Energy =                       -271.2812478081722816
  Basis Set: CC-PVTZ
  Basis Set:
  Basis Set: CC-PVTZ
  Basis Set:
  @DF-RHF Final Energy:  -271.28131685024289
    Total Energy =                       -271.2813168502428312
  Basis Set: CC-PVTZ
  Basis Set:
  Basis Set: CC-PVTZ
  Basis Set:
  @DF-RHF Final Energy:  -271.28131825444518
    Total Energy =                       -271.2813182544452388
  Basis Set: CC-PVTZ
  Basis Set:
  Charge       = 0
  Multiplicity = 1
  Basis Set: CC-PVTZ
  Basis Set:

    Orbital Energies (a.u.)
    -----------------------

    Doubly Occupied:

       1A    -20.545251     2A    -11.265506     3A    -11.212043
       4A    -11.211363     5A    -11.209096     6A    -11.205590
       7A     -1.362258     8A     -1.079083     9A     -1.009445
      10A     -0.913836    11A     -0.821117    12A     -0.790998
      13A     -0.704255    14A     -0.644624    15A     -0.628865
      16A     -0.582116    17A     -0.572659    18A     -0.561327
      19A     -0.528637    20A     -0.498422    21A     -0.489902
      22A     -0.469738    23A     -0.462986    24A     -0.453935
      25A     -0.428751

  @DF-RHF Final Energy:  -271.28131869053811

   => Energetics <=

    Nuclear Repulsion Energy =            246.2557983394987389
    One-Electron Energy =                -855.7706291377676280
    Two-Electron Energy =                 338.2335121077311442
    DFT Exchange-Correlation Energy =       0.0000000000000000
    Empirical Dispersion Energy =           0.0000000000000000
    PCM Polarization Energy =               0.0000000000000000
    EFP Energy =                            0.0000000000000000
    Total Energy =                       -271.2813186905377734
    Molecular point group: c1
  Basis Set: CC-PVTZ
  Basis Set:

  -Total Gradient:
     Atom            X                  Y                   Z
    ------   -----------------  -----------------  -----------------
       1       -0.000038481093     0.000019308382     0.000035769011
       2       -0.000302195974     0.000220565458    -0.000519455628
       3        0.000380613510    -0.000173565842     0.000584199555
       4        0.000284355427    -0.000911965680    -0.000244030781
       5       -0.000006438705     0.000029660345     0.000013811194
       6       -0.000025592134     0.000022008796     0.000017638562
       7       -0.000013336117     0.000011464469    -0.000008953675
       8       -0.000286243651     0.000756123519     0.000098693827
       9        0.000003218168     0.000001341097     0.000018438548
      10        0.000003464337     0.000004979280     0.000008311203
      11       -0.000027242006     0.000004867801     0.000008219159
      12        0.000001430359     0.000012511067    -0.000003380163
      13        0.000011085129     0.000001528189    -0.000010069768
      14       -0.000000664806     0.000000607579     0.000001719826
      15        0.000009074378     0.000002836709     0.000000533026
      16       -0.000001193555     0.000000188358     0.000001609236
      17        0.000009350644    -0.000004376147    -0.000002374673
      18       -0.000001203908     0.000001916622    -0.000000678457

  **** Optimization is complete! (in 5 steps) ****
    Final optimized geometry and variables:
    Molecular point group: c1

    Geometry (in Angstrom), charge = 0, multiplicity = 1:

    H           -3.350127176532     0.557696862995     1.281699271273
    O           -2.521283411058     0.859185628267     0.957788298989
    C           -1.989703755921    -0.077530832005     0.053761506179
    C           -0.630976541720     0.426279219295    -0.442992924435
    H           -1.876763772880    -1.042183813354     0.541304776799
    H           -2.672105670777    -0.214146832208    -0.780155193906
    C            0.540109530978    -0.472726835731    -0.056366124104
    H           -0.654294460991     0.548994805438    -1.520867972700
    H           -0.483283240459     1.415306753415    -0.026255851819
    C            1.888858298795     0.056200944428    -0.533749898469
    H            0.382785979537    -1.469198205207    -0.463680769875
    H            0.559176775972    -0.584702803599     1.024961252026
    C            3.057557489480    -0.843035179424    -0.144821679015
    H            1.867196642922     0.171318155703    -1.614157262769
    H            2.047380008204     1.050416775847    -0.125449567669
    H            2.945041667122    -1.836171634659    -0.567182211358
    H            3.999144360584    -0.438753381273    -0.498333350788
    H            3.127320564709    -0.949585514735     0.932610647468

  Mulliken Charges: (a.u.)
   Center  Symbol    Alpha    Beta     Spin     Total
       1     H     0.39552  0.39552  0.00000  0.20895
       2     O     4.19764  4.19764  0.00000 -0.39528
       3     C     2.96559  2.96559  0.00000  0.06881
       4     C     3.09107  3.09107  0.00000 -0.18214
       5     H     0.47529  0.47529  0.00000  0.04941
       6     H     0.47234  0.47234  0.00000  0.05533
       7     C     3.09393  3.09393  0.00000 -0.18786
       8     H     0.45288  0.45288  0.00000  0.09425
       9     H     0.44529  0.44529  0.00000  0.10943
      10     C     3.08524  3.08524  0.00000 -0.17047
      11     H     0.45664  0.45664  0.00000  0.08673
      12     H     0.45134  0.45134  0.00000  0.09733
      13     C     3.14974  3.14974  0.00000 -0.29948
      14     H     0.45519  0.45519  0.00000  0.08962
      15     H     0.45302  0.45302  0.00000  0.09397
      16     H     0.45589  0.45589  0.00000  0.08823
      17     H     0.44857  0.44857  0.00000  0.10287
      18     H     0.45484  0.45484  0.00000  0.09032

   Total alpha = 25.00000, Total beta = 25.00000, Total charge =  0.00000

*** Psi4 exiting successfully. Buy a developer a beer!
