  ==> Input File <==

--------------------------------------------------------------------------
set {
	reference rhf
	basis 6-31G*
}

set_num_threads( 1 )
memory 2 gb

molecule MOL {
0 1

H	 2.046534	 -0.756867	 1.270511
C	 1.951159	 -0.223429	 0.317018
C	 0.692068	 0.589600	 0.160137
O	 2.806095	 -0.310695	 -0.503713
C	 -0.558097	 -0.297372	 0.091132
H	 0.791645	 1.202255	 -0.728243
H	 0.616171	 1.253469	 1.020572
C	 -1.850991	 0.512573	 -0.019058
H	 -0.476753	 -0.965681	 -0.762987
H	 -0.604799	 -0.930658	 0.975228
C	 -3.096943	 -0.368295	 -0.099594
H	 -1.800724	 1.150330	 -0.898172
H	 -1.931651	 1.177355	 0.838044
H	 -3.060452	 -1.020287	 -0.967456
H	 -3.996858	 0.233488	 -0.175704
H	 -3.191959	 -0.995686	 0.782074

	symmetry c1
}
set optking {
	frozen_dihedral = ("
		9 5 8 12,
		6 3 5 9
	")
}

ee = energy('scf')
oeprop('DIPOLE', 'QUADRUPOLE', 'MULLIKEN_CHARGES')
f=open( 'psi4out.xyz', 'w' )
f.write( "16  " )
f.write( str(ee) + "\n" )
f.write( MOL.save_string_xyz() )
f.close()
--------------------------------------------------------------------------

    Molecular point group: c1

    Geometry (in Angstrom), charge = 0, multiplicity = 1:

       Center              X                  Y                   Z               Mass
    ------------   -----------------  -----------------  -----------------  -----------------
           H          2.060128058656    -0.732908579339     1.285576849803     1.007825032070
           C          1.964753058656    -0.199470579339     0.332083849803    12.000000000000
           C          0.705662058656     0.613558420661     0.175202849803    12.000000000000
           O          2.819689058656    -0.286736579339    -0.488647150197    15.994914619560
           C         -0.544502941344    -0.273413579339     0.106197849803    12.000000000000
           H          0.805239058656     1.226213420661    -0.713177150197     1.007825032070
           H          0.629765058656     1.277427420661     1.035637849803     1.007825032070
           C         -1.837396941344     0.536531420661    -0.003992150197    12.000000000000
           H         -0.463158941344    -0.941722579339    -0.747921150197     1.007825032070
           H         -0.591204941344    -0.906699579339     0.990293849803     1.007825032070
           C         -3.083348941344    -0.344336579339    -0.084528150197    12.000000000000
           H         -1.787129941344     1.174288420661    -0.883106150197     1.007825032070
           H         -1.918056941344     1.201313420661     0.853109849803     1.007825032070
           H         -3.046857941344    -0.996328579339    -0.952390150197     1.007825032070
           H         -3.983263941344     0.257446420661    -0.160638150197     1.007825032070
           H         -3.178364941344    -0.971727579339     0.797139849803     1.007825032070

  Charge       = 0
  Multiplicity = 1
  Basis Set: 6-31G*
  Basis Set:

    Orbital Energies (a.u.)
    -----------------------

    Doubly Occupied:

       1A    -20.562621     2A    -11.326498     3A    -11.236861
       4A    -11.235134     5A    -11.229182     6A    -11.218297
       7A     -1.402365     8A     -1.096197     9A     -1.018680
      10A     -0.906448    11A     -0.812451    12A     -0.791960
      13A     -0.679548    14A     -0.646463    15A     -0.629745
      16A     -0.603113    17A     -0.579943    18A     -0.551825
      19A     -0.526040    20A     -0.511021    21A     -0.487717
      22A     -0.480960    23A     -0.478467    24A     -0.408776

  @DF-RHF Final Energy:  -270.01978801932671

   => Energetics <=

    Nuclear Repulsion Energy =            229.0736790133981913
    One-Electron Energy =                -819.3463400765829192
    Two-Electron Energy =                 320.2528730438582443
    DFT Exchange-Correlation Energy =       0.0000000000000000
    Empirical Dispersion Energy =           0.0000000000000000
    PCM Polarization Energy =               0.0000000000000000
    EFP Energy =                            0.0000000000000000
    Total Energy =                       -270.0197880193264837

  Mulliken Charges: (a.u.)
   Center  Symbol    Alpha    Beta     Spin     Total
       1     H     0.43193  0.43193  0.00000  0.13614
       2     C     2.83161  2.83161  0.00000  0.33677
       3     C     3.20617  3.20617  0.00000 -0.41233
       4     O     4.23637  4.23637  0.00000 -0.47274
       5     C     3.16373  3.16373  0.00000 -0.32746
       6     H     0.39968  0.39968  0.00000  0.20064
       7     H     0.41238  0.41238  0.00000  0.17524
       8     C     3.15163  3.15163  0.00000 -0.30326
       9     H     0.41149  0.41149  0.00000  0.17702
      10     H     0.41917  0.41917  0.00000  0.16167
      11     C     3.24057  3.24057  0.00000 -0.48114
      12     H     0.41825  0.41825  0.00000  0.16350
      13     H     0.42098  0.42098  0.00000  0.15804
      14     H     0.41908  0.41908  0.00000  0.16185
      15     H     0.41642  0.41642  0.00000  0.16716
      16     H     0.42055  0.42055  0.00000  0.15890

   Total alpha = 24.00000, Total beta = 24.00000, Total charge =  0.00000
