  ==> Input File <==

--------------------------------------------------------------------------
set {
	reference rhf
	basis 6-31G*
}

set_num_threads( 4 )
memory 2 gb

molecule MOL {
0 1

H	 -3.892951	 0.981613	 -0.358725
C	 -3.196921	 0.361773	 0.172313
C	 -2.076860	 -0.007332	 -0.404944
H	 -3.439953	 0.057760	 1.173024
O	 -1.180634	 -0.819263	 0.215062
H	 -1.811520	 0.292194	 -1.403480
C	 0.051604	 -1.018856	 -0.387932
C	 1.043764	 0.054862	 -0.001873
H	 -0.017620	 -1.041351	 -1.469781
H	 0.437898	 -1.966374	 -0.042284
F	 1.675484	 0.481574	 -1.085688
F	 0.447566	 1.097696	 0.552091
F	 1.947870	 -0.388695	 0.846796

	symmetry c1
}
set optking {
	frozen_dihedral = ("
		11 8 7 9
	")
}

ee = optimize('scf')
oeprop('DIPOLE', 'QUADRUPOLE', 'MULLIKEN_CHARGES')
f=open( 'psi4out.xyz', 'w' )
f.write( "13  " )
f.write( str(ee) + "\n" )
f.write( MOL.save_string_xyz() )
f.close()
--------------------------------------------------------------------------

    Molecular point group: c1
  Charge       = 0
  Multiplicity = 1
  Basis Set: 6-31G*
  Basis Set:
  @DF-RHF Final Energy:  -527.52906599741868
    Total Energy =                       -527.5290659974186838
    Molecular point group: c1
  Basis Set: 6-31G*
  Basis Set:
  Basis Set: 6-31G*
  Basis Set:
  @DF-RHF Final Energy:  -527.52960557618360
    Total Energy =                       -527.5296055761831440
  Basis Set: 6-31G*
  Basis Set:
  Basis Set: 6-31G*
  Basis Set:
  @DF-RHF Final Energy:  -527.52980995922076
    Total Energy =                       -527.5298099592208700
  Basis Set: 6-31G*
  Basis Set:
  Basis Set: 6-31G*
  Basis Set:
  @DF-RHF Final Energy:  -527.52982532083388
    Total Energy =                       -527.5298253208338792
  Basis Set: 6-31G*
  Basis Set:
  Basis Set: 6-31G*
  Basis Set:
  @DF-RHF Final Energy:  -527.52983207969282
    Total Energy =                       -527.5298320796928238
  Basis Set: 6-31G*
  Basis Set:
  Basis Set: 6-31G*
  Basis Set:
  @DF-RHF Final Energy:  -527.52984034231235
    Total Energy =                       -527.5298403423126956
  Basis Set: 6-31G*
  Basis Set:
  Basis Set: 6-31G*
  Basis Set:
  @DF-RHF Final Energy:  -527.52984352495787
    Total Energy =                       -527.5298435249583235
  Basis Set: 6-31G*
  Basis Set:
  Charge       = 0
  Multiplicity = 1
  Basis Set: 6-31G*
  Basis Set:

    Orbital Energies (a.u.)
    -----------------------

    Doubly Occupied:

       1A    -26.342899     2A    -26.342488     3A    -26.342027
       4A    -20.607887     5A    -11.504855     6A    -11.318613
       7A    -11.299500     8A    -11.216021     9A     -1.742130
      10A     -1.639173    11A     -1.637974    12A     -1.438225
      13A     -1.080824    14A     -1.015041    15A     -0.925665
      16A     -0.837528    17A     -0.829485    18A     -0.821719
      19A     -0.789066    20A     -0.725815    21A     -0.715439
      22A     -0.694928    23A     -0.674523    24A     -0.659910
      25A     -0.655150    26A     -0.642372    27A     -0.626740
      28A     -0.584327    29A     -0.561783    30A     -0.525446
      31A     -0.511597    32A     -0.351571

  @DF-RHF Final Energy:  -527.52984428797959

   => Energetics <=

    Nuclear Repulsion Energy =            412.4753139487827980
    One-Electron Energy =               -1548.6888748756680343
    Two-Electron Energy =                 608.6837166389054801
    DFT Exchange-Correlation Energy =       0.0000000000000000
    Empirical Dispersion Energy =           0.0000000000000000
    PCM Polarization Energy =               0.0000000000000000
    EFP Energy =                            0.0000000000000000
    Total Energy =                       -527.5298442879798131
    Molecular point group: c1
  Basis Set: 6-31G*
  Basis Set:

  -Total Gradient:
     Atom            X                  Y                   Z
    ------   -----------------  -----------------  -----------------
       1        0.000014919437     0.000030848795     0.000020258629
       2       -0.000007281810    -0.000001048888     0.000001000630
       3        0.000026580699    -0.000100191213    -0.000061804767
       4        0.000004411896     0.000003202217     0.000002752044
       5       -0.000035601355     0.000005203356     0.000055789360
       6        0.000012334172     0.000030974010     0.000017970427
       7       -0.003328279125     0.003335676852    -0.000161106279
       8        0.002844010338    -0.002908666885     0.000534168650
       9        0.002309176488    -0.002237547427     0.000003834034
      10       -0.000030668594     0.000002740187     0.000010146740
      11       -0.001811108097     0.001886727409    -0.000443989893
      12       -0.000045667071    -0.000017289232    -0.000016634101
      13        0.000047173037    -0.000030629180     0.000037614529

  **** Optimization is complete! (in 8 steps) ****
    Final optimized geometry and variables:
    Molecular point group: c1

    Geometry (in Angstrom), charge = 0, multiplicity = 1:

    H           -3.917820434699     0.979023176969    -0.334979736530
    C           -3.256372788695     0.305427034898     0.174322439149
    C           -2.071450226673     0.046010290892    -0.328215982747
    H           -3.584479122378    -0.137543203846     1.095893708068
    O           -1.203651132076    -0.806964469061     0.275920963300
    H           -1.722979043046     0.484700005079    -1.246910547441
    C            0.016455074890    -1.029995072970    -0.337952926752
    C            1.056746519721     0.050827779442    -0.023001492328
    H           -0.067105229787    -1.117455098547    -1.414701754316
    H            0.395006020737    -1.966331738803     0.043655824796
    F            1.700897722305     0.407996646977    -1.126135938800
    F            0.509407863104     1.139013197222     0.478954103239
    F            1.962400577292    -0.377888033076     0.838588301785

  Mulliken Charges: (a.u.)
   Center  Symbol    Alpha    Beta     Spin     Total
       1     H     0.40701  0.40701  0.00000  0.18599
       2     C     3.23651  3.23651  0.00000 -0.47301
       3     C     2.89412  2.89412  0.00000  0.21176
       4     H     0.40211  0.40211  0.00000  0.19579
       5     O     4.29810  4.29810  0.00000 -0.59620
       6     H     0.40728  0.40728  0.00000  0.18543
       7     C     3.08359  3.08359  0.00000 -0.16718
       8     C     2.44638  2.44638  0.00000  1.10724
       9     H     0.40043  0.40043  0.00000  0.19914
      10     H     0.38535  0.38535  0.00000  0.22929
      11     F     4.68495  4.68495  0.00000 -0.36991
      12     F     4.67406  4.67406  0.00000 -0.34813
      13     F     4.68011  4.68011  0.00000 -0.36021

   Total alpha = 32.00000, Total beta = 32.00000, Total charge = -0.00000
