  ==> Input File <==

--------------------------------------------------------------------------
set {
	reference rhf
	basis 6-31G*
}

set_num_threads( 4 )
memory 2 gb

molecule MOL {
0 1

H	 2.023234	 1.392169	 0.856238
O	 1.142749	 1.032153	 0.900075
C	 1.050492	 0.053836	 0.000068
C	 -0.318135	 -0.576402	 0.000164
O	 1.962096	 -0.251630	 -0.697547
C	 -1.454360	 0.441875	 -0.000474
H	 -0.374042	 -1.230163	 -0.866135
H	 -0.374274	 -1.229227	 0.867154
C	 -2.826123	 -0.230780	 0.000056
H	 -1.357605	 1.085198	 -0.868380
H	 -1.357504	 1.086451	 0.866496
H	 -2.959731	 -0.858053	 -0.876869
H	 -3.619374	 0.509403	 -0.000080
H	 -2.959371	 -0.857318	 0.877556

	symmetry c1
}
set optking {
	frozen_dihedral = ("
		2 3 4 7
	")
}

ee = optimize('scf')
oeprop('DIPOLE', 'QUADRUPOLE', 'MULLIKEN_CHARGES')
f=open( 'psi4out.xyz', 'w' )
f.write( "14  " )
f.write( str(ee) + "\n" )
f.write( MOL.save_string_xyz() )
f.close()
--------------------------------------------------------------------------

    Molecular point group: c1
  Charge       = 0
  Multiplicity = 1
  Basis Set: 6-31G*
  Basis Set:
  @DF-RHF Final Energy:  -305.87880286589439
    Total Energy =                       -305.8788028658943858
    Molecular point group: c1
  Basis Set: 6-31G*
  Basis Set:
  Basis Set: 6-31G*
  Basis Set:
  @DF-RHF Final Energy:  -305.87891080625025
    Total Energy =                       -305.8789108062502464
  Basis Set: 6-31G*
  Basis Set:
  Basis Set: 6-31G*
  Basis Set:
  @DF-RHF Final Energy:  -305.87910582889992
    Total Energy =                       -305.8791058288998670
  Basis Set: 6-31G*
  Basis Set:
  Basis Set: 6-31G*
  Basis Set:
  @DF-RHF Final Energy:  -305.87917254204700
    Total Energy =                       -305.8791725420472289
  Basis Set: 6-31G*
  Basis Set:
  Basis Set: 6-31G*
  Basis Set:
  @DF-RHF Final Energy:  -305.87917874962432
    Total Energy =                       -305.8791787496242023
  Basis Set: 6-31G*
  Basis Set:
  Basis Set: 6-31G*
  Basis Set:
  @DF-RHF Final Energy:  -305.87918045547246
    Total Energy =                       -305.8791804554725786
  Basis Set: 6-31G*
  Basis Set:
  Charge       = 0
  Multiplicity = 1
  Basis Set: 6-31G*
  Basis Set:

    Orbital Energies (a.u.)
    -----------------------

    Doubly Occupied:

       1A    -20.613977     2A    -20.549971     3A    -11.380885
       4A    -11.240631     5A    -11.232723     6A    -11.220288
       7A     -1.474998     8A     -1.364817     9A     -1.085843
      10A     -0.978986    11A     -0.847545    12A     -0.815275
      13A     -0.700527    14A     -0.684228    15A     -0.653997
      16A     -0.624422    17A     -0.592027    18A     -0.564524
      19A     -0.552018    20A     -0.521139    21A     -0.498712
      22A     -0.487736    23A     -0.473250    24A     -0.437545

  @DF-RHF Final Energy:  -305.87918061973369

   => Energetics <=

    Nuclear Repulsion Energy =            240.4233356595979956
    One-Electron Energy =                -893.4129043057512263
    Two-Electron Energy =                 347.1103880264195141
    DFT Exchange-Correlation Energy =       0.0000000000000000
    Empirical Dispersion Energy =           0.0000000000000000
    PCM Polarization Energy =               0.0000000000000000
    EFP Energy =                            0.0000000000000000
    Total Energy =                       -305.8791806197336882
    Molecular point group: c1
  Basis Set: 6-31G*
  Basis Set:

  -Total Gradient:
     Atom            X                  Y                   Z
    ------   -----------------  -----------------  -----------------
       1       -0.000006270174    -0.000010236750    -0.000005407403
       2       -0.000232786633     0.000478206348    -0.000472349165
       3        0.000250509207    -0.000484727886     0.000549076511
       4        0.000277210638    -0.000592770593     0.000419954096
       5       -0.000002858809    -0.000013389112    -0.000008022532
       6        0.000001228409     0.000003490895    -0.000005959637
       7       -0.000296723465     0.000637903514    -0.000465450172
       8       -0.000001038834    -0.000003622915    -0.000009056095
       9        0.000000319143    -0.000005924151     0.000009285000
      10        0.000009669440    -0.000007124308    -0.000003160329
      11        0.000000397972    -0.000000293513    -0.000002469927
      12       -0.000005461143     0.000003412324    -0.000006670687
      13        0.000004001251    -0.000000554230     0.000002856126
      14        0.000001802991    -0.000004369626    -0.000002625786

  **** Optimization is complete! (in 7 steps) ****
    Final optimized geometry and variables:
    Molecular point group: c1

    Geometry (in Angstrom), charge = 0, multiplicity = 1:

    H            2.121288944433     1.274965076344     0.782555862377
    O            1.229879600475     0.945119650984     0.842054940446
    C            1.096320311763    -0.039075116327    -0.046342848556
    C           -0.277084042989    -0.660174195438    -0.029291260019
    O            1.991873042846    -0.375650094469    -0.750914584652
    C           -1.428254441325     0.352469874029    -0.027450608513
    H           -0.335679252899    -1.310629964990    -0.892353786472
    H           -0.335607551094    -1.284018778234     0.859546165985
    C           -2.790199702888    -0.338861926045    -0.060867370359
    H           -1.332935418080     1.007348106852    -0.889533530557
    H           -1.355293827804     0.982117443073     0.851382837157
    H           -2.900434326832    -0.951693050232    -0.950601854908
    H           -3.593810038850     0.390112659479    -0.059182075396
    H           -2.925176045253    -0.982282351050     0.803872214009

  Mulliken Charges: (a.u.)
   Center  Symbol    Alpha    Beta     Spin     Total
       1     H     0.26731  0.26731  0.00000  0.46537
       2     O     4.34731  4.34731  0.00000 -0.69462
       3     C     2.62731  2.62731  0.00000  0.74538
       4     C     3.20450  3.20450  0.00000 -0.40900
       5     O     4.28020  4.28020  0.00000 -0.56041
       6     C     3.16088  3.16088  0.00000 -0.32177
       7     H     0.39649  0.39649  0.00000  0.20702
       8     H     0.40100  0.40100  0.00000  0.19799
       9     C     3.24213  3.24213  0.00000 -0.48426
      10     H     0.41499  0.41499  0.00000  0.17002
      11     H     0.40534  0.40534  0.00000  0.18933
      12     H     0.41853  0.41853  0.00000  0.16295
      13     H     0.41453  0.41453  0.00000  0.17094
      14     H     0.41948  0.41948  0.00000  0.16105

   Total alpha = 24.00000, Total beta = 24.00000, Total charge =  0.00000
