                              Psi4 1.0.54 Driver

  ==> Input File <==

--------------------------------------------------------------------------
set {
	reference rhf
	basis cc-pvtz
}

set_num_threads( 4 )
memory 2 gb

molecule MOL {
0 1

H	 -3.436473	 1.252944	 -1.023892
O	 -3.458596	 0.315260	 -0.960865
C	 -3.176635	 -0.080824	 0.355601
C	 -1.763371	 0.265266	 0.799691
H	 -3.321825	 -1.153438	 0.379502
H	 -3.895468	 0.357385	 1.043382
C	 -0.673390	 -0.426948	 -0.013392
H	 -1.631049	 1.344913	 0.747560
H	 -1.664587	 -0.001624	 1.849167
C	 0.737842	 -0.043159	 0.423759
H	 -0.806103	 -0.190518	 -1.063345
H	 -0.797221	 -1.503753	 0.074146
C	 1.273264	 -0.926962	 1.548599
H	 1.399203	 -0.095563	 -0.435743
H	 0.744850	 0.994408	 0.751268
C	 2.653134	 -0.531178	 2.076955
H	 1.303131	 -1.959882	 1.209434
H	 0.568348	 -0.901162	 2.375067
C	 3.793429	 -0.703950	 1.076445
H	 2.868736	 -1.131129	 2.955790
H	 2.624668	 0.501247	 2.415640
H	 3.842694	 -1.726364	 0.715447
H	 4.747033	 -0.471025	 1.536476
H	 3.680744	 -0.054874	 0.216440

	symmetry c1
}
set optking {
	frozen_dihedral = ("
		13 10 7 11
	")
}

ee,wfn = optimize('scf', return_wfn=True)
oeprop( wfn, 'DIPOLE', 'QUADRUPOLE', 'MULLIKEN_CHARGES')
f=open( 'psi4out.xyz', 'w' )
f.write( "24  " )
f.write( str(ee) + "\n" )
f.write( MOL.save_string_xyz() )
f.close()
--------------------------------------------------------------------------

    Molecular point group: c1
  Charge       = 0
  Multiplicity = 1
  Basis Set: CC-PVTZ
  Basis Set:
  @DF-RHF Final Energy:  -349.37714067491675
    Total Energy =                       -349.3771406749169728
    Molecular point group: c1
  Basis Set: CC-PVTZ
  Basis Set:
  Basis Set: CC-PVTZ
  Basis Set:
  @DF-RHF Final Energy:  -349.37738228063375
    Total Energy =                       -349.3773822806338671
  Basis Set: CC-PVTZ
  Basis Set:
  Basis Set: CC-PVTZ
  Basis Set:
  @DF-RHF Final Energy:  -349.37741790502980
    Total Energy =                       -349.3774179050296880
  Basis Set: CC-PVTZ
  Basis Set:
  Basis Set: CC-PVTZ
  Basis Set:
  @DF-RHF Final Energy:  -349.37741517317357
    Total Energy =                       -349.3774151731738584
  Basis Set: CC-PVTZ
  Basis Set:
  Basis Set: CC-PVTZ
  Basis Set:
  @DF-RHF Final Energy:  -349.37742525286376
    Total Energy =                       -349.3774252528635884
  Basis Set: CC-PVTZ
  Basis Set:
  Charge       = 0
  Multiplicity = 1
  Basis Set: CC-PVTZ
  Basis Set:

    Orbital Energies (a.u.)
    -----------------------

    Doubly Occupied:

       1A    -20.546143     2A    -11.265441     3A    -11.215289
       4A    -11.212721     5A    -11.210775     6A    -11.209979
       7A    -11.209053     8A    -11.205403     9A     -1.364014
      10A     -1.089698    11A     -1.048479    12A     -0.985608
      13A     -0.916716    14A     -0.853868    15A     -0.804241
      16A     -0.774342    17A     -0.682500    18A     -0.646053
      19A     -0.629229    20A     -0.620072    21A     -0.595965
      22A     -0.588059    23A     -0.566877    24A     -0.538614
      25A     -0.520353    26A     -0.510866    27A     -0.494179
      28A     -0.484138    29A     -0.466812    30A     -0.459226
      31A     -0.457553    32A     -0.438539    33A     -0.425394

  @DF-RHF Final Energy:  -349.37742527617633

   => Energetics <=

    Nuclear Repulsion Energy =            386.7685701550068984
    One-Electron Energy =               -1240.2195899918347095
    Two-Electron Energy =                 504.0735945606517134
    DFT Exchange-Correlation Energy =       0.0000000000000000
    Empirical Dispersion Energy =           0.0000000000000000
    PCM Polarization Energy =               0.0000000000000000
    EFP Energy =                            0.0000000000000000
    Total Energy =                       -349.3774252761760408
    Molecular point group: c1
  Basis Set: CC-PVTZ
  Basis Set:

  -Total Gradient:
     Atom            X                  Y                   Z
    ------   -----------------  -----------------  -----------------
       1        0.000000303198    -0.000001627474     0.000002419683
       2        0.000012984609    -0.000008041163    -0.000017907005
       3       -0.000006584357     0.000026901804     0.000013862383
       4       -0.000009968920    -0.000022020654     0.000006322472
       5        0.000004843801     0.000002854824     0.000001030373
       6       -0.000003311460    -0.000001057313     0.000004236761
       7       -0.000715311939     0.002719145910     0.000304647187
       8       -0.000003534445    -0.000008376173    -0.000003556740
       9        0.000002557775    -0.000002972142     0.000001959898
      10       -0.000829628585     0.001222631262     0.001758119448
      11        0.000807516739    -0.002610649575    -0.000698564943
      12       -0.000003855535     0.000005552332     0.000006691038
      13        0.000740927922    -0.001325883116    -0.001382928395
      14        0.000003171584     0.000001338406     0.000001568371
      15        0.000002178420    -0.000004114245     0.000002862601
      16       -0.000003706279     0.000006312748     0.000006470559
      17        0.000001209849     0.000001222963    -0.000000979556
      18        0.000000474620     0.000002032470    -0.000003352210
      19        0.000000753861    -0.000001707516    -0.000005110419
      20       -0.000000853721     0.000002356659    -0.000003539348
      21        0.000000452541    -0.000001759511     0.000001685919
      22        0.000000308658    -0.000000520163     0.000000052758
      23       -0.000002588948     0.000000374692    -0.000000344484
      24        0.000001660607    -0.000001995026     0.000004353647

  **** Optimization is complete! (in 6 steps) ****
    Final optimized geometry and variables:
    Molecular point group: c1

    Geometry (in Angstrom), charge = 0, multiplicity = 1:

    H           -3.306113033187     1.495510683428    -1.703137030378
    O           -3.334644623788     0.560958262277    -1.605675423115
    C           -3.043650767343     0.211088625528    -0.278260282603
    C           -1.626129438997     0.568090334026     0.142957976221
    H           -3.191675146839    -0.859531607520    -0.215554616207
    H           -3.755985864202     0.675543233202     0.399078010968
    C           -0.544428170391    -0.139654740685    -0.669098335523
    H           -1.493879086384     1.645909078859     0.062641898450
    H           -1.520435870132     0.327841321975     1.197568892888
    C            0.886684487235     0.186080855166    -0.220604250598
    H           -0.665328064829     0.099060662485    -1.718330833379
    H           -0.700094824651    -1.213996103296    -0.600276747385
    C            1.392128915612    -0.711432144877     0.909743600224
    H            1.549532133523     0.084591206738    -1.072397610800
    H            0.946395347450     1.228041999342     0.085210439017
    C            2.762838907008    -0.328630781617     1.470622249428
    H            1.425242501631    -1.738405865098     0.553992058863
    H            0.675047390507    -0.698070781721     1.725858604926
    C            3.919019341281    -0.470913814049     0.483517301942
    H            2.965973196710    -0.952595159535     2.335689517460
    H            2.726809100011     0.693870919512     1.837495256943
    H            3.973231905722    -1.481172673849     0.090417174131
    H            4.865105238168    -0.254475586070     0.966491008154
    H            3.820908769900     0.205666989607    -0.356720250037

  Mulliken Charges: (a.u.)
   Center  Symbol    Alpha    Beta     Spin     Total
       1     H     0.39520  0.39520  0.00000  0.20961
       2     O     4.20385  4.20385  0.00000 -0.40769
       3     C     2.97748  2.97748  0.00000  0.04504
       4     C     3.09886  3.09886  0.00000 -0.19772
       5     H     0.45825  0.45825  0.00000  0.08350
       6     H     0.46048  0.46048  0.00000  0.07905
       7     C     3.09654  3.09654  0.00000 -0.19308
       8     H     0.45880  0.45880  0.00000  0.08239
       9     H     0.45363  0.45363  0.00000  0.09274
      10     C     3.10366  3.10366  0.00000 -0.20732
      11     H     0.43997  0.43997  0.00000  0.12007
      12     H     0.45543  0.45543  0.00000  0.08914
      13     C     3.09275  3.09275  0.00000 -0.18549
      14     H     0.44413  0.44413  0.00000  0.11174
      15     H     0.45562  0.45562  0.00000  0.08875
      16     C     3.08996  3.08996  0.00000 -0.17991
      17     H     0.45355  0.45355  0.00000  0.09290
      18     H     0.45003  0.45003  0.00000  0.09993
      19     C     3.15293  3.15293  0.00000 -0.30587
      20     H     0.44902  0.44902  0.00000  0.10196
      21     H     0.45491  0.45491  0.00000  0.09019
      22     H     0.45474  0.45474  0.00000  0.09052
      23     H     0.44667  0.44667  0.00000  0.10666
      24     H     0.45355  0.45355  0.00000  0.09291

   Total alpha = 33.00000, Total beta = 33.00000, Total charge = -0.00000

*** Psi4 exiting successfully. Buy a developer a beer!
