                              Psi4 1.0.54 Driver

  ==> Input File <==

--------------------------------------------------------------------------
set {
	reference rhf
	basis cc-pvtz
}

set_num_threads( 4 )
memory 2 gb

molecule MOL {
0 1

H	 2.352057	 -1.758377	 0.684454
O	 2.824271	 -1.154299	 0.131461
C	 2.076458	 -0.067370	 -0.038225
C	 0.626018	 -0.337582	 0.258241
O	 2.538288	 0.965419	 -0.381593
C	 -0.267326	 0.883135	 0.076490
H	 0.325620	 -1.161483	 -0.378003
H	 0.574537	 -0.713685	 1.275261
C	 -1.726822	 0.642622	 0.463839
H	 -0.210803	 1.217591	 -0.953497
H	 0.129920	 1.693110	 0.675679
C	 -2.480891	 -0.340606	 -0.429852
H	 -2.243098	 1.597649	 0.438609
H	 -1.776542	 0.301208	 1.495542
C	 -3.955933	 -0.460128	 -0.060472
H	 -2.393755	 -0.020485	 -1.464726
H	 -2.024244	 -1.323637	 -0.374360
H	 -4.467673	 -1.160944	 -0.709827
H	 -4.458917	 0.497287	 -0.144505
H	 -4.076458	 -0.806900	 0.960497

	symmetry c1
}
set optking {
	frozen_dihedral = ("
		1 2 3 5
	")
}

ee,wfn = optimize('scf', return_wfn=True)
oeprop( wfn, 'DIPOLE', 'QUADRUPOLE', 'MULLIKEN_CHARGES')
f=open( 'psi4out.xyz', 'w' )
f.write( "20  " )
f.write( str(ee) + "\n" )
f.write( MOL.save_string_xyz() )
f.close()
--------------------------------------------------------------------------

    Molecular point group: c1
  Charge       = 0
  Multiplicity = 1
  Basis Set: CC-PVTZ
  Basis Set:
  @DF-RHF Final Energy:  -384.08294735334971
    Total Energy =                       -384.0829473533498231
    Molecular point group: c1
  Basis Set: CC-PVTZ
  Basis Set:
  Basis Set: CC-PVTZ
  Basis Set:
  @DF-RHF Final Energy:  -384.08421311242108
    Total Energy =                       -384.0842131124210823
  Basis Set: CC-PVTZ
  Basis Set:
  Basis Set: CC-PVTZ
  Basis Set:
  @DF-RHF Final Energy:  -384.08428860560764
    Total Energy =                       -384.0842886056075258
  Basis Set: CC-PVTZ
  Basis Set:
  Basis Set: CC-PVTZ
  Basis Set:
  @DF-RHF Final Energy:  -384.08429917205535
    Total Energy =                       -384.0842991720555233
  Basis Set: CC-PVTZ
  Basis Set:
  @DF-RHF Final Energy:  -384.08436733719236
    Total Energy =                       -384.0843673371928162
  @DF-RHF Final Energy:  -384.08437187776468
    Total Energy =                       -384.0843718777648519
  Basis Set: CC-PVTZ
  Basis Set:
  @DF-RHF Final Energy:  -384.08436733047381
    Total Energy =                       -384.0843673304735262
  Basis Set: CC-PVTZ
  Basis Set:
  Basis Set: CC-PVTZ
  Basis Set:
  @DF-RHF Final Energy:  -384.08435517124553
    Total Energy =                       -384.0843551712459885
  Basis Set: CC-PVTZ
  Basis Set:
  Basis Set: CC-PVTZ
  Basis Set:
  @DF-RHF Final Energy:  -384.08437223140845
    Total Energy =                       -384.0843722314082243
  Basis Set: CC-PVTZ
  Basis Set:
  Charge       = 0
  Multiplicity = 1
  Basis Set: CC-PVTZ
  Basis Set:

    Orbital Energies (a.u.)
    -----------------------

    Doubly Occupied:

       1A    -20.602216     2A    -20.537393     3A    -11.372531
       4A    -11.249132     5A    -11.226245     6A    -11.223584
       7A    -11.222955     8A    -11.214421     9A     -1.470096
      10A     -1.373002    11A     -1.102187    12A     -1.044953
      13A     -0.961407    14A     -0.867139    15A     -0.831903
      16A     -0.793826    17A     -0.721721    18A     -0.671293
      19A     -0.663030    20A     -0.636964    21A     -0.616513
      22A     -0.600327    23A     -0.569918    24A     -0.564087
      25A     -0.548608    26A     -0.516971    27A     -0.501353
      28A     -0.482835    29A     -0.475418    30A     -0.472939
      31A     -0.463190    32A     -0.442955

  @DF-RHF Final Energy:  -384.08437193938573

   => Energetics <=

    Nuclear Repulsion Energy =            376.5269290578851269
    One-Electron Energy =               -1269.1403814930226872
    Two-Electron Energy =                 508.5290804957522823
    DFT Exchange-Correlation Energy =       0.0000000000000000
    Empirical Dispersion Energy =           0.0000000000000000
    PCM Polarization Energy =               0.0000000000000000
    EFP Energy =                            0.0000000000000000
    Total Energy =                       -384.0843719393852780
    Molecular point group: c1
  Basis Set: CC-PVTZ
  Basis Set:

  -Total Gradient:
     Atom            X                  Y                   Z
    ------   -----------------  -----------------  -----------------
       1        0.001818015949     0.001982670003     0.003639538829
       2       -0.002002585948    -0.002002019074    -0.002713445027
       3       -0.000375087447    -0.001249108024    -0.005030497812
       4       -0.000059453474    -0.000016490587     0.000140999690
       5        0.000641604196     0.001208279529     0.003948878834
       6        0.000024730806     0.000022133263     0.000089651085
       7       -0.000021467496     0.000028780751    -0.000016441623
       8        0.000054692194     0.000062208034    -0.000025364921
       9       -0.000064127595     0.000030063359    -0.000027489181
      10       -0.000027372589    -0.000064164148    -0.000010251924
      11       -0.000007020501     0.000004785692     0.000002959847
      12        0.000007974745    -0.000036210653     0.000029590880
      13       -0.000002834237     0.000023856190     0.000008768366
      14        0.000022807546    -0.000023863457    -0.000019107081
      15       -0.000001517085     0.000014095941    -0.000003030036
      16        0.000002312979     0.000016775807     0.000005944826
      17       -0.000008704520    -0.000000692886    -0.000016984487
      18        0.000000915842    -0.000004396476     0.000002750366
      19       -0.000005041807    -0.000000934375    -0.000007084487
      20        0.000002158455     0.000004231111     0.000000613858

  **** Optimization is complete! (in 10 steps) ****
    Final optimized geometry and variables:
    Molecular point group: c1

    Geometry (in Angstrom), charge = 0, multiplicity = 1:

    H            2.521485228179    -1.770920244878     0.665649141366
    O            2.901864853716    -1.116173950589     0.106642301285
    C            2.087465666151    -0.067945437643    -0.062789949860
    C            0.632201020330    -0.337084700839     0.250087805166
    O            2.519712170170     0.964304139225    -0.423126134336
    C           -0.263429777604     0.882431125049     0.069622281419
    H            0.317787916631    -1.161771166938    -0.380520748276
    H            0.576316827351    -0.698790539573     1.275066754787
    C           -1.720062510074     0.647017923282     0.470841953037
    H           -0.212910419880     1.207432625372    -0.963127955597
    H            0.142391612805     1.694830079443     0.659038171380
    C           -2.486009956427    -0.335464262492    -0.413711036167
    H           -2.232521290566     1.603954871027     0.447538587500
    H           -1.762574613566     0.309268472777     1.504272560382
    C           -3.957021801845    -0.452415900392    -0.027604663071
    H           -2.409796443346    -0.016031120272    -1.449521930331
    H           -2.030767083057    -1.319768451790    -0.363517893589
    H           -4.476096493560    -1.155945374950    -0.668022813676
    H           -4.460129733093     0.504862770385    -0.111049284931
    H           -4.066974317012    -0.793947010590     0.996355409137

  Mulliken Charges: (a.u.)
   Center  Symbol    Alpha    Beta     Spin     Total
       1     H     0.38823  0.38823  0.00000  0.22353
       2     O     4.14794  4.14794  0.00000 -0.29588
       3     C     2.80063  2.80063  0.00000  0.39874
       4     C     3.13033  3.13033  0.00000 -0.26067
       5     O     4.17407  4.17407  0.00000 -0.34814
       6     C     3.09668  3.09668  0.00000 -0.19335
       7     H     0.43650  0.43650  0.00000  0.12700
       8     H     0.44896  0.44896  0.00000  0.10207
       9     C     3.09993  3.09993  0.00000 -0.19986
      10     H     0.44225  0.44225  0.00000  0.11551
      11     H     0.43696  0.43696  0.00000  0.12608
      12     C     3.08696  3.08696  0.00000 -0.17392
      13     H     0.44445  0.44445  0.00000  0.11111
      14     H     0.45434  0.45434  0.00000  0.09133
      15     C     3.14936  3.14936  0.00000 -0.29871
      16     H     0.45113  0.45113  0.00000  0.09774
      17     H     0.45617  0.45617  0.00000  0.08767
      18     H     0.44725  0.44725  0.00000  0.10549
      19     H     0.45277  0.45277  0.00000  0.09446
      20     H     0.45510  0.45510  0.00000  0.08980

   Total alpha = 32.00000, Total beta = 32.00000, Total charge = -0.00000

*** Psi4 exiting successfully. Buy a developer a beer!
