                              Psi4 1.0.54 Driver

  ==> Input File <==

--------------------------------------------------------------------------
set {
	reference rhf
	basis cc-pvtz
}

set_num_threads( 4 )
memory 2 gb

molecule MOL {
0 1

H	 -3.436473	 1.252944	 -1.023892
O	 -3.458596	 0.315260	 -0.960865
C	 -3.176635	 -0.080824	 0.355601
C	 -1.763371	 0.265266	 0.799691
H	 -3.321825	 -1.153438	 0.379502
H	 -3.895468	 0.357385	 1.043382
C	 -0.673390	 -0.426948	 -0.013392
H	 -1.631049	 1.344913	 0.747560
H	 -1.664587	 -0.001624	 1.849167
C	 0.737842	 -0.043159	 0.423759
H	 -0.806103	 -0.190518	 -1.063345
H	 -0.797221	 -1.503753	 0.074146
C	 1.823817	 -0.780187	 -0.357583
H	 0.862296	 1.029422	 0.309868
H	 0.856935	 -0.253141	 1.484693
C	 3.254677	 -0.489667	 0.098583
H	 1.729976	 -0.540841	 -1.414350
H	 1.646517	 -1.848884	 -0.273495
C	 3.722208	 0.944010	 -0.140433
H	 3.924983	 -1.164961	 -0.424335
H	 3.349494	 -0.727908	 1.154836
H	 3.633110	 1.212698	 -1.188262
H	 4.762223	 1.061318	 0.142145
H	 3.146942	 1.659755	 0.434357

	symmetry c1
}
set optking {
	frozen_dihedral = ("
		13 10 7 11
	")
}

ee,wfn = optimize('scf', return_wfn=True)
oeprop( wfn, 'DIPOLE', 'QUADRUPOLE', 'MULLIKEN_CHARGES')
f=open( 'psi4out.xyz', 'w' )
f.write( "24  " )
f.write( str(ee) + "\n" )
f.write( MOL.save_string_xyz() )
f.close()
--------------------------------------------------------------------------

    Molecular point group: c1
  Charge       = 0
  Multiplicity = 1
  Basis Set: CC-PVTZ
  Basis Set:
  @DF-RHF Final Energy:  -349.38041748224958
    Total Energy =                       -349.3804174822491859
    Molecular point group: c1
  Basis Set: CC-PVTZ
  Basis Set:
  Basis Set: CC-PVTZ
  Basis Set:
  @DF-RHF Final Energy:  -349.38041878892659
    Total Energy =                       -349.3804187889268178
  Basis Set: CC-PVTZ
  Basis Set:
  Charge       = 0
  Multiplicity = 1
  Basis Set: CC-PVTZ
  Basis Set:

    Orbital Energies (a.u.)
    -----------------------

    Doubly Occupied:

       1A    -20.546275     2A    -11.265505     3A    -11.215147
       4A    -11.212099     5A    -11.210212     6A    -11.209428
       7A    -11.208954     8A    -11.205296     9A     -1.364133
      10A     -1.089833    11A     -1.049417    12A     -0.986739
      13A     -0.916032    14A     -0.851133    15A     -0.801430
      16A     -0.776701    17A     -0.681854    18A     -0.654883
      19A     -0.626112    20A     -0.621518    21A     -0.597935
      22A     -0.585483    23A     -0.559410    24A     -0.541161
      25A     -0.516026    26A     -0.510481    27A     -0.499343
      28A     -0.473556    29A     -0.467946    30A     -0.461138
      31A     -0.456055    32A     -0.451313    33A     -0.421278

  @DF-RHF Final Energy:  -349.38041936161005

   => Energetics <=

    Nuclear Repulsion Energy =            384.8309985355875824
    One-Electron Energy =               -1236.3551825694344188
    Two-Electron Energy =                 502.1437646722362160
    DFT Exchange-Correlation Energy =       0.0000000000000000
    Empirical Dispersion Energy =           0.0000000000000000
    PCM Polarization Energy =               0.0000000000000000
    EFP Energy =                            0.0000000000000000
    Total Energy =                       -349.3804193616106204
    Molecular point group: c1
  Basis Set: CC-PVTZ
  Basis Set:

  -Total Gradient:
     Atom            X                  Y                   Z
    ------   -----------------  -----------------  -----------------
       1        0.000002101560     0.000002926631     0.000005184890
       2       -0.000005772663    -0.000010004952     0.000009036188
       3       -0.000002006079     0.000003067785     0.000007368791
       4        0.000023896768     0.000008033931    -0.000054179512
       5       -0.000002498078    -0.000002237494    -0.000009431367
       6       -0.000002679912     0.000000479575    -0.000006218146
       7        0.000155853353    -0.000576326007     0.000000430673
       8        0.000001237147     0.000012491130     0.000005918817
       9        0.000001964141    -0.000003665011    -0.000007032085
      10       -0.000042387999     0.000412112281    -0.000274222831
      11       -0.000134561915     0.000385975296     0.000103346108
      12       -0.000015400957    -0.000022197479     0.000011878430
      13       -0.000001467817    -0.000199316939     0.000185000345
      14       -0.000023103471    -0.000019427426     0.000013829200
      15        0.000007936686    -0.000010109642     0.000001579675
      16       -0.000010641591     0.000006754249     0.000033161310
      17       -0.000012523166     0.000013645343    -0.000007918717
      18        0.000016058362     0.000001810682    -0.000009315229
      19        0.000018631716     0.000007088889    -0.000005362225
      20       -0.000004988056    -0.000009402356     0.000009211640
      21       -0.000003405134     0.000007741480     0.000009640039
      22       -0.000003489214     0.000009903472    -0.000008562853
      23        0.000003969009    -0.000004355375    -0.000009408002
      24        0.000033277307    -0.000014988060    -0.000003935144

  **** Optimization is complete! (in 3 steps) ****
    Final optimized geometry and variables:
    Molecular point group: c1

    Geometry (in Angstrom), charge = 0, multiplicity = 1:

    H           -3.433225669711     1.272662348332    -1.026825048892
    O           -3.456895419971     0.334725426136    -0.968539651686
    C           -3.178895386311    -0.068058334429     0.346645128953
    C           -1.765940239774     0.273089949354     0.795666225617
    H           -3.326319001090    -1.140497505281     0.364750693500
    H           -3.898628457356     0.368144720652     1.034761619965
    C           -0.675335607905    -0.417347285905    -0.018291039004
    H           -1.631426200804     1.352763744265     0.749108071322
    H           -1.670125426899     0.000953804485     1.844042098500
    C            0.735261552798    -0.033561476490     0.421144299013
    H           -0.808037985856    -0.175244685347    -1.066975889252
    H           -0.799688090760    -1.494285965082     0.065947359933
    C            1.823009305697    -0.764176187450    -0.363838188405
    H            0.857126577091     1.040070643858     0.315498575138
    H            0.855036869366    -0.251377122420     1.480493885740
    C            3.253682120556    -0.467431582343     0.089160514330
    H            1.725593712697    -0.524661698501    -1.420314221511
    H            1.650863667752    -1.833677053235    -0.280041204158
    C            3.717102789346     0.966474560561    -0.156642851949
    H            3.925169879212    -1.142976219235    -0.431910835468
    H            3.350774264035    -0.701111587064     1.146248125582
    H            3.623429187881     1.231314217071    -1.205051613048
    H            4.757932710804     1.087081685937     0.121522169783
    H            3.142544390239     1.683018027386     0.417822594244

  Mulliken Charges: (a.u.)
   Center  Symbol    Alpha    Beta     Spin     Total
       1     H     0.39531  0.39531  0.00000  0.20939
       2     O     4.20371  4.20371  0.00000 -0.40743
       3     C     2.97770  2.97770  0.00000  0.04460
       4     C     3.10175  3.10175  0.00000 -0.20349
       5     H     0.45892  0.45892  0.00000  0.08217
       6     H     0.46030  0.46030  0.00000  0.07939
       7     C     3.08687  3.08687  0.00000 -0.17374
       8     H     0.45933  0.45933  0.00000  0.08134
       9     H     0.45339  0.45339  0.00000  0.09323
      10     C     3.09161  3.09161  0.00000 -0.18321
      11     H     0.44634  0.44634  0.00000  0.10731
      12     H     0.45511  0.45511  0.00000  0.08978
      13     C     3.09457  3.09457  0.00000 -0.18915
      14     H     0.45320  0.45320  0.00000  0.09360
      15     H     0.45643  0.45643  0.00000  0.08713
      16     C     3.09018  3.09018  0.00000 -0.18035
      17     H     0.45358  0.45358  0.00000  0.09283
      18     H     0.44967  0.44967  0.00000  0.10067
      19     C     3.15241  3.15241  0.00000 -0.30481
      20     H     0.44859  0.44859  0.00000  0.10283
      21     H     0.45525  0.45525  0.00000  0.08949
      22     H     0.45485  0.45485  0.00000  0.09031
      23     H     0.44665  0.44665  0.00000  0.10670
      24     H     0.45429  0.45429  0.00000  0.09142

   Total alpha = 33.00000, Total beta = 33.00000, Total charge = -0.00000

*** Psi4 exiting successfully. Buy a developer a beer!
