                              Psi4 1.0.54 Driver

  ==> Input File <==

--------------------------------------------------------------------------
set {
	reference rhf
	basis cc-pvtz
}

set_num_threads( 4 )
memory 2 gb

molecule MOL {
0 1

H	 -0.132946	 -0.685134	 -0.858375
N	 -0.625934	 -0.663929	 -0.000707
C	 -1.978635	 -0.158664	 0.001017
C	 0.006066	 -1.112754	 1.106412
H	 -2.519057	 -0.493535	 -0.876362
H	 -1.938890	 0.917202	 -0.004137
H	 -2.514266	 -0.485137	 0.884506
C	 1.418771	 -1.600450	 0.871386
O	 -0.501635	 -1.133691	 2.188483
H	 2.034053	 -0.800679	 0.475919
H	 1.831103	 -1.941639	 1.806608
H	 1.424675	 -2.414319	 0.155703

	symmetry c1
}
set optking {
	frozen_dihedral = ("
		4 2 3 5
	")
}

ee,wfn = optimize('scf', return_wfn=True)
oeprop( wfn, 'DIPOLE', 'QUADRUPOLE', 'MULLIKEN_CHARGES')
f=open( 'psi4out.xyz', 'w' )
f.write( "12  " )
f.write( str(ee) + "\n" )
f.write( MOL.save_string_xyz() )
f.close()
--------------------------------------------------------------------------

    Molecular point group: c1
  Charge       = 0
  Multiplicity = 1
  Basis Set: CC-PVTZ
  Basis Set:
  @DF-RHF Final Energy:  -247.10032340942456
    Total Energy =                       -247.1003234094246181
    Molecular point group: c1
  Basis Set: CC-PVTZ
  Basis Set:
  Basis Set: CC-PVTZ
  Basis Set:
  @DF-RHF Final Energy:  -247.10088787194923
    Total Energy =                       -247.1008878719491690
  Basis Set: CC-PVTZ
  Basis Set:
  Basis Set: CC-PVTZ
  Basis Set:
  @DF-RHF Final Energy:  -247.10089680380528
    Total Energy =                       -247.1008968038052558
  Basis Set: CC-PVTZ
  Basis Set:
  Basis Set: CC-PVTZ
  Basis Set:
  @DF-RHF Final Energy:  -247.10100159360312
    Total Energy =                       -247.1010015936032573
  Basis Set: CC-PVTZ
  Basis Set:
  Basis Set: CC-PVTZ
  Basis Set:
  @DF-RHF Final Energy:  -247.10105733923984
    Total Energy =                       -247.1010573392399579
  Basis Set: CC-PVTZ
  Basis Set:
  Basis Set: CC-PVTZ
  Basis Set:
  @DF-RHF Final Energy:  -247.10106368696040
    Total Energy =                       -247.1010636869604014
  Basis Set: CC-PVTZ
  Basis Set:
  Basis Set: CC-PVTZ
  Basis Set:
  @DF-RHF Final Energy:  -247.10107318453302
    Total Energy =                       -247.1010731845328792
  Basis Set: CC-PVTZ
  Basis Set:
  Charge       = 0
  Multiplicity = 1
  Basis Set: CC-PVTZ
  Basis Set:

    Orbital Energies (a.u.)
    -----------------------

    Doubly Occupied:

       1A    -20.506925     2A    -15.574770     3A    -11.336564
       4A    -11.252723     5A    -11.228088     6A     -1.388668
       7A     -1.230917     8A     -1.016642     9A     -0.932861
      10A     -0.788234    11A     -0.690866    12A     -0.651587
      13A     -0.635563    14A     -0.586490    15A     -0.582979
      16A     -0.555898    17A     -0.545346    18A     -0.510578
      19A     -0.417546    20A     -0.389616

  @DF-RHF Final Energy:  -247.10107386666726

   => Energetics <=

    Nuclear Repulsion Energy =            181.6795052506004140
    One-Electron Energy =                -695.9154349262529422
    Two-Electron Energy =                 267.1348558089854350
    DFT Exchange-Correlation Energy =       0.0000000000000000
    Empirical Dispersion Energy =           0.0000000000000000
    PCM Polarization Energy =               0.0000000000000000
    EFP Energy =                            0.0000000000000000
    Total Energy =                       -247.1010738666670932
    Molecular point group: c1
  Basis Set: CC-PVTZ
  Basis Set:

  -Total Gradient:
     Atom            X                  Y                   Z
    ------   -----------------  -----------------  -----------------
       1       -0.000002659478     0.000022016332     0.000013632731
       2        0.000114910412     0.000211068403     0.000087197702
       3        0.000014486279     0.000127144016    -0.000170361875
       4       -0.000068738783    -0.000189752473    -0.000066432431
       5       -0.000062793512    -0.000168298736     0.000126629519
       6       -0.000010841732     0.000002715356    -0.000008227509
       7        0.000012296321     0.000006495945    -0.000009245569
       8        0.000016110703     0.000069306042     0.000030665956
       9       -0.000004891872    -0.000028853041     0.000011249505
      10        0.000010253483    -0.000023465204    -0.000027075646
      11        0.000004897707    -0.000003940637     0.000003392818
      12       -0.000023029525    -0.000024436004     0.000008574799

  **** Optimization is complete! (in 8 steps) ****
    Final optimized geometry and variables:
    Molecular point group: c1

    Geometry (in Angstrom), charge = 0, multiplicity = 1:

    H            0.209367195616     0.250857686236    -1.686496700259
    N           -0.297549814655     0.214986089094    -0.837464251158
    C           -1.656886214458     0.702416161296    -0.828069463311
    C            0.358562235811    -0.168666343741     0.280258634897
    H           -2.195965253064     0.308502135576    -1.679839603266
    H           -1.698247239562     1.785645400298    -0.859067733095
    H           -2.137446466481     0.367060646980     0.075657755130
    C            1.791934137414    -0.598243505144     0.056673372021
    O           -0.147828265810    -0.178100956475     1.362938517501
    H            2.374116650376     0.223952249966    -0.343480475531
    H            2.214333574680    -0.911023319785     0.997431286386
    H            1.836913143307    -1.417580110727    -0.651116665998

  Mulliken Charges: (a.u.)
   Center  Symbol    Alpha    Beta     Spin     Total
       1     H     0.41087  0.41087  0.00000  0.17827
       2     N     3.62093  3.62093  0.00000 -0.24185
       3     C     3.08398  3.08398  0.00000 -0.16796
       4     C     2.83691  2.83691  0.00000  0.32617
       5     H     0.45491  0.45491  0.00000  0.09018
       6     H     0.45682  0.45682  0.00000  0.08636
       7     H     0.43310  0.43310  0.00000  0.13381
       8     C     3.15377  3.15377  0.00000 -0.30753
       9     O     4.21523  4.21523  0.00000 -0.43046
      10     H     0.45024  0.45024  0.00000  0.09952
      11     H     0.43355  0.43355  0.00000  0.13291
      12     H     0.44970  0.44970  0.00000  0.10060

   Total alpha = 20.00000, Total beta = 20.00000, Total charge = -0.00000

*** Psi4 exiting successfully. Buy a developer a beer!
