                              Psi4 1.0.54 Driver

  ==> Input File <==

--------------------------------------------------------------------------
set {
	reference rhf
	basis cc-pvtz
}

set_num_threads( 4 )
memory 2 gb

molecule MOL {
0 1

H	 -2.090483	 0.067655	 0.368976
C	 -1.189450	 -0.484961	 0.209952
C	 -1.181968	 -1.865061	 0.208601
C	 0.000000	 0.179985	 0.000046
H	 -2.096539	 -2.400808	 0.369999
C	 -0.000001	 -2.552036	 -0.000013
N	 0.000000	 1.644631	 0.000076
C	 1.189451	 -0.484952	 -0.209886
H	 -0.000000	 -3.625035	 -0.000032
C	 1.181968	 -1.865052	 -0.208595
O	 1.050559	 2.194174	 -0.000073
O	 -1.050559	 2.194174	 -0.000074
H	 2.090481	 0.067670	 -0.368896
H	 2.096540	 -2.400793	 -0.370011

	symmetry c1
}
set optking {
	frozen_dihedral = ("
		2 4 7 11
	")
}

ee,wfn = optimize('scf', return_wfn=True)
oeprop( wfn, 'DIPOLE', 'QUADRUPOLE', 'MULLIKEN_CHARGES')
f=open( 'psi4out.xyz', 'w' )
f.write( "14  " )
f.write( str(ee) + "\n" )
f.write( MOL.save_string_xyz() )
f.close()
--------------------------------------------------------------------------

    Molecular point group: c1
  Charge       = 0
  Multiplicity = 1
  Basis Set: CC-PVTZ
  Basis Set:
  @DF-RHF Final Energy:  -434.32992097755090
    Total Energy =                       -434.3299209775505005
    Molecular point group: c1
  Basis Set: CC-PVTZ
  Basis Set:
  Basis Set: CC-PVTZ
  Basis Set:
  @DF-RHF Final Energy:  -434.32817796367243
    Total Energy =                       -434.3281779636722604
  Basis Set: CC-PVTZ
  Basis Set:
  Basis Set: CC-PVTZ
  Basis Set:
  @DF-RHF Final Energy:  -434.32984447717786
    Total Energy =                       -434.3298444771779714
  Basis Set: CC-PVTZ
  Basis Set:
  Basis Set: CC-PVTZ
  Basis Set:
  @DF-RHF Final Energy:  -434.32993516125720
    Total Energy =                       -434.3299351612570263
  Basis Set: CC-PVTZ
  Basis Set:
  Charge       = 0
  Multiplicity = 1
  Basis Set: CC-PVTZ
  Basis Set:

    Orbital Energies (a.u.)
    -----------------------

    Doubly Occupied:

       1A    -20.591857     2A    -20.591791     3A    -15.847754
       4A    -11.302539     5A    -11.267265     6A    -11.267224
       7A    -11.264741     8A    -11.258277     9A    -11.258140
      10A     -1.641188    11A     -1.423558    12A     -1.204587
      13A     -1.095731    14A     -1.055087    15A     -0.959470
      16A     -0.867262    17A     -0.829011    18A     -0.789365
      19A     -0.740722    20A     -0.735302    21A     -0.711731
      22A     -0.659642    23A     -0.651979    24A     -0.626420
      25A     -0.555431    26A     -0.541042    27A     -0.531376
      28A     -0.492383    29A     -0.491619    30A     -0.457578
      31A     -0.377593    32A     -0.369335

  @DF-RHF Final Energy:  -434.32993613014804

   => Energetics <=

    Nuclear Repulsion Energy =            418.2085106511361232
    One-Electron Energy =               -1420.1628829617068277
    Two-Electron Energy =                 567.6244361804226628
    DFT Exchange-Correlation Energy =       0.0000000000000000
    Empirical Dispersion Energy =           0.0000000000000000
    PCM Polarization Energy =               0.0000000000000000
    EFP Energy =                            0.0000000000000000
    Total Energy =                       -434.3299361301480985
    Molecular point group: c1
  Basis Set: CC-PVTZ
  Basis Set:

  -Total Gradient:
     Atom            X                  Y                   Z
    ------   -----------------  -----------------  -----------------
       1        0.000009979222    -0.000010940543    -0.000018946879
       2        0.000145294935    -0.000044151100     0.000864874517
       3       -0.000025756456    -0.000001255366    -0.000148564659
       4       -0.000111496937     0.000023404269    -0.000642150947
       5        0.000003934983    -0.000006557484     0.000014204107
       6        0.000021063220    -0.000004254005     0.000043536415
       7        0.000065020174    -0.000034166843    -0.000969609059
       8       -0.000018468612    -0.000035235160    -0.000167919708
       9       -0.000002419136    -0.000001630531    -0.000005895693
      10        0.000019233374    -0.000035057848     0.000083634715
      11       -0.000003001960     0.000009022860     0.000920338188
      12       -0.000082829301     0.000162377505     0.000014143645
      13       -0.000017281947    -0.000011243284     0.000020007383
      14       -0.000003271557    -0.000010312471    -0.000007652024

  **** Optimization is complete! (in 5 steps) ****
    Final optimized geometry and variables:
    Molecular point group: c1

    Geometry (in Angstrom), charge = 0, multiplicity = 1:

    H           -2.089307451804     0.068369776401     0.373826853137
    C           -1.189737513318    -0.484457164957     0.206944356797
    C           -1.183940612843    -1.864529480821     0.195533098600
    C           -0.000565286343     0.180021943070    -0.004285397067
    H           -2.097624040475    -2.400477934439     0.361159996114
    C           -0.004610686306    -2.551276610690    -0.027797286297
    N            0.003049012885     1.644110449030     0.017614511359
    C            1.187354676727    -0.484326251687    -0.223094969581
    H           -0.006334393948    -3.624197499025    -0.037602979111
    C            1.177044258645    -1.864320343282    -0.237961729784
    O            1.055384965158     2.190409192544     0.015717327965
    O           -1.046285345272     2.195779461239     0.042600645187
    H            2.089244153506     0.068581419505    -0.376609522596
    H            2.089355263368    -2.400081826149    -0.411569055536

  Mulliken Charges: (a.u.)
   Center  Symbol    Alpha    Beta     Spin     Total
       1     H     0.39944  0.39944  0.00000  0.20113
       2     C     3.07749  3.07749  0.00000 -0.15498
       3     C     3.07218  3.07218  0.00000 -0.14436
       4     C     2.97882  2.97882  0.00000  0.04237
       5     H     0.41694  0.41694  0.00000  0.16612
       6     C     3.06467  3.06467  0.00000 -0.12934
       7     N     3.25411  3.25411  0.00000  0.49178
       8     C     3.07730  3.07730  0.00000 -0.15459
       9     H     0.41709  0.41709  0.00000  0.16582
      10     C     3.07215  3.07215  0.00000 -0.14431
      11     O     4.17661  4.17661  0.00000 -0.35321
      12     O     4.17674  4.17674  0.00000 -0.35349
      13     H     0.39952  0.39952  0.00000  0.20095
      14     H     0.41694  0.41694  0.00000  0.16612

   Total alpha = 32.00000, Total beta = 32.00000, Total charge = -0.00000

*** Psi4 exiting successfully. Buy a developer a beer!
