  ==> Input File <==

--------------------------------------------------------------------------
set {
	reference rhf
	basis 6-31G*
}

set_num_threads( 1 )
memory 2 gb

molecule MOL {
0 1

H	 -3.916106	 0.821192	 -1.307750
O	 -3.325603	 0.143520	 -1.011151
C	 -2.097703	 0.715934	 -0.640755
C	 -1.177863	 -0.397191	 -0.171080
H	 -1.649211	 1.239481	 -1.484000
H	 -2.239450	 1.443903	 0.156935
C	 0.198102	 0.111031	 0.262842
H	 -1.073605	 -1.117744	 -0.977716
H	 -1.662166	 -0.916905	 0.651006
C	 1.331804	 -0.827780	 -0.158768
H	 0.361943	 1.100838	 -0.156218
H	 0.217265	 0.229072	 1.345532
C	 2.723619	 -0.410569	 0.329459
H	 1.342964	 -0.912588	 -1.244120
H	 1.116806	 -1.824343	 0.220779
C	 3.243875	 0.895854	 -0.272975
H	 3.424222	 -1.207124	 0.091250
H	 2.714788	 -0.329854	 1.414619
H	 3.251977	 0.848779	 -1.358681
H	 2.637085	 1.747371	 0.016682
H	 4.259473	 1.094070	 0.055697

	symmetry c1
}
set optking {
	frozen_dihedral = ("
		2 3 4 8,
		4 7 10 14,
		16 13 10 14,
		1 2 3 5
	")
}

ee = energy('scf')
oeprop('DIPOLE', 'QUADRUPOLE', 'MULLIKEN_CHARGES')
f=open( 'psi4out.xyz', 'w' )
f.write( "21  " )
f.write( str(ee) + "\n" )
f.write( MOL.save_string_xyz() )
f.close()
--------------------------------------------------------------------------

    Molecular point group: c1

    Geometry (in Angstrom), charge = 0, multiplicity = 1:

       Center              X                  Y                   Z               Mass
    ------------   -----------------  -----------------  -----------------  -----------------
           H         -3.978042640739     0.766577076239    -1.047381953805     1.007825032070
           O         -3.387539640739     0.088905076239    -0.750782953805    15.994914619560
           C         -2.159639640739     0.661319076239    -0.380386953805    12.000000000000
           C         -1.239799640739    -0.451805923761     0.089288046195    12.000000000000
           H         -1.711147640739     1.184866076239    -1.223631953805     1.007825032070
           H         -2.301386640739     1.389288076239     0.417303046195     1.007825032070
           C          0.136165359261     0.056416076239     0.523210046195    12.000000000000
           H         -1.135541640739    -1.172358923761    -0.717347953805     1.007825032070
           H         -1.724102640739    -0.971519923761     0.911374046195     1.007825032070
           C          1.269867359261    -0.882394923761     0.101600046195    12.000000000000
           H          0.300006359261     1.046223076239     0.104150046195     1.007825032070
           H          0.155328359261     0.174457076239     1.605900046195     1.007825032070
           C          2.661682359261    -0.465183923761     0.589827046195    12.000000000000
           H          1.281027359261    -0.967202923761    -0.983751953805     1.007825032070
           H          1.054869359261    -1.878957923761     0.481147046195     1.007825032070
           C          3.181938359261     0.841239076239    -0.012606953805    12.000000000000
           H          3.362285359261    -1.261738923761     0.351618046195     1.007825032070
           H          2.652851359261    -0.384468923761     1.674987046195     1.007825032070
           H          3.190040359261     0.794164076239    -1.098312953805     1.007825032070
           H          2.575148359261     1.692756076239     0.277050046195     1.007825032070
           H          4.197536359261     1.039455076239     0.316065046195     1.007825032070

  Charge       = 0
  Multiplicity = 1
  Basis Set: 6-31G*
  Basis Set:

    Orbital Energies (a.u.)
    -----------------------

    Doubly Occupied:

       1A    -20.551712     2A    -11.267431     3A    -11.214948
       4A    -11.214774     5A    -11.213796     6A    -11.209505
       7A    -11.208412     8A     -1.358612     9A     -1.086406
      10A     -1.033057    11A     -0.954102    12A     -0.875971
      13A     -0.808072    14A     -0.779277    15A     -0.693023
      16A     -0.654996    17A     -0.628037    18A     -0.607193
      19A     -0.581821    20A     -0.575216    21A     -0.530187
      22A     -0.525424    23A     -0.511400    24A     -0.485415
      25A     -0.479037    26A     -0.459841    27A     -0.455237
      28A     -0.443539    29A     -0.432704

  @DF-RHF Final Energy:  -310.20918098727691

   => Energetics <=

    Nuclear Repulsion Energy =            313.4050024463846285
    One-Electron Energy =               -1041.5500886437216650
    Two-Electron Energy =                 417.9359052100598433
    DFT Exchange-Correlation Energy =       0.0000000000000000
    Empirical Dispersion Energy =           0.0000000000000000
    PCM Polarization Energy =               0.0000000000000000
    EFP Energy =                            0.0000000000000000
    Total Energy =                       -310.2091809872771933

  Mulliken Charges: (a.u.)
   Center  Symbol    Alpha    Beta     Spin     Total
       1     H     0.28127  0.28127  0.00000  0.43746
       2     O     4.37168  4.37168  0.00000 -0.74336
       3     C     2.99323  2.99323  0.00000  0.01354
       4     C     3.15953  3.15953  0.00000 -0.31906
       5     H     0.43256  0.43256  0.00000  0.13489
       6     H     0.43256  0.43256  0.00000  0.13487
       7     C     3.16334  3.16334  0.00000 -0.32668
       8     H     0.41298  0.41298  0.00000  0.17404
       9     H     0.41291  0.41291  0.00000  0.17419
      10     C     3.15407  3.15407  0.00000 -0.30813
      11     H     0.42180  0.42180  0.00000  0.15640
      12     H     0.42033  0.42033  0.00000  0.15934
      13     C     3.15304  3.15304  0.00000 -0.30609
      14     H     0.42323  0.42323  0.00000  0.15355
      15     H     0.42017  0.42017  0.00000  0.15966
      16     C     3.24115  3.24115  0.00000 -0.48231
      17     H     0.42075  0.42075  0.00000  0.15849
      18     H     0.42333  0.42333  0.00000  0.15333
      19     H     0.42233  0.42233  0.00000  0.15534
      20     H     0.42062  0.42062  0.00000  0.15875
      21     H     0.41912  0.41912  0.00000  0.16176

   Total alpha = 29.00000, Total beta = 29.00000, Total charge = -0.00000
