                              Psi4 1.0.54 Driver

  ==> Input File <==

--------------------------------------------------------------------------
set {
	reference rhf
	basis cc-pvtz
}

set_num_threads( 4 )
memory 2 gb

molecule MOL {
0 1

H	 -3.983773	 0.846356	 -0.435759
C	 -3.285268	 0.250374	 0.114881
C	 -2.105997	 -0.000418	 -0.398703
H	 -3.570946	 -0.125482	 1.077648
O	 -1.189946	 -0.765863	 0.237511
H	 -1.806227	 0.378206	 -1.358864
C	 0.026572	 -0.995256	 -0.379403
C	 1.057223	 0.049888	 -0.004615
H	 -0.054361	 -1.010670	 -1.459674
H	 0.397526	 -1.952058	 -0.044198
F	 2.203233	 -0.234060	 -0.590375
F	 0.698147	 1.254887	 -0.392621
F	 1.266440	 0.094219	 1.288722

	symmetry c1
}
set optking {
	frozen_dihedral = ("
		6 3 5 7
	")
}

ee,wfn = optimize('scf', return_wfn=True)
oeprop( wfn, 'DIPOLE', 'QUADRUPOLE', 'MULLIKEN_CHARGES')
f=open( 'psi4out.xyz', 'w' )
f.write( "13  " )
f.write( str(ee) + "\n" )
f.write( MOL.save_string_xyz() )
f.close()
--------------------------------------------------------------------------

    Molecular point group: c1
  Charge       = 0
  Multiplicity = 1
  Basis Set: CC-PVTZ
  Basis Set:
  @DF-RHF Final Energy:  -527.74205503519318
    Total Energy =                       -527.7420550351927204
    Molecular point group: c1
  Basis Set: CC-PVTZ
  Basis Set:
  Basis Set: CC-PVTZ
  Basis Set:
  @DF-RHF Final Energy:  -527.74205418587189
    Total Energy =                       -527.7420541858718934
  Basis Set: CC-PVTZ
  Basis Set:
  Basis Set: CC-PVTZ
  Basis Set:
  @DF-RHF Final Energy:  -527.74206778230189
    Total Energy =                       -527.7420677823021151
  Basis Set: CC-PVTZ
  Basis Set:
  Charge       = 0
  Multiplicity = 1
  Basis Set: CC-PVTZ
  Basis Set:

    Orbital Energies (a.u.)
    -----------------------

    Doubly Occupied:

       1A    -26.342058     2A    -26.340881     3A    -26.338212
       4A    -20.604039     5A    -11.498019     6A    -11.320179
       7A    -11.298706     8A    -11.213938     9A     -1.750693
      10A     -1.647230    11A     -1.645584    12A     -1.444634
      13A     -1.088388    14A     -1.020658    15A     -0.932446
      16A     -0.844098    17A     -0.839862    18A     -0.827487
      19A     -0.797742    20A     -0.729718    21A     -0.719400
      22A     -0.704792    23A     -0.681848    24A     -0.668058
      25A     -0.661748    26A     -0.651172    27A     -0.639450
      28A     -0.589090    29A     -0.566438    30A     -0.530273
      31A     -0.517337    32A     -0.356608

  @DF-RHF Final Energy:  -527.74206818684070

   => Energetics <=

    Nuclear Repulsion Energy =            413.2516757912239882
    One-Electron Energy =               -1550.3659192191307739
    Two-Electron Energy =                 609.3721752410658610
    DFT Exchange-Correlation Energy =       0.0000000000000000
    Empirical Dispersion Energy =           0.0000000000000000
    PCM Polarization Energy =               0.0000000000000000
    EFP Energy =                            0.0000000000000000
    Total Energy =                       -527.7420681868409247
    Molecular point group: c1
  Basis Set: CC-PVTZ
  Basis Set:

  -Total Gradient:
     Atom            X                  Y                   Z
    ------   -----------------  -----------------  -----------------
       1        0.000003309862     0.000013694029     0.000009011784
       2       -0.000000923817    -0.000011472021    -0.000003044349
       3       -0.000070081582    -0.000219612914    -0.000181749575
       4       -0.000002081834     0.000001544485     0.000003232054
       5        0.000101487850     0.000181404728     0.000142934966
       6        0.000055511632     0.000143373787     0.000088489514
       7       -0.000055411282    -0.000084090600    -0.000059309974
       8        0.000003312292    -0.000005843924    -0.000005094225
       9        0.000001071721    -0.000007078855     0.000000136135
      10        0.000004041262     0.000003734361     0.000008577561
      11        0.000005743726    -0.000007486299    -0.000003901789
      12       -0.000044739742    -0.000004874665     0.000000394524
      13       -0.000001240083    -0.000003292115     0.000000323377

  **** Optimization is complete! (in 4 steps) ****
    Final optimized geometry and variables:
    Molecular point group: c1

    Geometry (in Angstrom), charge = 0, multiplicity = 1:

    H           -3.978003428043     0.859162259842    -0.431289481316
    C           -3.279650242929     0.262077597849     0.118357737563
    C           -2.104930112227     0.001689821098    -0.401217239348
    H           -3.560289998950    -0.103950113831     1.086410671901
    O           -1.184266043614    -0.753050765936     0.240984714279
    H           -1.810125846583     0.372273844332    -1.365792965675
    C            0.032017662747    -0.983233417994    -0.376411920044
    C            1.062819752600     0.060331498345     0.002094742479
    H           -0.048331456074    -0.996241318113    -1.456632722388
    H            0.402025677667    -1.941227456998    -0.043402083579
    F            2.207790597323    -0.218608426837    -0.587755868220
    F            0.701198201613     1.267393431541    -0.377987586278
    F            1.274744836937     0.097560949485     1.295223547105

  Mulliken Charges: (a.u.)
   Center  Symbol    Alpha    Beta     Spin     Total
       1     H     0.42519  0.42519  0.00000  0.14962
       2     C     3.19807  3.19807  0.00000 -0.39613
       3     C     2.95875  2.95875  0.00000  0.08249
       4     H     0.42484  0.42484  0.00000  0.15031
       5     O     4.14455  4.14455  0.00000 -0.28909
       6     H     0.43391  0.43391  0.00000  0.13218
       7     C     3.01894  3.01894  0.00000 -0.03789
       8     C     2.67535  2.67535  0.00000  0.64930
       9     H     0.45541  0.45541  0.00000  0.08918
      10     H     0.43507  0.43507  0.00000  0.12986
      11     F     4.61254  4.61254  0.00000 -0.22507
      12     F     4.61068  4.61068  0.00000 -0.22135
      13     F     4.60669  4.60669  0.00000 -0.21339

   Total alpha = 32.00000, Total beta = 32.00000, Total charge = -0.00000

*** Psi4 exiting successfully. Buy a developer a beer!
