  ==> Input File <==

--------------------------------------------------------------------------
set {
	reference rhf
	basis 6-31G*
}

set_num_threads( 4 )
memory 2 gb

molecule MOL {
0 1

H	 -1.574981	 -1.894450	 -2.785015
C	 -2.289132	 -1.399014	 -2.115573
C	 -2.095544	 -1.690218	 -0.649171
O	 -3.135812	 -0.694630	 -2.561359
C	 -0.655361	 -1.434775	 -0.183470
H	 -2.807519	 -1.098149	 -0.085918
H	 -2.340203	 -2.740714	 -0.496680
C	 -0.252658	 0.041456	 -0.226725
H	 -0.550761	 -1.807653	 0.831076
H	 0.030771	 -2.020516	 -0.793297
C	 1.180775	 0.282413	 0.250794
H	 -0.941862	 0.616521	 0.388210
H	 -0.362205	 0.424368	 -1.239601
C	 2.148627	 -0.814315	 -0.201312
H	 1.516199	 1.249228	 -0.115937
H	 1.192670	 0.346017	 1.338083
C	 3.580890	 -0.659131	 0.322722
H	 2.166869	 -0.852443	 -1.289387
H	 1.762857	 -1.776509	 0.128956
C	 4.324889	 0.564933	 -0.213704
H	 4.142010	 -1.551473	 0.056605
H	 3.564836	 -0.624694	 1.410140
H	 4.342616	 0.565491	 -1.300421
H	 3.866655	 1.493402	 0.110242
H	 5.353900	 0.572371	 0.132816

	symmetry c1
}
set optking {
	frozen_dihedral = ("
		12 8 11 14
	")
}

ee = optimize('scf')
oeprop('DIPOLE', 'QUADRUPOLE', 'MULLIKEN_CHARGES')
f=open( 'psi4out.xyz', 'w' )
f.write( "25  " )
f.write( str(ee) + "\n" )
f.write( MOL.save_string_xyz() )
f.close()
--------------------------------------------------------------------------

    Molecular point group: c1
  Charge       = 0
  Multiplicity = 1
  Basis Set: 6-31G*
  Basis Set:
  @DF-RHF Final Energy:  -387.11458254705065
    Total Energy =                       -387.1145825470499631
    Molecular point group: c1
  Basis Set: 6-31G*
  Basis Set:
  Basis Set: 6-31G*
  Basis Set:
  @DF-RHF Final Energy:  -387.11507221356692
    Total Energy =                       -387.1150722135669184
  Basis Set: 6-31G*
  Basis Set:
  Basis Set: 6-31G*
  Basis Set:
  @DF-RHF Final Energy:  -387.11721893856128
    Total Energy =                       -387.1172189385608817
  Basis Set: 6-31G*
  Basis Set:
  Basis Set: 6-31G*
  Basis Set:
  @DF-RHF Final Energy:  -387.11742920333813
    Total Energy =                       -387.1174292033375650
  Basis Set: 6-31G*
  Basis Set:
  @DF-RHF Final Energy:  -387.11499790527120
    Total Energy =                       -387.1149979052711387
  @DF-RHF Final Energy:  -387.11751954445822
    Total Energy =                       -387.1175195444579913
  @DF-RHF Final Energy:  -387.11744995681642
    Total Energy =                       -387.1174499568164720
  @DF-RHF Final Energy:  -387.11752796357558
    Total Energy =                       -387.1175279635747302
  Basis Set: 6-31G*
  Basis Set:
  @DF-RHF Final Energy:  -387.11751983806010
    Total Energy =                       -387.1175198380601614
  Basis Set: 6-31G*
  Basis Set:
  Basis Set: 6-31G*
  Basis Set:
  @DF-RHF Final Energy:  -387.11753677902391
    Total Energy =                       -387.1175367790240216
  Basis Set: 6-31G*
  Basis Set:
  Basis Set: 6-31G*
  Basis Set:
  @DF-RHF Final Energy:  -387.11754130673455
    Total Energy =                       -387.1175413067345517
  Basis Set: 6-31G*
  Basis Set:
  Charge       = 0
  Multiplicity = 1
  Basis Set: 6-31G*
  Basis Set:

    Orbital Energies (a.u.)
    -----------------------

    Doubly Occupied:

       1A    -20.561756     2A    -11.325990     3A    -11.234769
       4A    -11.234169     5A    -11.224790     6A    -11.220448
       7A    -11.219634     8A    -11.218913     9A    -11.211240
      10A     -1.401716    11A     -1.103886    12A     -1.068853
      13A     -1.011967    14A     -0.940403    15A     -0.884259
      16A     -0.822669    17A     -0.793441    18A     -0.768974
      19A     -0.665177    20A     -0.653940    21A     -0.634742
      22A     -0.628374    23A     -0.609721    24A     -0.588476
      25A     -0.574379    26A     -0.557749    27A     -0.536325
      28A     -0.523280    29A     -0.517322    30A     -0.498742
      31A     -0.484621    32A     -0.478779    33A     -0.460038
      34A     -0.451678    35A     -0.448041    36A     -0.408965

  @DF-RHF Final Energy:  -387.11754155654125

   => Energetics <=

    Nuclear Repulsion Energy =            444.0325109403017905
    One-Electron Energy =               -1404.3636542912754521
    Two-Electron Energy =                 573.2136017944325204
    DFT Exchange-Correlation Energy =       0.0000000000000000
    Empirical Dispersion Energy =           0.0000000000000000
    PCM Polarization Energy =               0.0000000000000000
    EFP Energy =                            0.0000000000000000
    Total Energy =                       -387.1175415565411413
    Molecular point group: c1
  Basis Set: 6-31G*
  Basis Set:

  -Total Gradient:
     Atom            X                  Y                   Z
    ------   -----------------  -----------------  -----------------
       1        0.000029838896     0.000001114741     0.000024442772
       2       -0.000036780984    -0.000084632244    -0.000048831285
       3       -0.000024241215     0.000009002057    -0.000024156499
       4        0.000011856798     0.000021180513     0.000058394742
       5       -0.000032411665    -0.000026756601    -0.000016417118
       6       -0.000004905802    -0.000003322488     0.000009408444
       7       -0.000011004012     0.000017916128    -0.000039503616
       8        0.000320359247     0.004264597602    -0.002601408790
       9       -0.000021475848     0.000008573580    -0.000000240467
      10       -0.000016779458     0.000014490821     0.000019858104
      11        0.001218552809     0.002114319373    -0.003946516624
      12       -0.000587815420    -0.004260996491     0.003303533369
      13       -0.000018981447     0.000021613223     0.000003824566
      14       -0.000867167769    -0.002136435615     0.003253280692
      15        0.000049523186    -0.000021054167    -0.000029122969
      16       -0.000022352415     0.000038868130     0.000026976384
      17       -0.000000641783    -0.000007619300     0.000024529705
      18        0.000001260964    -0.000025841293    -0.000016178510
      19        0.000023095751     0.000077393855     0.000007002026
      20       -0.000012995273    -0.000020409930    -0.000016816978
      21        0.000005776736     0.000011362268    -0.000009627736
      22        0.000020623503    -0.000016965224     0.000012527879
      23        0.000013224919     0.000002291224    -0.000005196665
      24       -0.000029618105     0.000000929318     0.000000242078
      25       -0.000006941599     0.000000380519     0.000009996503

  **** Optimization is complete! (in 12 steps) ****
    Final optimized geometry and variables:
    Molecular point group: c1

    Geometry (in Angstrom), charge = 0, multiplicity = 1:

    H           -2.068674639114    -1.200122145602    -2.199583375311
    C           -2.718071939022    -0.678033600495    -1.485750269485
    C           -2.482919295213    -1.026183812059    -0.037888595588
    O           -3.536699489155     0.090359951165    -1.874706416534
    C           -1.009077899964    -0.885805418739     0.370003685387
    H           -3.128388307041    -0.404867960378     0.572132118716
    H           -2.793438592664    -2.061780204463     0.095397868639
    C           -0.521115612416     0.568666690239     0.341871908643
    H           -0.891554823445    -1.289831713062     1.371786634387
    H           -0.401181963390    -1.506906829154    -0.282126610226
    C            0.898394481413     0.794738216614     0.893862811132
    H           -1.214536429668     1.140787302422     0.952866052973
    H           -0.590185295080     0.956469398267    -0.671621165907
    C            1.943246289594    -0.256526129424     0.503803902614
    H            1.226234914956     1.781924984096     0.584775837843
    H            0.846156404351     0.822703380394     1.981281816048
    C            3.355365942246     0.047569694233     1.020326065912
    H            1.977270356478    -0.362590899557    -0.580308890818
    H            1.640862948481    -1.222766357278     0.895549772952
    C            4.028538248695     1.255721846355     0.366488049903
    H            3.977511681168    -0.828062811219     0.852496075390
    H            3.320423421654     0.191269191669     2.098473157809
    H            4.075501014689     1.138663778484    -0.712833806702
    H            3.502170053867     2.180683265202     0.576371747483
    H            5.045068224149     1.371822686490     0.729484027455

  Mulliken Charges: (a.u.)
   Center  Symbol    Alpha    Beta     Spin     Total
       1     H     0.43272  0.43272  0.00000  0.13457
       2     C     2.83086  2.83086  0.00000  0.33829
       3     C     3.20802  3.20802  0.00000 -0.41604
       4     O     4.23782  4.23782  0.00000 -0.47564
       5     C     3.17041  3.17041  0.00000 -0.34082
       6     H     0.40004  0.40004  0.00000  0.19992
       7     H     0.40657  0.40657  0.00000  0.18686
       8     C     3.15499  3.15499  0.00000 -0.30997
       9     H     0.41350  0.41350  0.00000  0.17300
      10     H     0.41680  0.41680  0.00000  0.16640
      11     C     3.15544  3.15544  0.00000 -0.31088
      12     H     0.41644  0.41644  0.00000  0.16712
      13     H     0.41796  0.41796  0.00000  0.16409
      14     C     3.15687  3.15687  0.00000 -0.31374
      15     H     0.41622  0.41622  0.00000  0.16756
      16     H     0.42303  0.42303  0.00000  0.15394
      17     C     3.15271  3.15271  0.00000 -0.30541
      18     H     0.42497  0.42497  0.00000  0.15006
      19     H     0.42005  0.42005  0.00000  0.15991
      20     C     3.24123  3.24123  0.00000 -0.48247
      21     H     0.42042  0.42042  0.00000  0.15916
      22     H     0.42289  0.42289  0.00000  0.15422
      23     H     0.42176  0.42176  0.00000  0.15648
      24     H     0.41981  0.41981  0.00000  0.16039
      25     H     0.41849  0.41849  0.00000  0.16302

   Total alpha = 36.00000, Total beta = 36.00000, Total charge = -0.00000
