                              Psi4 1.0.54 Driver

  ==> Input File <==

--------------------------------------------------------------------------
set {
	reference rhf
	basis cc-pvtz
}

set_num_threads( 4 )
memory 2 gb

molecule MOL {
0 1

H	 2.749949	 1.735562	 2.723800
N	 1.919794	 1.182169	 2.709099
C	 1.259672	 1.262175	 1.415538
H	 1.324837	 1.524422	 3.434521
C	 0.040898	 0.352605	 1.370816
H	 1.970888	 0.944564	 0.660421
H	 0.959120	 2.277852	 1.154725
C	 -0.678115	 0.376691	 0.025731
H	 0.355874	 -0.658463	 1.607328
H	 -0.652629	 0.650133	 2.155022
C	 -1.900706	 -0.535531	 -0.022488
H	 0.016218	 0.083356	 -0.758368
H	 -0.983772	 1.394634	 -0.205002
C	 -3.220513	 0.226854	 0.028039
H	 -1.865036	 -1.134397	 -0.928236
H	 -1.857948	 -1.236381	 0.806820
H	 -3.309098	 0.911849	 -0.808725
H	 -4.066838	 -0.449485	 -0.008086
H	 -3.301685	 0.809374	 0.939860

	symmetry c1
}
set optking {
	frozen_dihedral = ("
		12 8 11 15
	")
}

ee,wfn = optimize('scf', return_wfn=True)
oeprop( wfn, 'DIPOLE', 'QUADRUPOLE', 'MULLIKEN_CHARGES')
f=open( 'psi4out.xyz', 'w' )
f.write( "19  " )
f.write( str(ee) + "\n" )
f.write( MOL.save_string_xyz() )
f.close()
--------------------------------------------------------------------------

    Molecular point group: c1
  Charge       = 0
  Multiplicity = 1
  Basis Set: CC-PVTZ
  Basis Set:
  @DF-RHF Final Energy:  -251.44285518694957
    Total Energy =                       -251.4428551869496005
    Molecular point group: c1
  Basis Set: CC-PVTZ
  Basis Set:
  Basis Set: CC-PVTZ
  Basis Set:
  @DF-RHF Final Energy:  -251.44314011672810
    Total Energy =                       -251.4431401167280455
  Basis Set: CC-PVTZ
  Basis Set:
  Basis Set: CC-PVTZ
  Basis Set:
  @DF-RHF Final Energy:  -251.44321972734949
    Total Energy =                       -251.4432197273492875
  Basis Set: CC-PVTZ
  Basis Set:
  Charge       = 0
  Multiplicity = 1
  Basis Set: CC-PVTZ
  Basis Set:

    Orbital Energies (a.u.)
    -----------------------

    Doubly Occupied:

       1A    -15.526489     2A    -11.237837     3A    -11.211663
       4A    -11.210221     5A    -11.208275     6A    -11.206299
       7A     -1.178186     8A     -1.072262     9A     -0.998476
      10A     -0.901603    11A     -0.817968    12A     -0.786894
      13A     -0.664343    14A     -0.638947    15A     -0.612253
      16A     -0.599686    17A     -0.563038    18A     -0.558574
      19A     -0.519213    20A     -0.499213    21A     -0.491598
      22A     -0.463642    23A     -0.453233    24A     -0.450063
      25A     -0.383851

  @DF-RHF Final Energy:  -251.44322053669708

   => Energetics <=

    Nuclear Repulsion Energy =            247.4832425853847440
    One-Electron Energy =                -829.3452727765354666
    Two-Electron Energy =                 330.4188096544536393
    DFT Exchange-Correlation Energy =       0.0000000000000000
    Empirical Dispersion Energy =           0.0000000000000000
    PCM Polarization Energy =               0.0000000000000000
    EFP Energy =                            0.0000000000000000
    Total Energy =                       -251.4432205366971402
    Molecular point group: c1
  Basis Set: CC-PVTZ
  Basis Set:

  -Total Gradient:
     Atom            X                  Y                   Z
    ------   -----------------  -----------------  -----------------
       1        0.000018430245     0.000005858574     0.000030339136
       2        0.000046077344     0.000025330647    -0.000004479379
       3       -0.000006810067    -0.000034415433     0.000002158306
       4       -0.000001802072     0.000005956070     0.000005734328
       5       -0.000005851000    -0.000004237169    -0.000017590136
       6        0.000009106090     0.000012188550    -0.000000989592
       7        0.000005196209    -0.000002610031     0.000004027478
       8        0.001765418693    -0.002709914538     0.002467560612
       9       -0.000011812708     0.000001786601    -0.000002370617
      10       -0.000011643957     0.000002376859    -0.000021770653
      11       -0.001930918757     0.002903884926    -0.002130643824
      12       -0.001154637808     0.001847670123    -0.001720082093
      13        0.000014499523    -0.000016859382     0.000005233309
      14       -0.000045592045    -0.000000863202     0.000006779984
      15        0.001302812042    -0.002036053557     0.001391463170
      16       -0.000018184148     0.000020819281    -0.000018910570
      17        0.000027780719    -0.000000833166     0.000008514518
      18       -0.000010845194    -0.000008391411    -0.000005515742
      19        0.000008776893    -0.000011693745     0.000000541764

  **** Optimization is complete! (in 4 steps) ****
    Final optimized geometry and variables:
    Molecular point group: c1

    Geometry (in Angstrom), charge = 0, multiplicity = 1:

    H            3.143721779071     1.207959363798     1.820632333234
    N            2.316369819551     0.651036406145     1.788985648510
    C            1.670120899878     0.745597516617     0.489339937008
    H            1.711912176044     0.981034388343     2.512264385942
    C            0.457159460011    -0.169616608368     0.417737124537
    H            2.391141358440     0.442145460346    -0.262448028702
    H            1.367096033247     1.763191692206     0.239179168059
    C           -0.238839627940    -0.142762904736    -0.939761954692
    H            0.771989489441    -1.180801073665     0.652894192852
    H           -0.252224637695     0.119316385669     1.191364873830
    C           -1.508461200694    -1.013234345344    -1.002095731989
    H            0.458042346579    -0.448040751085    -1.714043459862
    H           -0.501324062497     0.883786384184    -1.183223283930
    C           -2.804986886488    -0.213721900576    -0.923262134295
    H           -1.501994930302    -1.613105437626    -1.905591017074
    H           -1.487720352128    -1.729759958030    -0.186183657506
    H           -2.896514012425     0.464952719741    -1.764556268104
    H           -3.670999366136    -0.866000359783    -0.927104860513
    H           -2.843432310018     0.380498593536    -0.015897911749

  Mulliken Charges: (a.u.)
   Center  Symbol    Alpha    Beta     Spin     Total
       1     H     0.43019  0.43019  0.00000  0.13963
       2     N     3.68914  3.68914  0.00000 -0.37828
       3     C     3.02750  3.02750  0.00000 -0.05500
       4     H     0.43111  0.43111  0.00000  0.13778
       5     C     3.08189  3.08189  0.00000 -0.16379
       6     H     0.45716  0.45716  0.00000  0.08567
       7     H     0.46805  0.46805  0.00000  0.06390
       8     C     3.10090  3.10090  0.00000 -0.20181
       9     H     0.44841  0.44841  0.00000  0.10319
      10     H     0.45978  0.45978  0.00000  0.08045
      11     C     3.09012  3.09012  0.00000 -0.18024
      12     H     0.44790  0.44790  0.00000  0.10419
      13     H     0.45787  0.45787  0.00000  0.08427
      14     C     3.14699  3.14699  0.00000 -0.29397
      15     H     0.44842  0.44842  0.00000  0.10315
      16     H     0.45442  0.45442  0.00000  0.09115
      17     H     0.45519  0.45519  0.00000  0.08962
      18     H     0.44928  0.44928  0.00000  0.10143
      19     H     0.45567  0.45567  0.00000  0.08867

   Total alpha = 25.00000, Total beta = 25.00000, Total charge =  0.00000

*** Psi4 exiting successfully. Buy a developer a beer!
