                              Psi4 1.0.54 Driver

  ==> Input File <==

--------------------------------------------------------------------------
set {
	reference rhf
	basis cc-pvtz
}

set_num_threads( 4 )
memory 2 gb

molecule MOL {
0 1

O	 -2.722431	 -0.416877	 0.702196
C	 -2.110630	 -1.369261	 0.341510
C	 -0.871917	 -1.222611	 -0.519960
C	 -2.519712	 -2.768801	 0.734843
C	 0.366466	 -0.940173	 0.339969
H	 -1.040083	 -0.395106	 -1.197504
H	 -0.714993	 -2.119835	 -1.109222
C	 1.630207	 -0.772146	 -0.501001
H	 0.178058	 -0.048212	 0.924039
H	 0.514408	 -1.752462	 1.047499
C	 2.907848	 -0.545876	 0.309149
H	 1.491686	 0.056349	 -1.191208
H	 1.762193	 -1.659640	 -1.113812
C	 3.373802	 0.906639	 0.372125
H	 3.699140	 -1.146831	 -0.127906
H	 2.764321	 -0.923458	 1.318191
H	 3.519798	 1.311927	 -0.623875
H	 4.316899	 0.983758	 0.900700
H	 2.661122	 1.540651	 0.885346
H	 -2.858899	 -3.302514	 -0.147257
H	 -3.315844	 -2.733044	 1.462486
H	 -1.674023	 -3.316724	 1.135068

	symmetry c1
}
set optking {
	frozen_dihedral = ("
		12 8 11 15
	")
}

ee,wfn = optimize('scf', return_wfn=True)
oeprop( wfn, 'DIPOLE', 'QUADRUPOLE', 'MULLIKEN_CHARGES')
f=open( 'psi4out.xyz', 'w' )
f.write( "22  " )
f.write( str(ee) + "\n" )
f.write( MOL.save_string_xyz() )
f.close()
--------------------------------------------------------------------------

    Molecular point group: c1
  Charge       = 0
  Multiplicity = 1
  Basis Set: CC-PVTZ
  Basis Set:
  @DF-RHF Final Energy:  -348.22022031888071
    Total Energy =                       -348.2202203188803651
    Molecular point group: c1
  Basis Set: CC-PVTZ
  Basis Set:
  Basis Set: CC-PVTZ
  Basis Set:
  @DF-RHF Final Energy:  -348.19380870584405
    Total Energy =                       -348.1938087058442193
  Basis Set: CC-PVTZ
  Basis Set:
  Basis Set: CC-PVTZ
  Basis Set:
  @DF-RHF Final Energy:  -348.22037604010939
    Total Energy =                       -348.2203760401093859
  Basis Set: CC-PVTZ
  Basis Set:
  Basis Set: CC-PVTZ
  Basis Set:
  @DF-RHF Final Energy:  -348.22091305146023
    Total Energy =                       -348.2209130514600020
  Basis Set: CC-PVTZ
  Basis Set:
  @DF-RHF Final Energy:  -348.22009747413250
    Total Energy =                       -348.2200974741321033
  @DF-RHF Final Energy:  -348.22093353763438
    Total Energy =                       -348.2209335376346644
  Basis Set: CC-PVTZ
  Basis Set:
  @DF-RHF Final Energy:  -348.22090529925458
    Total Energy =                       -348.2209052992546390
  Basis Set: CC-PVTZ
  Basis Set:
  Basis Set: CC-PVTZ
  Basis Set:
  @DF-RHF Final Energy:  -348.22093217926709
    Total Energy =                       -348.2209321792672654
  Basis Set: CC-PVTZ
  Basis Set:
  Basis Set: CC-PVTZ
  Basis Set:
  @DF-RHF Final Energy:  -348.22094888226485
    Total Energy =                       -348.2209488822649064
  Basis Set: CC-PVTZ
  Basis Set:
  Charge       = 0
  Multiplicity = 1
  Basis Set: CC-PVTZ
  Basis Set:

    Orbital Energies (a.u.)
    -----------------------

    Doubly Occupied:

       1A    -20.536737     2A    -11.319320     3A    -11.228444
       4A    -11.227418     5A    -11.226902     6A    -11.220309
       7A    -11.218457     8A    -11.210343     9A     -1.396816
      10A     -1.096814    11A     -1.045616    12A     -1.000777
      13A     -0.939149    14A     -0.851597    15A     -0.795260
      16A     -0.734045    17A     -0.663803    18A     -0.647262
      19A     -0.628001    20A     -0.619468    21A     -0.599479
      22A     -0.582025    23A     -0.564220    24A     -0.548046
      25A     -0.532767    26A     -0.511050    27A     -0.505911
      28A     -0.491043    29A     -0.472910    30A     -0.464285
      31A     -0.460658    32A     -0.398335

  @DF-RHF Final Energy:  -348.22094924380616

   => Energetics <=

    Nuclear Repulsion Energy =            371.9622787183154173
    One-Electron Energy =               -1208.8919284510279795
    Two-Electron Energy =                 488.7087004889064588
    DFT Exchange-Correlation Energy =       0.0000000000000000
    Empirical Dispersion Energy =           0.0000000000000000
    PCM Polarization Energy =               0.0000000000000000
    EFP Energy =                            0.0000000000000000
    Total Energy =                       -348.2209492438060465
    Molecular point group: c1
  Basis Set: CC-PVTZ
  Basis Set:

  -Total Gradient:
     Atom            X                  Y                   Z
    ------   -----------------  -----------------  -----------------
       1       -0.000002087890     0.000109844823     0.000052218191
       2        0.000013394183    -0.000110673916    -0.000032505097
       3        0.000026205675    -0.000020638708    -0.000012203571
       4       -0.000040248723     0.000007524657    -0.000011564893
       5        0.000014120710     0.000016222255    -0.000025545380
       6       -0.000005531939    -0.000003792190    -0.000009099528
       7        0.000011265510     0.000019864156     0.000009024627
       8        0.001070192303    -0.002911698519    -0.002430060740
       9       -0.000008245141    -0.000003149935    -0.000014160382
      10        0.000004446049    -0.000005349268     0.000011780425
      11        0.000540196657     0.003209131360    -0.002277810427
      12       -0.001001966371     0.001933438437     0.002424621147
      13       -0.000003822003     0.000012927036     0.000006192478
      14       -0.000015648011     0.000009510691    -0.000006801807
      15       -0.000631899445    -0.002232935028     0.002312660839
      16        0.000006754689     0.000001822700    -0.000014692291
      17       -0.000004147335    -0.000004994818     0.000015615816
      18       -0.000000164914    -0.000009610914     0.000003612163
      19        0.000001653038    -0.000005421098    -0.000008528379
      20        0.000002137477    -0.000012716695    -0.000005832651
      21        0.000000154959    -0.000000921509     0.000006908319
      22        0.000023240517     0.000001616479     0.000006171144

  **** Optimization is complete! (in 10 steps) ****
    Final optimized geometry and variables:
    Molecular point group: c1

    Geometry (in Angstrom), charge = 0, multiplicity = 1:

    O           -2.370901553761     0.975897594270     1.064124200622
    C           -2.061636293726    -0.084047095329     0.625561145632
    C           -1.067154052718    -0.199108694495    -0.512605016384
    C           -2.625135013938    -1.367965110820     1.186459706044
    C            0.374012341044    -0.172978154498     0.010179693716
    H           -1.229389086443     0.640972371967    -1.175785079818
    H           -1.239004412805    -1.113178189818    -1.071321024133
    C            1.409409343944    -0.284393394556    -1.108626472182
    H            0.524914494138     0.748391394842     0.562124608649
    H            0.523533953536    -0.985839403587     0.715807635369
    C            2.856958850940    -0.169086615735    -0.601234710861
    H            1.213647999857     0.508624803077    -1.824588686344
    H            1.266775233867    -1.224778323855    -1.630369925029
    C            3.440933285300     1.234070323300    -0.727544898256
    H            3.487667122778    -0.880787662547    -1.122903919337
    H            2.891313016323    -0.473466985575     0.441187286606
    H            3.497031843290     1.540226284207    -1.766527867237
    H            4.441332858827     1.281347291484    -0.313027534718
    H            2.831835333481     1.962081997010    -0.202206249498
    H           -3.267439428671    -1.829836538792     0.443423405255
    H           -3.195828455341    -1.164782296041     2.079531848180
    H           -1.830277977495    -2.072297932369     1.404879256071

  Mulliken Charges: (a.u.)
   Center  Symbol    Alpha    Beta     Spin     Total
       1     O     4.17784  4.17784  0.00000 -0.35569
       2     C     2.85790  2.85790  0.00000  0.28419
       3     C     3.10005  3.10005  0.00000 -0.20010
       4     C     3.15507  3.15507  0.00000 -0.31015
       5     C     3.10119  3.10119  0.00000 -0.20237
       6     H     0.43843  0.43843  0.00000  0.12314
       7     H     0.44919  0.44919  0.00000  0.10163
       8     C     3.09715  3.09715  0.00000 -0.19430
       9     H     0.44000  0.44000  0.00000  0.12000
      10     H     0.45178  0.45178  0.00000  0.09643
      11     C     3.09098  3.09098  0.00000 -0.18196
      12     H     0.45282  0.45282  0.00000  0.09436
      13     H     0.44659  0.44659  0.00000  0.10682
      14     C     3.14717  3.14717  0.00000 -0.29434
      15     H     0.44736  0.44736  0.00000  0.10528
      16     H     0.45548  0.45548  0.00000  0.08903
      17     H     0.45451  0.45451  0.00000  0.09098
      18     H     0.44827  0.44827  0.00000  0.10347
      19     H     0.45295  0.45295  0.00000  0.09410
      20     H     0.44835  0.44835  0.00000  0.10329
      21     H     0.43607  0.43607  0.00000  0.12786
      22     H     0.45084  0.45084  0.00000  0.09831

   Total alpha = 32.00000, Total beta = 32.00000, Total charge =  0.00000

*** Psi4 exiting successfully. Buy a developer a beer!
