  ==> Input File <==

--------------------------------------------------------------------------
set {
	reference rhf
	basis 6-31G*
}

set_num_threads( 4 )
memory 2 gb

molecule MOL {
0 1

O	 2.862325	 1.357334	 0.000267
C	 2.843464	 0.164689	 -0.000222
C	 1.546494	 -0.624492	 -0.000609
C	 4.124123	 -0.644674	 -0.000428
C	 0.291004	 0.242674	 0.000989
H	 1.557904	 -1.283758	 -0.867573
H	 1.558622	 -1.285963	 0.864672
C	 -0.994322	 -0.586602	 0.000262
H	 0.309117	 0.896430	 -0.865270
H	 0.309661	 0.894078	 0.869017
C	 -2.259874	 0.272531	 0.000494
H	 -1.004862	 -1.240012	 -0.870939
H	 -1.005220	 -1.241071	 0.870675
C	 -3.525642	 -0.514274	 0.345143
H	 -2.380021	 0.735754	 -0.977263
H	 -2.139970	 1.088871	 0.710570
C	 -4.785620	 0.350675	 0.343126
H	 -3.647212	 -1.329855	 -0.364696
H	 -3.407340	 -0.976547	 1.322981
H	 -4.950645	 0.800550	 -0.631825
H	 -5.665749	 -0.235005	 0.590216
H	 -4.709579	 1.155673	 1.068619
H	 4.165367	 -1.288615	 -0.874074
H	 4.976217	 0.020734	 -0.001915
H	 4.166763	 -1.286207	 0.874930

	symmetry c1
}
set optking {
	frozen_dihedral = ("
		15 11 8 12
	")
}

ee = optimize('scf')
oeprop('DIPOLE', 'QUADRUPOLE', 'MULLIKEN_CHARGES')
f=open( 'psi4out.xyz', 'w' )
f.write( "25  " )
f.write( str(ee) + "\n" )
f.write( MOL.save_string_xyz() )
f.close()
--------------------------------------------------------------------------

    Molecular point group: c1
  Charge       = 0
  Multiplicity = 1
  Basis Set: 6-31G*
  Basis Set:
  @DF-RHF Final Energy:  -387.13580811905393
    Total Energy =                       -387.1358081190533085
    Molecular point group: c1
  Basis Set: 6-31G*
  Basis Set:
  Basis Set: 6-31G*
  Basis Set:
  @DF-RHF Final Energy:  -387.13585163901405
    Total Energy =                       -387.1358516390140494
  Basis Set: 6-31G*
  Basis Set:
  Basis Set: 6-31G*
  Basis Set:
  @DF-RHF Final Energy:  -387.13590326089474
    Total Energy =                       -387.1359032608945654
  Basis Set: 6-31G*
  Basis Set:
  Basis Set: 6-31G*
  Basis Set:
  @DF-RHF Final Energy:  -387.13566342218968
    Total Energy =                       -387.1356634221895092
  Basis Set: 6-31G*
  Basis Set:
  Basis Set: 6-31G*
  Basis Set:
  @DF-RHF Final Energy:  -387.13591872785031
    Total Energy =                       -387.1359187278503668
  Basis Set: 6-31G*
  Basis Set:
  Basis Set: 6-31G*
  Basis Set:
  @DF-RHF Final Energy:  -387.13591999902854
    Total Energy =                       -387.1359199990288289
  Basis Set: 6-31G*
  Basis Set:
  Charge       = 0
  Multiplicity = 1
  Basis Set: 6-31G*
  Basis Set:

    Orbital Energies (a.u.)
    -----------------------

    Doubly Occupied:

       1A    -20.550433     2A    -11.326276     3A    -11.231812
       4A    -11.228326     5A    -11.217083     6A    -11.216451
       7A    -11.215236     8A    -11.213552     9A    -11.208217
      10A     -1.395735    11A     -1.093423    12A     -1.056199
      13A     -1.014423    14A     -0.969039    15A     -0.890678
      16A     -0.813949    17A     -0.790503    18A     -0.729918
      19A     -0.661398    20A     -0.651845    21A     -0.632296
      22A     -0.623775    23A     -0.596512    24A     -0.583830
      25A     -0.566064    26A     -0.560514    27A     -0.539719
      28A     -0.526578    29A     -0.512855    30A     -0.489393
      31A     -0.487602    32A     -0.473844    33A     -0.463548
      34A     -0.462307    35A     -0.449954    36A     -0.399313

  @DF-RHF Final Energy:  -387.13592026149257

   => Energetics <=

    Nuclear Repulsion Energy =            438.3732726017947812
    One-Electron Energy =               -1393.3331910065460306
    Two-Electron Energy =                 567.8239981432587911
    DFT Exchange-Correlation Energy =       0.0000000000000000
    Empirical Dispersion Energy =           0.0000000000000000
    PCM Polarization Energy =               0.0000000000000000
    EFP Energy =                            0.0000000000000000
    Total Energy =                       -387.1359202614925152
    Molecular point group: c1
  Basis Set: 6-31G*
  Basis Set:

  -Total Gradient:
     Atom            X                  Y                   Z
    ------   -----------------  -----------------  -----------------
       1       -0.000000296451     0.000001184990     0.000004726864
       2       -0.000000347063    -0.000001958711    -0.000008763941
       3        0.000003057218    -0.000002179221     0.000004236644
       4        0.000000996637     0.000000082218    -0.000001099124
       5       -0.000000946677     0.000001252535    -0.000012814675
       6        0.000002044235    -0.000000124266    -0.000001208357
       7       -0.000000196166    -0.000000602353    -0.000001517864
       8       -0.001790476635    -0.002591542840     0.001449253063
       9        0.000002773480     0.000001081538     0.000000610735
      10       -0.000005291386     0.000000483462     0.000002103638
      11        0.001920836882     0.002812198033     0.000655131667
      12        0.001211472526     0.001739486760    -0.001313516023
      13       -0.000007159882    -0.000001422951    -0.000008452768
      14        0.000000238854    -0.000001720980    -0.000002409891
      15       -0.001338515326    -0.001959635993    -0.000763718636
      16        0.000005690070    -0.000000570488    -0.000005575721
      17       -0.000004451818     0.000003525861    -0.000000227769
      18        0.000002325541    -0.000002891765     0.000000046828
      19       -0.000000307651     0.000002948609     0.000000774939
      20       -0.000002680165     0.000000300601    -0.000001444305
      21       -0.000000085998     0.000000409663     0.000001973783
      22        0.000000585560     0.000000054296    -0.000002537889
      23       -0.000000288442    -0.000000386371     0.000002020579
      24        0.000000458785    -0.000000240891     0.000000821876
      25        0.000000563872     0.000000268258     0.000001586348

  **** Optimization is complete! (in 7 steps) ****
    Final optimized geometry and variables:
    Molecular point group: c1

    Geometry (in Angstrom), charge = 0, multiplicity = 1:

    O            2.860657954166     1.347105018419    -0.073139039988
    C            2.840159012183     0.154625664168    -0.090868054068
    C            1.542316201000    -0.633087854178    -0.079741016918
    C            4.119532217260    -0.656038045358    -0.125711527316
    C            0.288076019491     0.235088102176    -0.044185495017
    H            1.538107216598    -1.280479048807    -0.955668775355
    H            1.568550003905    -1.306454252176     0.776082457779
    C           -0.998996631269    -0.593132318291    -0.025237385755
    H            0.288638510814     0.896905548541    -0.904750993983
    H            0.325429812198     0.878506611494     0.829012525730
    C           -2.261875394872     0.272710701811    -0.039108434512
    H           -1.007858087791    -1.247644327396    -0.895200957120
    H           -1.004028222504    -1.236283021436     0.852939987493
    C           -3.535847755924    -0.518133241456     0.268574763144
    H           -2.367975991478     0.731574492217    -1.020181080586
    H           -2.160535428706     1.083795071517     0.678951453612
    C           -4.800482610673     0.337498393625     0.204607376037
    H           -3.624351187333    -1.345673271022    -0.432579945335
    H           -3.452139937455    -0.964377646952     1.257245244668
    H           -4.934333617119     0.766439019899    -0.784469476901
    H           -5.685025562302    -0.249156359788     0.432903575229
    H           -4.754931387215     1.157610214615     0.915654159311
    H            4.144725872011    -1.286496405809    -1.009739734260
    H            4.972381083041     0.008367157868    -0.131830068217
    H            4.176513609138    -1.311028327713     0.738804978151

  Mulliken Charges: (a.u.)
   Center  Symbol    Alpha    Beta     Spin     Total
       1     O     4.26115  4.26115  0.00000 -0.52230
       2     C     2.73568  2.73568  0.00000  0.52864
       3     C     3.21090  3.21090  0.00000 -0.42179
       4     C     3.28663  3.28663  0.00000 -0.57325
       5     C     3.14846  3.14846  0.00000 -0.29692
       6     H     0.41010  0.41010  0.00000  0.17979
       7     H     0.41006  0.41006  0.00000  0.17989
       8     C     3.15400  3.15400  0.00000 -0.30799
       9     H     0.41231  0.41231  0.00000  0.17538
      10     H     0.41212  0.41212  0.00000  0.17577
      11     C     3.15090  3.15090  0.00000 -0.30181
      12     H     0.42447  0.42447  0.00000  0.15106
      13     H     0.42444  0.42444  0.00000  0.15111
      14     C     3.15186  3.15186  0.00000 -0.30371
      15     H     0.42240  0.42240  0.00000  0.15520
      16     H     0.42160  0.42160  0.00000  0.15680
      17     C     3.23939  3.23939  0.00000 -0.47877
      18     H     0.42373  0.42373  0.00000  0.15255
      19     H     0.42346  0.42346  0.00000  0.15308
      20     H     0.42161  0.42161  0.00000  0.15679
      21     H     0.41954  0.41954  0.00000  0.16093
      22     H     0.42129  0.42129  0.00000  0.15742
      23     H     0.40874  0.40874  0.00000  0.18251
      24     H     0.39647  0.39647  0.00000  0.20707
      25     H     0.40871  0.40871  0.00000  0.18257

   Total alpha = 36.00000, Total beta = 36.00000, Total charge =  0.00000
