  ==> Input File <==

--------------------------------------------------------------------------
set {
	reference rhf
	basis cc-pvtz
}

set_num_threads( 4 )
memory 2 gb

molecule MOL {
0 1

H	 -3.162190	 0.493205	 -0.000107
C	 -2.363908	 -0.234727	 0.000005
O	 -1.158738	 0.454634	 -0.000087
H	 -2.464314	 -0.863616	 -0.882153
H	 -2.464327	 -0.863359	 0.882345
C	 -0.028611	 -0.359694	 0.000037
C	 1.212847	 0.509314	 -0.000053
H	 -0.034155	 -1.007047	 -0.877198
H	 -0.034195	 -1.006836	 0.877430
C	 1.506139	 1.105895	 1.371961
H	 2.053168	 -0.088852	 -0.334693
H	 1.081077	 1.299782	 -0.730633
H	 1.665565	 0.330847	 2.114235
H	 2.397011	 1.721151	 1.343211
H	 0.687121	 1.728992	 1.715513

	symmetry c1
}
set optking {
	frozen_dihedral = ("
		11 7 6 8
	")
}

ee = optimize('scf')
oeprop('DIPOLE', 'QUADRUPOLE', 'MULLIKEN_CHARGES')
f=open( 'psi4out.xyz', 'w' )
f.write( "15  " )
f.write( str(ee) + "\n" )
f.write( MOL.save_string_xyz() )
f.close()
--------------------------------------------------------------------------

    Molecular point group: c1
  Charge       = 0
  Multiplicity = 1
  Basis Set: CC-PVTZ
  Basis Set:
  @DF-RHF Final Energy:  -232.22726925302544
    Total Energy =                       -232.2272692530252129
    Molecular point group: c1
  Basis Set: CC-PVTZ
  Basis Set:
  Basis Set: CC-PVTZ
  Basis Set:
  @DF-RHF Final Energy:  -232.22745928184767
    Total Energy =                       -232.2274592818478141
  Basis Set: CC-PVTZ
  Basis Set:
  Basis Set: CC-PVTZ
  Basis Set:
  @DF-RHF Final Energy:  -232.22750069861118
    Total Energy =                       -232.2275006986110952
  Basis Set: CC-PVTZ
  Basis Set:
  Charge       = 0
  Multiplicity = 1
  Basis Set: CC-PVTZ
  Basis Set:

    Orbital Energies (a.u.)
    -----------------------

    Doubly Occupied:

       1A    -20.548516     2A    -11.264642     3A    -11.262315
       4A    -11.213239     5A    -11.203713     6A     -1.382589
       7A     -1.055477     8A     -0.952573     9A     -0.885356
      10A     -0.802327    11A     -0.670260    12A     -0.664865
      13A     -0.634379    14A     -0.588241    15A     -0.573516
      16A     -0.546440    17A     -0.498322    18A     -0.485566
      19A     -0.481162    20A     -0.461183    21A     -0.415692

  @DF-RHF Final Energy:  -232.22750120411916

   => Energetics <=

    Nuclear Repulsion Energy =            192.5042191359115691
    One-Electron Energy =                -696.2826900051459234
    Two-Electron Energy =                 271.5509696651151899
    DFT Exchange-Correlation Energy =       0.0000000000000000
    Empirical Dispersion Energy =           0.0000000000000000
    PCM Polarization Energy =               0.0000000000000000
    EFP Energy =                            0.0000000000000000
    Total Energy =                       -232.2275012041191644
    Molecular point group: c1
  Basis Set: CC-PVTZ
  Basis Set:

  -Total Gradient:
     Atom            X                  Y                   Z
    ------   -----------------  -----------------  -----------------
       1       -0.000029128648    -0.000012113070    -0.000000246087
       2       -0.000026683951     0.000029660876     0.000018006063
       3       -0.000012155412    -0.000023259079     0.000032365687
       4        0.000008352804     0.000001757646     0.000001619876
       5       -0.000006859216    -0.000003831182    -0.000004669128
       6       -0.001760925119     0.002784295194    -0.002541915721
       7        0.000980309721    -0.001514395179     0.003712314715
       8        0.001397845712    -0.002084607960     0.001502763799
       9       -0.000045486308     0.000029382255     0.000006148361
      10       -0.000015652453    -0.000009369270     0.000037013417
      11       -0.000469994058     0.000826099430    -0.002732380062
      12       -0.000017998195    -0.000012843867    -0.000001900879
      13        0.000002986199    -0.000002203045    -0.000000660657
      14       -0.000004371301    -0.000012484522    -0.000013401610
      15       -0.000000239775     0.000003911773    -0.000015057774

  **** Optimization is complete! (in 4 steps) ****
    Final optimized geometry and variables:
    Molecular point group: c1

    Geometry (in Angstrom), charge = 0, multiplicity = 1:

    H           -2.960257332018     0.213606054717    -0.261304409531
    C           -2.163967609812    -0.516656689809    -0.264769168416
    O           -0.956558798047     0.168256278357    -0.285920458641
    H           -2.276952659849    -1.152574033733    -1.140436634055
    H           -2.255215078177    -1.137804289953     0.623770745533
    C            0.171409591273    -0.649502492479    -0.302193508380
    C            1.422469522251     0.209505556377    -0.264605934839
    H            0.174351145599    -1.282060056151    -1.188882814036
    H            0.153970873024    -1.321204342723     0.557328456161
    C            1.700609265022     0.826955449468     1.100559142412
    H            2.264192366415    -0.391679522899    -0.594483297681
    H            1.305444414914     0.993884267411    -1.005286610247
    H            1.873366402521     0.060036157937     1.848656205408
    H            2.578714145969     1.461431790834     1.068764337115
    H            0.862750887540     1.430308703956     1.426815019827

  Mulliken Charges: (a.u.)
   Center  Symbol    Alpha    Beta     Spin     Total
       1     H     0.44713  0.44713  0.00000  0.10574
       2     C     3.03272  3.03272  0.00000 -0.06543
       3     O     4.17502  4.17502  0.00000 -0.35004
       4     H     0.47140  0.47140  0.00000  0.05720
       5     H     0.47170  0.47170  0.00000  0.05659
       6     C     2.96734  2.96734  0.00000  0.06533
       7     C     3.07987  3.07987  0.00000 -0.15973
       8     H     0.46605  0.46605  0.00000  0.06789
       9     H     0.47635  0.47635  0.00000  0.04730
      10     C     3.15034  3.15034  0.00000 -0.30067
      11     H     0.45474  0.45474  0.00000  0.09052
      12     H     0.45240  0.45240  0.00000  0.09520
      13     H     0.45794  0.45794  0.00000  0.08413
      14     H     0.44997  0.44997  0.00000  0.10006
      15     H     0.44704  0.44704  0.00000  0.10592

   Total alpha = 21.00000, Total beta = 21.00000, Total charge = -0.00000
