  ==> Input File <==

--------------------------------------------------------------------------
set {
	reference rhf
	basis cc-pvtz
}

set_num_threads( 4 )
memory 2 gb

molecule MOL {
0 1

H	 -1.835082	 1.385983	 0.000069
C	 -1.300516	 0.441153	 -0.000028
O	 -0.006604	 0.654344	 -0.000106
O	 -1.828920	 -0.612308	 0.000113
C	 0.852093	 -0.482521	 -0.000161
C	 0.412223	 -1.392551	 -1.122239
H	 0.783519	 -0.972027	 0.960900
H	 1.871839	 -0.149976	 -0.132434
H	 -0.611387	 -1.714433	 -0.978767
H	 1.047259	 -2.269947	 -1.149824
H	 0.482378	 -0.888240	 -2.077602

	symmetry c1
}
set optking {
	frozen_dihedral = ("
		7 5 3 2
	")
}

ee = optimize('scf')
oeprop('DIPOLE', 'QUADRUPOLE', 'MULLIKEN_CHARGES')
f=open( 'psi4out.xyz', 'w' )
f.write( "11  " )
f.write( str(ee) + "\n" )
f.write( MOL.save_string_xyz() )
f.close()
--------------------------------------------------------------------------

    Molecular point group: c1
  Charge       = 0
  Multiplicity = 1
  Basis Set: CC-PVTZ
  Basis Set:
  @DF-RHF Final Energy:  -266.91540441251158
    Total Energy =                       -266.9154044125115774
    Molecular point group: c1
  Basis Set: CC-PVTZ
  Basis Set:
  Basis Set: CC-PVTZ
  Basis Set:
  @DF-RHF Final Energy:  -266.92605932560355
    Total Energy =                       -266.9260593256034326
  Basis Set: CC-PVTZ
  Basis Set:
  Basis Set: CC-PVTZ
  Basis Set:
  @DF-RHF Final Energy:  -266.92724961497231
    Total Energy =                       -266.9272496149721974
  Basis Set: CC-PVTZ
  Basis Set:
  Basis Set: CC-PVTZ
  Basis Set:
  @DF-RHF Final Energy:  -266.91841646055207
    Total Energy =                       -266.9184164605520664
  Basis Set: CC-PVTZ
  Basis Set:
  Basis Set: CC-PVTZ
  Basis Set:
  @DF-RHF Final Energy:  -266.92772572178751
    Total Energy =                       -266.9277257217875103
  Basis Set: CC-PVTZ
  Basis Set:
  Basis Set: CC-PVTZ
  Basis Set:
  @DF-RHF Final Energy:  -266.92790621129819
    Total Energy =                       -266.9279062112982501
  Basis Set: CC-PVTZ
  Basis Set:
  Basis Set: CC-PVTZ
  Basis Set:
  @DF-RHF Final Energy:  -266.92790905620643
    Total Energy =                       -266.9279090562065448
  Basis Set: CC-PVTZ
  Basis Set:
  Charge       = 0
  Multiplicity = 1
  Basis Set: CC-PVTZ
  Basis Set:

    Orbital Energies (a.u.)
    -----------------------

    Doubly Occupied:

       1A    -20.604464     2A    -20.544865     3A    -11.370541
       4A    -11.292470     5A    -11.219852     6A     -1.476890
       7A     -1.377265     8A     -1.049185     9A     -0.916974
      10A     -0.795882    11A     -0.739675    12A     -0.687465
      13A     -0.660987    14A     -0.625454    15A     -0.577890
      16A     -0.544667    17A     -0.533150    18A     -0.502911
      19A     -0.462372    20A     -0.452859

  @DF-RHF Final Energy:  -266.92790920287661

   => Energetics <=

    Nuclear Repulsion Energy =            183.0610327112395339
    One-Electron Energy =                -727.1062479853097784
    Two-Electron Energy =                 277.1173060711934681
    DFT Exchange-Correlation Energy =       0.0000000000000000
    Empirical Dispersion Energy =           0.0000000000000000
    PCM Polarization Energy =               0.0000000000000000
    EFP Energy =                            0.0000000000000000
    Total Energy =                       -266.9279092028767195
    Molecular point group: c1
  Basis Set: CC-PVTZ
  Basis Set:

  -Total Gradient:
     Atom            X                  Y                   Z
    ------   -----------------  -----------------  -----------------
       1       -0.000009225006     0.000000238986     0.000011147067
       2       -0.000204150545    -0.000002460446    -0.004779036216
       3        0.001181203118     0.000611029157     0.007376448820
       4        0.000017879861     0.000022248783     0.000005748247
       5       -0.004925922435    -0.003381875961    -0.004194298560
       6       -0.000069926408    -0.000007781923     0.000041130119
       7        0.003971268202     0.002768662864     0.001611579986
       8        0.000027646234    -0.000033002746    -0.000072525491
       9        0.000023819554     0.000008483926    -0.000005241465
      10       -0.000010390520     0.000008595880     0.000001766146
      11       -0.000002202054     0.000005861481     0.000003281347

  **** Optimization is complete! (in 8 steps) ****
    Final optimized geometry and variables:
    Molecular point group: c1

    Geometry (in Angstrom), charge = 0, multiplicity = 1:

    H           -1.366558743818     1.791075040756     0.177031219635
    C           -0.922720058257     0.803067186847     0.254626957571
    O            0.383358003035     0.898979298797     0.199403610288
    O           -1.551306103677    -0.184878645160     0.389326521743
    C            1.196102715470    -0.274292343769     0.160887156380
    C            0.903146842188    -1.212724491787    -0.991772301411
    H            1.146756587403    -0.762281920900     1.124985543054
    H            2.194359309273     0.124638039514     0.059199064619
    H           -0.049831442960    -1.704625989456    -0.886907636954
    H            1.682143998778    -1.965965742245    -1.025198423361
    H            0.920579016875    -0.672463715499    -1.931276677591

  Mulliken Charges: (a.u.)
   Center  Symbol    Alpha    Beta     Spin     Total
       1     H     0.44687  0.44687  0.00000  0.10625
       2     C     2.84081  2.84081  0.00000  0.31838
       3     O     4.14819  4.14819  0.00000 -0.29638
       4     O     4.19757  4.19757  0.00000 -0.39514
       5     C     2.97809  2.97809  0.00000  0.04383
       6     C     3.15380  3.15380  0.00000 -0.30760
       7     H     0.45271  0.45271  0.00000  0.09458
       8     H     0.44564  0.44564  0.00000  0.10873
       9     H     0.43440  0.43440  0.00000  0.13120
      10     H     0.44978  0.44978  0.00000  0.10044
      11     H     0.45214  0.45214  0.00000  0.09572

   Total alpha = 20.00000, Total beta = 20.00000, Total charge =  0.00000
