  ==> Input File <==

--------------------------------------------------------------------------
set {
	reference rhf
	basis 6-31G*
}

set_num_threads( 4 )
memory 2 gb

molecule MOL {
0 1

O	 -0.988096	 -1.408613	 0.050699
C	 -0.676749	 -0.249230	 -0.009274
C	 -1.746085	 0.827156	 -0.009539
N	 0.623947	 0.147590	 -0.102813
H	 -1.701500	 1.431508	 -0.908902
H	 -2.703425	 0.330732	 0.036390
H	 -1.647323	 1.487769	 0.845106
C	 1.348967	 -0.131504	 -1.326876
C	 1.442616	 0.514052	 1.031970
H	 1.999278	 0.704403	 -1.560052
H	 0.650238	 -0.276035	 -2.132375
H	 1.961604	 -1.025016	 -1.228215
H	 2.161917	 1.263079	 0.722772
H	 0.851282	 0.938682	 1.827550
H	 1.993864	 -0.337302	 1.427109

	symmetry c1
}
set optking {
	frozen_dihedral = ("
		8 4 2 3
	")
}

ee = optimize('scf')
oeprop('DIPOLE', 'QUADRUPOLE', 'MULLIKEN_CHARGES')
f=open( 'psi4out.xyz', 'w' )
f.write( "15  " )
f.write( str(ee) + "\n" )
f.write( MOL.save_string_xyz() )
f.close()
--------------------------------------------------------------------------

    Molecular point group: c1
  Charge       = 0
  Multiplicity = 1
  Basis Set: 6-31G*
  Basis Set:
  @DF-RHF Final Energy:  -285.99639993767437
    Total Energy =                       -285.9963999376740844
    Molecular point group: c1
  Basis Set: 6-31G*
  Basis Set:
  Basis Set: 6-31G*
  Basis Set:
  @DF-RHF Final Energy:  -286.00020118431189
    Total Energy =                       -286.0002011843117771
  Basis Set: 6-31G*
  Basis Set:
  Basis Set: 6-31G*
  Basis Set:
  @DF-RHF Final Energy:  -286.00139831123334
    Total Energy =                       -286.0013983112334017
  Basis Set: 6-31G*
  Basis Set:
  Basis Set: 6-31G*
  Basis Set:
  @DF-RHF Final Energy:  -286.00294467682932
    Total Energy =                       -286.0029446768290882
  Basis Set: 6-31G*
  Basis Set:
  @DF-RHF Final Energy:  -286.00506796841876
    Total Energy =                       -286.0050679684187003
  @DF-RHF Final Energy:  -286.00608467250015
    Total Energy =                       -286.0060846725002648
  @DF-RHF Final Energy:  -286.00608963550496
    Total Energy =                       -286.0060896355049636
  @DF-RHF Final Energy:  -286.00809105669941
    Total Energy =                       -286.0080910566994135
  @DF-RHF Final Energy:  -286.00861226926736
    Total Energy =                       -286.0086122692673598
  @DF-RHF Final Energy:  -286.00871072309474
    Total Energy =                       -286.0087107230945094
  @DF-RHF Final Energy:  -286.00877668766248
    Total Energy =                       -286.0087766876624755
  Basis Set: 6-31G*
  Basis Set:
  @DF-RHF Final Energy:  -286.00883418431295
    Total Energy =                       -286.0088341843128319
  Basis Set: 6-31G*
  Basis Set:
  Basis Set: 6-31G*
  Basis Set:
  @DF-RHF Final Energy:  -286.00896291933373
    Total Energy =                       -286.0089629193334417
  Basis Set: 6-31G*
  Basis Set:
  Basis Set: 6-31G*
  Basis Set:
  @DF-RHF Final Energy:  -286.00903171609013
    Total Energy =                       -286.0090317160898508
  Basis Set: 6-31G*
  Basis Set:
  Charge       = 0
  Multiplicity = 1
  Basis Set: 6-31G*
  Basis Set:

    Orbital Energies (a.u.)
    -----------------------

    Doubly Occupied:

       1A    -20.556765     2A    -15.560859     3A    -11.351242
       4A    -11.253292     5A    -11.247863     6A    -11.228975
       7A     -1.414317     8A     -1.229635     9A     -1.013913
      10A     -0.964030    11A     -0.893730    12A     -0.737976
      13A     -0.679013    14A     -0.657922    15A     -0.638055
      16A     -0.602246    17A     -0.582935    18A     -0.577394
      19A     -0.556588    20A     -0.535771    21A     -0.523809
      22A     -0.492274    23A     -0.426134    24A     -0.378279

  @DF-RHF Final Energy:  -286.00903273280983

   => Energetics <=

    Nuclear Repulsion Energy =            252.3276065714985634
    One-Electron Energy =                -888.4672477176754910
    Two-Electron Energy =                 350.1306084133672130
    DFT Exchange-Correlation Energy =       0.0000000000000000
    Empirical Dispersion Energy =           0.0000000000000000
    PCM Polarization Energy =               0.0000000000000000
    EFP Energy =                            0.0000000000000000
    Total Energy =                       -286.0090327328097146
    Molecular point group: c1
  Basis Set: 6-31G*
  Basis Set:

  -Total Gradient:
     Atom            X                  Y                   Z
    ------   -----------------  -----------------  -----------------
       1       -0.000001825800     0.000021246608    -0.000019466679
       2        0.000356396992    -0.001851322174    -0.003097114438
       3        0.000040088895     0.000761818726     0.002580441093
       4       -0.001756578210     0.002867735233    -0.000965201712
       5        0.000006562142     0.000003920259    -0.000007500489
       6       -0.000002644987     0.000022168901    -0.000002683848
       7        0.000000903992     0.000011907827    -0.000003842847
       8        0.001338279523    -0.001849898479     0.001498296206
       9        0.000056425727    -0.000013348822     0.000014907157
      10        0.000004451009     0.000001393708    -0.000006387791
      11       -0.000007302757    -0.000004465062     0.000007083735
      12       -0.000020798010     0.000014879495     0.000015087560
      13        0.000003265078    -0.000000849622     0.000002043134
      14       -0.000001693213     0.000004376826     0.000000142039
      15       -0.000015530379     0.000010436575    -0.000015803120

  **** Optimization is complete! (in 15 steps) ****
    Final optimized geometry and variables:
    Molecular point group: c1

    Geometry (in Angstrom), charge = 0, multiplicity = 1:

    O           -0.742865598604    -1.291241420019     0.499714196244
    C           -0.677515941750    -0.175659222261     0.095779114818
    C           -1.888317321421     0.683170355453    -0.154221639668
    N            0.569267752541     0.491328139924    -0.141375874068
    H           -1.847370864892     1.112589444168    -1.149432656349
    H           -2.795204945008     0.108353025324    -0.029575525011
    H           -1.874718009329     1.511613811504     0.546945381276
    C            1.221124221463    -0.048933481852    -1.329817983389
    C            1.445800375788     0.403126118068     1.021395997279
    H            2.103985554502     0.540608299212    -1.544236316235
    H            0.556862374231     0.025944660726    -2.183960921312
    H            1.511505759456    -1.090574951821    -1.207861609546
    H            2.324064343875     1.010078041116     0.837503262570
    H            0.940212840164     0.802672657404     1.892634638076
    H            1.757196334549    -0.615191052351     1.239675614395

  Mulliken Charges: (a.u.)
   Center  Symbol    Alpha    Beta     Spin     Total
       1     O     4.25436  4.25436  0.00000 -0.50873
       2     C     2.67114  2.67114  0.00000  0.65772
       3     C     3.27297  3.27297  0.00000 -0.54595
       4     N     3.80492  3.80492  0.00000 -0.60985
       5     H     0.40623  0.40623  0.00000  0.18754
       6     H     0.40131  0.40131  0.00000  0.19738
       7     H     0.40286  0.40286  0.00000  0.19428
       8     C     3.15430  3.15430  0.00000 -0.30861
       9     C     3.15071  3.15071  0.00000 -0.30141
      10     H     0.41051  0.41051  0.00000  0.17899
      11     H     0.41426  0.41426  0.00000  0.17148
      12     H     0.41520  0.41520  0.00000  0.16960
      13     H     0.41335  0.41335  0.00000  0.17330
      14     H     0.41390  0.41390  0.00000  0.17219
      15     H     0.41397  0.41397  0.00000  0.17206

   Total alpha = 24.00000, Total beta = 24.00000, Total charge =  0.00000
