  ==> Input File <==

--------------------------------------------------------------------------
set {
	reference rhf
	basis 6-31G*
}

set_num_threads( 4 )
memory 2 gb

molecule MOL {
0 1

H	 2.816492	 -0.451839	 0.309787
O	 2.016064	 -0.864478	 0.000222
C	 1.050492	 0.053836	 0.000068
C	 -0.318135	 -0.576402	 0.000164
O	 1.285279	 1.218255	 -0.000078
C	 -1.454360	 0.441875	 -0.000474
H	 -0.374042	 -1.230163	 -0.866135
H	 -0.374274	 -1.229227	 0.867154
C	 -2.826123	 -0.230780	 0.000056
H	 -1.357605	 1.085198	 -0.868380
H	 -1.357504	 1.086451	 0.866496
H	 -2.959731	 -0.858053	 -0.876869
H	 -3.619374	 0.509403	 -0.000080
H	 -2.959371	 -0.857318	 0.877556

	symmetry c1
}
set optking {
	frozen_dihedral = ("
		1 2 3 5
	")
}

ee = optimize('scf')
oeprop('DIPOLE', 'QUADRUPOLE', 'MULLIKEN_CHARGES')
f=open( 'psi4out.xyz', 'w' )
f.write( "14  " )
f.write( str(ee) + "\n" )
f.write( MOL.save_string_xyz() )
f.close()
--------------------------------------------------------------------------

    Molecular point group: c1
  Charge       = 0
  Multiplicity = 1
  Basis Set: 6-31G*
  Basis Set:
  @DF-RHF Final Energy:  -305.87832774235392
    Total Energy =                       -305.8783277423539175
    Molecular point group: c1
  Basis Set: 6-31G*
  Basis Set:
  Basis Set: 6-31G*
  Basis Set:
  @DF-RHF Final Energy:  -305.87481259434844
    Total Energy =                       -305.8748125943484411
  Basis Set: 6-31G*
  Basis Set:
  Basis Set: 6-31G*
  Basis Set:
  @DF-RHF Final Energy:  -305.87851636503899
    Total Energy =                       -305.8785163650391041
  Basis Set: 6-31G*
  Basis Set:
  Basis Set: 6-31G*
  Basis Set:
  @DF-RHF Final Energy:  -305.87856808260386
    Total Energy =                       -305.8785680826038629
  Basis Set: 6-31G*
  Basis Set:
  @DF-RHF Final Energy:  -305.87857325375842
    Total Energy =                       -305.8785732537583044
  Basis Set: 6-31G*
  Basis Set:
  @DF-RHF Final Energy:  -305.87857472927431
    Total Energy =                       -305.8785747292744759
  Basis Set: 6-31G*
  Basis Set:
  Basis Set: 6-31G*
  Basis Set:
  @DF-RHF Final Energy:  -305.87853707046759
    Total Energy =                       -305.8785370704674165
  Basis Set: 6-31G*
  Basis Set:
  Basis Set: 6-31G*
  Basis Set:
  @DF-RHF Final Energy:  -305.87857736212118
    Total Energy =                       -305.8785773621211206
  Basis Set: 6-31G*
  Basis Set:
  Charge       = 0
  Multiplicity = 1
  Basis Set: 6-31G*
  Basis Set:

    Orbital Energies (a.u.)
    -----------------------

    Doubly Occupied:

       1A    -20.611345     2A    -20.553142     3A    -11.381802
       4A    -11.241151     5A    -11.225494     6A    -11.217064
       7A     -1.473254     8A     -1.366652     9A     -1.082943
      10A     -0.979323    11A     -0.856876    12A     -0.791589
      13A     -0.700801    14A     -0.688020    15A     -0.665965
      16A     -0.618651    17A     -0.589108    18A     -0.572599
      19A     -0.545524    20A     -0.504903    21A     -0.491554
      22A     -0.482305    23A     -0.479457    24A     -0.444563

  @DF-RHF Final Energy:  -305.87857749015598

   => Energetics <=

    Nuclear Repulsion Energy =            239.8829377709103028
    One-Electron Energy =                -892.3948593787949903
    Two-Electron Energy =                 346.6333441177288250
    DFT Exchange-Correlation Energy =       0.0000000000000000
    Empirical Dispersion Energy =           0.0000000000000000
    PCM Polarization Energy =               0.0000000000000000
    EFP Energy =                            0.0000000000000000
    Total Energy =                       -305.8785774901558625
    Molecular point group: c1
  Basis Set: 6-31G*
  Basis Set:

  -Total Gradient:
     Atom            X                  Y                   Z
    ------   -----------------  -----------------  -----------------
       1       -0.001332745133    -0.002193497197     0.006968430068
       2        0.001468805988     0.002791449345    -0.011748756386
       3        0.000242451029    -0.000948707474     0.011547460568
       4       -0.000003645467    -0.000029652974    -0.000097415939
       5       -0.000404194682     0.000363376708    -0.006716115750
       6        0.000003414428     0.000006945984     0.000027187555
       7        0.000001106847     0.000016117022     0.000015531926
       8        0.000011451425    -0.000010677897     0.000018157232
       9        0.000008731058    -0.000005052409    -0.000003453567
      10       -0.000002072317     0.000010826450    -0.000010955272
      11       -0.000000876086    -0.000001980112    -0.000002545390
      12        0.000001519436    -0.000000652483     0.000000977837
      13        0.000008405832     0.000001930816    -0.000001786120
      14       -0.000002352360    -0.000000425782     0.000003283237

  **** Optimization is complete! (in 9 steps) ****
    Final optimized geometry and variables:
    Molecular point group: c1

    Geometry (in Angstrom), charge = 0, multiplicity = 1:

    H            2.838766029500    -0.469168309768     0.201637163362
    O            2.017404174055    -0.860641136219    -0.077630233410
    C            1.051035680020     0.055512563768     0.028622558277
    C           -0.317115603369    -0.575259610571     0.012265312393
    O            1.282981510676     1.218769026547     0.074110757828
    C           -1.454486609700     0.441117123971    -0.018629138062
    H           -0.357861072826    -1.241836649964    -0.844696981234
    H           -0.386337176609    -1.216103520174     0.887821250318
    C           -2.825423638466    -0.233162472753    -0.026314011734
    H           -1.347168772996     1.071182679650    -0.895255705819
    H           -1.369623627359     1.099046953845     0.839325563100
    H           -2.946216602025    -0.874787580990    -0.894631314583
    H           -3.619384496309     0.505898330948    -0.049432749966
    H           -2.970192642649    -0.845522770959     0.859374920148

  Mulliken Charges: (a.u.)
   Center  Symbol    Alpha    Beta     Spin     Total
       1     H     0.26750  0.26750  0.00000  0.46499
       2     O     4.35282  4.35282  0.00000 -0.70564
       3     C     2.62460  2.62460  0.00000  0.75081
       4     C     3.20945  3.20945  0.00000 -0.41889
       5     O     4.27550  4.27550  0.00000 -0.55101
       6     C     3.15249  3.15249  0.00000 -0.30499
       7     H     0.39807  0.39807  0.00000  0.20385
       8     H     0.40015  0.40015  0.00000  0.19970
       9     C     3.24289  3.24289  0.00000 -0.48577
      10     H     0.41056  0.41056  0.00000  0.17887
      11     H     0.40975  0.40975  0.00000  0.18050
      12     H     0.42069  0.42069  0.00000  0.15862
      13     H     0.41448  0.41448  0.00000  0.17104
      14     H     0.42104  0.42104  0.00000  0.15791

   Total alpha = 24.00000, Total beta = 24.00000, Total charge = -0.00000
