  ==> Input File <==

--------------------------------------------------------------------------
set {
	reference rhf
	basis 6-31G*
}

set_num_threads( 1 )
memory 2 gb

molecule MOL {
0 1

H	 -3.892951	 0.981613	 -0.358725
C	 -3.196921	 0.361773	 0.172313
C	 -2.076860	 -0.007332	 -0.404944
H	 -3.439953	 0.057760	 1.173024
O	 -0.991213	 0.808389	 -0.458142
H	 -1.944854	 -0.977626	 -0.850253
C	 0.087912	 0.415726	 -1.234772
C	 -0.071866	 0.849263	 -2.674498
H	 0.237328	 -0.658125	 -1.220142
H	 0.970431	 0.897174	 -0.839989
F	 0.997934	 0.484419	 -3.366034
F	 -1.127112	 0.288390	 -3.241691
F	 -0.201929	 2.154975	 -2.786702

	symmetry c1
}
set optking {
	frozen_dihedral = ("
		11 8 7 9,
		3 5 7 9,
		6 3 5 7
	")
}

ee = energy('scf')
oeprop('DIPOLE', 'QUADRUPOLE', 'MULLIKEN_CHARGES')
f=open( 'psi4out.xyz', 'w' )
f.write( "13  " )
f.write( str(ee) + "\n" )
f.write( MOL.save_string_xyz() )
f.close()
--------------------------------------------------------------------------

    Molecular point group: c1

    Geometry (in Angstrom), charge = 0, multiplicity = 1:

       Center              X                  Y                   Z               Mass
    ------------   -----------------  -----------------  -----------------  -----------------
           H         -3.152084582021     0.281064165968     1.526729006461     1.007825032070
           C         -2.456054582021    -0.338775834032     2.057767006461    12.000000000000
           C         -1.335993582021    -0.707880834032     1.480510006461    12.000000000000
           H         -2.699086582021    -0.642788834032     3.058478006461     1.007825032070
           O         -0.250346582021     0.107840165968     1.427312006461    15.994914619560
           H         -1.203987582021    -1.678174834032     1.035201006461     1.007825032070
           C          0.828778417979    -0.284822834032     0.650682006461    12.000000000000
           C          0.669000417979     0.148714165968    -0.789043993539    12.000000000000
           H          0.978194417979    -1.358673834032     0.665312006461     1.007825032070
           H          1.711297417979     0.196625165968     1.045465006461     1.007825032070
           F          1.738800417979    -0.216129834032    -1.480579993539    18.998403224000
           F         -0.386245582021    -0.412158834032    -1.356236993539    18.998403224000
           F          0.538937417979     1.454426165968    -0.901247993539    18.998403224000

  Charge       = 0
  Multiplicity = 1
  Basis Set: 6-31G*
  Basis Set:

    Orbital Energies (a.u.)
    -----------------------

    Doubly Occupied:

       1A    -26.355386     2A    -26.352143     3A    -26.348890
       4A    -20.639436     5A    -11.513433     6A    -11.345887
       7A    -11.326825     8A    -11.172966     9A     -1.750919
      10A     -1.649526    11A     -1.646727    12A     -1.462681
      13A     -1.094269    14A     -1.019914    15A     -0.934160
      16A     -0.846081    17A     -0.840340    18A     -0.829856
      19A     -0.803272    20A     -0.732481    21A     -0.719455
      22A     -0.705532    23A     -0.680632    24A     -0.668326
      25A     -0.661696    26A     -0.651933    27A     -0.646944
      28A     -0.586352    29A     -0.576460    30A     -0.539585
      31A     -0.509620    32A     -0.270996

  @DF-RHF Final Energy:  -527.40574973957655

   => Energetics <=

    Nuclear Repulsion Energy =            413.5155229532820158
    One-Electron Energy =               -1550.0772767090056732
    Two-Electron Energy =                 609.1560040161476763
    DFT Exchange-Correlation Energy =       0.0000000000000000
    Empirical Dispersion Energy =           0.0000000000000000
    PCM Polarization Energy =               0.0000000000000000
    EFP Energy =                            0.0000000000000000
    Total Energy =                       -527.4057497395759810

  Mulliken Charges: (a.u.)
   Center  Symbol    Alpha    Beta     Spin     Total
       1     H     0.40247  0.40247  0.00000  0.19507
       2     C     3.32244  3.32244  0.00000 -0.64488
       3     C     2.85568  2.85568  0.00000  0.28864
       4     H     0.39948  0.39948  0.00000  0.20104
       5     O     4.26421  4.26421  0.00000 -0.52843
       6     H     0.40520  0.40520  0.00000  0.18960
       7     C     3.07378  3.07378  0.00000 -0.14756
       8     C     2.45556  2.45556  0.00000  1.08888
       9     H     0.40146  0.40146  0.00000  0.19709
      10     H     0.38545  0.38545  0.00000  0.22910
      11     F     4.68148  4.68148  0.00000 -0.36297
      12     F     4.67980  4.67980  0.00000 -0.35959
      13     F     4.67300  4.67300  0.00000 -0.34599

   Total alpha = 32.00000, Total beta = 32.00000, Total charge = -0.00000
