                              Psi4 1.0.54 Driver

  ==> Input File <==

--------------------------------------------------------------------------
set {
	reference rhf
	basis cc-pvtz
}

set_num_threads( 4 )
memory 2 gb

molecule MOL {
0 1

O	 2.868575	 1.353411	 -0.000734
C	 2.841381	 0.166242	 -0.000295
C	 1.542916	 -0.614668	 -0.000853
C	 4.113494	 -0.651041	 0.000743
C	 0.288520	 0.247491	 0.000314
H	 1.557293	 -1.273077	 -0.866508
H	 1.557606	 -1.274936	 0.863344
C	 -0.992967	 -0.581305	 -0.000217
H	 0.305275	 0.900624	 -0.864701
H	 0.305689	 0.898867	 0.866656
C	 -2.258360	 0.271402	 0.000669
H	 -1.002158	 -1.233858	 -0.870484
H	 -1.001939	 -1.235305	 0.868958
C	 -3.544319	 -0.550209	 -0.000253
H	 -2.250423	 0.925312	 -0.867923
H	 -2.250476	 0.923485	 0.870642
C	 -4.804429	 0.308809	 0.000556
H	 -3.553615	 -1.201462	 -0.870151
H	 -3.553709	 -1.203220	 0.868313
H	 -4.841928	 0.949140	 -0.874436
H	 -5.698282	 -0.304418	 -0.000254
H	 -4.842155	 0.947165	 0.876982
H	 4.145433	 -1.294522	 -0.871587
H	 4.970202	 0.005040	 -0.000091
H	 4.145345	 -1.291918	 0.874988

	symmetry c1
}
ee,wfn = energy('scf', return_wfn=True)
oeprop( wfn, 'DIPOLE', 'QUADRUPOLE', 'MULLIKEN_CHARGES')
oeprop( wfn, 'GRID_ESP')
f=open( 'psi4out.xyz', 'w' )
f.write( "25  " )
f.write( str(ee) + "\n" )
f.write( MOL.save_string_xyz() )
f.close()
--------------------------------------------------------------------------

    Molecular point group: c1

    Geometry (in Angstrom), charge = 0, multiplicity = 1:

       Center              X                  Y                   Z               Mass
    ------------   -----------------  -----------------  -----------------  -----------------
           O          2.868452923494     1.353348627960    -0.000734039501    15.994914619560
           C          2.841258923494     0.166179627960    -0.000295039501    12.000000000000
           C          1.542793923494    -0.614730372040    -0.000853039501    12.000000000000
           C          4.113371923494    -0.651103372040     0.000742960499    12.000000000000
           C          0.288397923494     0.247428627960     0.000313960499    12.000000000000
           H          1.557170923494    -1.273139372040    -0.866508039501     1.007825032070
           H          1.557483923494    -1.274998372040     0.863343960499     1.007825032070
           C         -0.993089076506    -0.581367372040    -0.000217039501    12.000000000000
           H          0.305152923494     0.900561627960    -0.864701039501     1.007825032070
           H          0.305566923494     0.898804627960     0.866655960499     1.007825032070
           C         -2.258482076506     0.271339627960     0.000668960499    12.000000000000
           H         -1.002280076506    -1.233920372040    -0.870484039501     1.007825032070
           H         -1.002061076506    -1.235367372040     0.868957960499     1.007825032070
           C         -3.544441076506    -0.550271372040    -0.000253039501    12.000000000000
           H         -2.250545076506     0.925249627960    -0.867923039501     1.007825032070
           H         -2.250598076506     0.923422627960     0.870641960499     1.007825032070
           C         -4.804551076506     0.308746627960     0.000555960499    12.000000000000
           H         -3.553737076506    -1.201524372040    -0.870151039501     1.007825032070
           H         -3.553831076506    -1.203282372040     0.868312960499     1.007825032070
           H         -4.842050076506     0.949077627960    -0.874436039501     1.007825032070
           H         -5.698404076506    -0.304480372040    -0.000254039501     1.007825032070
           H         -4.842277076506     0.947102627960     0.876981960499     1.007825032070
           H          4.145310923494    -1.294584372040    -0.871587039501     1.007825032070
           H          4.970079923494     0.004977627960    -0.000091039501     1.007825032070
           H          4.145222923494    -1.291980372040     0.874987960499     1.007825032070

  Charge       = 0
  Multiplicity = 1
  Basis Set: CC-PVTZ
  Basis Set:

    Orbital Energies (a.u.)
    -----------------------

    Doubly Occupied:

       1A    -20.538870     2A    -11.320509     3A    -11.230172
       4A    -11.226570     5A    -11.215243     6A    -11.214623
       7A    -11.213552     8A    -11.211516     9A    -11.206458
      10A     -1.398887    11A     -1.095214    12A     -1.057690
      13A     -1.015597    14A     -0.970209    15A     -0.891567
      16A     -0.814757    17A     -0.791430    18A     -0.731014
      19A     -0.662916    20A     -0.654334    21A     -0.633238
      22A     -0.626881    23A     -0.596840    24A     -0.585341
      25A     -0.567717    26A     -0.559839    27A     -0.541465
      28A     -0.527237    29A     -0.513198    30A     -0.491762
      31A     -0.490268    32A     -0.473695    33A     -0.463993
      34A     -0.462994    35A     -0.452831    36A     -0.401434

  @DF-RHF Final Energy:  -387.27467212390741

   => Energetics <=

    Nuclear Repulsion Energy =            439.1244642724215055
    One-Electron Energy =               -1395.0984580717799872
    Two-Electron Energy =                 568.6993216754515288
    DFT Exchange-Correlation Energy =       0.0000000000000000
    Empirical Dispersion Energy =           0.0000000000000000
    PCM Polarization Energy =               0.0000000000000000
    EFP Energy =                            0.0000000000000000
    Total Energy =                       -387.2746721239069529

  Mulliken Charges: (a.u.)
   Center  Symbol    Alpha    Beta     Spin     Total
       1     O     4.17078  4.17078  0.00000 -0.34157
       2     C     2.86222  2.86222  0.00000  0.27555
       3     C     3.11400  3.11400  0.00000 -0.22799
       4     C     3.15126  3.15126  0.00000 -0.30253
       5     C     3.08298  3.08298  0.00000 -0.16597
       6     H     0.44560  0.44560  0.00000  0.10881
       7     H     0.44562  0.44562  0.00000  0.10876
       8     C     3.09013  3.09013  0.00000 -0.18027
       9     H     0.44604  0.44604  0.00000  0.10791
      10     H     0.44608  0.44608  0.00000  0.10784
      11     C     3.08613  3.08613  0.00000 -0.17226
      12     H     0.45604  0.45604  0.00000  0.08792
      13     H     0.45604  0.45604  0.00000  0.08793
      14     C     3.08430  3.08430  0.00000 -0.16861
      15     H     0.45381  0.45381  0.00000  0.09238
      16     H     0.45381  0.45381  0.00000  0.09238
      17     C     3.15038  3.15038  0.00000 -0.30075
      18     H     0.45519  0.45519  0.00000  0.08963
      19     H     0.45519  0.45519  0.00000  0.08963
      20     H     0.45478  0.45478  0.00000  0.09044
      21     H     0.44868  0.44868  0.00000  0.10264
      22     H     0.45478  0.45478  0.00000  0.09044
      23     H     0.45041  0.45041  0.00000  0.09917
      24     H     0.43534  0.43534  0.00000  0.12931
      25     H     0.45039  0.45039  0.00000  0.09921

   Total alpha = 36.00000, Total beta = 36.00000, Total charge = -0.00000

*** Psi4 exiting successfully. Buy a developer a beer!
