                              Psi4 1.0.54 Driver

  ==> Input File <==

--------------------------------------------------------------------------
set {
	reference rhf
	basis cc-pvtz
}

set_num_threads( 4 )
memory 2 gb

molecule MOL {
0 1

O	 2.587678	 1.791360	 1.289263
C	 2.409568	 0.839629	 1.976718
C	 1.117238	 0.049150	 1.947453
C	 3.471580	 0.350115	 2.935223
C	 0.076445	 0.578082	 0.970821
H	 1.370397	 -0.983708	 1.719015
H	 0.721378	 0.031294	 2.960361
C	 -1.206482	 -0.248468	 0.976079
H	 0.500556	 0.593782	 -0.026674
H	 -0.148921	 1.609762	 1.215728
C	 -2.258482	 0.271340	 0.000669
H	 -0.972472	 -1.282374	 0.732046
H	 -1.625122	 -0.261420	 1.979989
C	 -3.544441	 -0.550271	 -0.000253
H	 -1.841023	 0.284430	 -1.003159
H	 -2.493642	 1.304530	 0.244277
C	 -4.804551	 0.308747	 0.000556
H	 -3.553737	 -1.201524	 -0.870151
H	 -3.553831	 -1.203282	 0.868313
H	 -4.842050	 0.949078	 -0.874436
H	 -5.698404	 -0.304480	 -0.000254
H	 -4.842277	 0.947103	 0.876982
H	 3.745288	 -0.672489	 2.699825
H	 4.342842	 0.983488	 2.870934
H	 3.090202	 0.355853	 3.950388

	symmetry c1
}
set optking {
	frozen_dihedral = ("
		15 11 14 18
	")
}

ee,wfn = optimize('scf', return_wfn=True)
oeprop( wfn, 'DIPOLE', 'QUADRUPOLE', 'MULLIKEN_CHARGES')
f=open( 'psi4out.xyz', 'w' )
f.write( "25  " )
f.write( str(ee) + "\n" )
f.write( MOL.save_string_xyz() )
f.close()
--------------------------------------------------------------------------

    Molecular point group: c1
  Charge       = 0
  Multiplicity = 1
  Basis Set: CC-PVTZ
  Basis Set:
  @DF-RHF Final Energy:  -387.26979826607646
    Total Energy =                       -387.2697982660763500
    Molecular point group: c1
  Basis Set: CC-PVTZ
  Basis Set:
  Basis Set: CC-PVTZ
  Basis Set:
  @DF-RHF Final Energy:  -387.27007610542665
    Total Energy =                       -387.2700761054263694
  Basis Set: CC-PVTZ
  Basis Set:
  Basis Set: CC-PVTZ
  Basis Set:
  @DF-RHF Final Energy:  -387.27014496145028
    Total Energy =                       -387.2701449614503417
  Basis Set: CC-PVTZ
  Basis Set:
  Basis Set: CC-PVTZ
  Basis Set:
  @DF-RHF Final Energy:  -387.27009051165192
    Total Energy =                       -387.2700905116515742
  Basis Set: CC-PVTZ
  Basis Set:
  Basis Set: CC-PVTZ
  Basis Set:
  @DF-RHF Final Energy:  -387.27014626353463
    Total Energy =                       -387.2701462635345706
  Basis Set: CC-PVTZ
  Basis Set:
  Charge       = 0
  Multiplicity = 1
  Basis Set: CC-PVTZ
  Basis Set:

    Orbital Energies (a.u.)
    -----------------------

    Doubly Occupied:

       1A    -20.538879     2A    -11.320511     3A    -11.230196
       4A    -11.226592     5A    -11.215359     6A    -11.214538
       7A    -11.213422     8A    -11.211428     9A    -11.206740
      10A     -1.398924    11A     -1.094336    12A     -1.056332
      13A     -1.015335    14A     -0.970104    15A     -0.891000
      16A     -0.815860    17A     -0.790935    18A     -0.730954
      19A     -0.660994    20A     -0.654660    21A     -0.630093
      22A     -0.626234    23A     -0.600633    24A     -0.586967
      25A     -0.569887    26A     -0.559506    27A     -0.535722
      28A     -0.528798    29A     -0.515583    30A     -0.493490
      31A     -0.486745    32A     -0.476914    33A     -0.463871
      34A     -0.458051    35A     -0.451029    36A     -0.401262

  @DF-RHF Final Energy:  -387.27014644211761

   => Energetics <=

    Nuclear Repulsion Energy =            439.3920416209906534
    One-Electron Energy =               -1395.6406083515598766
    Two-Electron Energy =                 568.9784202884513888
    DFT Exchange-Correlation Energy =       0.0000000000000000
    Empirical Dispersion Energy =           0.0000000000000000
    PCM Polarization Energy =               0.0000000000000000
    EFP Energy =                            0.0000000000000000
    Total Energy =                       -387.2701464421178343
    Molecular point group: c1
  Basis Set: CC-PVTZ
  Basis Set:

  -Total Gradient:
     Atom            X                  Y                   Z
    ------   -----------------  -----------------  -----------------
       1       -0.000008829641     0.000019011977     0.000020211035
       2        0.000029772929    -0.000062163795    -0.000053268764
       3       -0.000002465254     0.000031807519     0.000023256455
       4       -0.000004878713     0.000022484304     0.000021031604
       5        0.000008329240    -0.000003061612     0.000005296431
       6        0.000001896837     0.000006269615    -0.000002366045
       7       -0.000001711022    -0.000002458043     0.000002346061
       8       -0.000000721386    -0.000003414304    -0.000014722931
       9       -0.000001232726    -0.000000674777     0.000003911981
      10        0.000004295299     0.000001633172    -0.000002214279
      11       -0.002694197886     0.004210224227    -0.001355486645
      12       -0.000003514333     0.000001758707    -0.000010243054
      13       -0.000006556462    -0.000006124020    -0.000004134634
      14        0.002437503344    -0.003817341751     0.002493603612
      15        0.001874208918    -0.002930310052     0.000740199247
      16       -0.000007921510    -0.000026563182     0.000004041064
      17       -0.000001266975    -0.000020253767     0.000004988129
      18       -0.001620200416     0.002554996625    -0.001869314831
      19        0.000001778154     0.000031977556    -0.000003890547
      20        0.000008815127    -0.000001898520     0.000002515280
      21       -0.000018173613     0.000001015958    -0.000001373912
      22        0.000003418122    -0.000005911211    -0.000005241752
      23       -0.000002601379     0.000001863936    -0.000004085416
      24        0.000000575191    -0.000000218166     0.000001318342
      25        0.000003678154    -0.000002650393     0.000003623570

  **** Optimization is complete! (in 6 steps) ****
    Final optimized geometry and variables:
    Molecular point group: c1

    Geometry (in Angstrom), charge = 0, multiplicity = 1:

    O            2.864037058043     1.364735592474     0.137329122556
    C            2.678876971267     0.414890388048     0.825427091274
    C            1.371221657938    -0.350652418019     0.815656950805
    C            3.746459762084    -0.097022911514     1.765993298241
    C            0.324990562399     0.200200690740    -0.142954470701
    H            1.600946601442    -1.387580589222     0.580998086348
    H            0.991735053906    -0.363289908936     1.834886808286
    C           -0.972682896768    -0.601892429307    -0.119862089337
    H            0.733709654824     0.211340981071    -1.146963323334
    H            0.122634037125     1.235321614654     0.108128580282
    C           -2.035933814891    -0.053322894337    -1.070471569653
    H           -0.764125262880    -1.638090016504    -0.378097698093
    H           -1.373113780609    -0.617047049629     0.891518035489
    C           -3.328223367286    -0.889421970642    -1.085166401218
    H           -1.608732991875    -0.027154266463    -2.068070339763
    H           -2.259234481092     0.972667506127    -0.795542718619
    C           -4.594497822973    -0.036767264082    -1.125300140587
    H           -3.332185419716    -1.534813795907    -1.957301997017
    H           -3.363227363644    -1.534962952409    -0.213846243249
    H           -4.600479810991     0.611392432584    -1.995524297598
    H           -5.484655745634    -0.654444112007    -1.167040131170
    H           -4.668627145474     0.594180741819    -0.245708434514
    H            3.996323132283    -1.124280599287     1.524472041674
    H            4.628860084874     0.519326233404     1.688840113163
    H            3.381502589752    -0.085787925311     2.787132253113

  Mulliken Charges: (a.u.)
   Center  Symbol    Alpha    Beta     Spin     Total
       1     O     4.17077  4.17077  0.00000 -0.34154
       2     C     2.86219  2.86219  0.00000  0.27562
       3     C     3.11356  3.11356  0.00000 -0.22711
       4     C     3.15127  3.15127  0.00000 -0.30254
       5     C     3.08384  3.08384  0.00000 -0.16768
       6     H     0.44556  0.44556  0.00000  0.10889
       7     H     0.44561  0.44561  0.00000  0.10878
       8     C     3.09177  3.09177  0.00000 -0.18353
       9     H     0.44609  0.44609  0.00000  0.10782
      10     H     0.44585  0.44585  0.00000  0.10829
      11     C     3.09071  3.09071  0.00000 -0.18142
      12     H     0.45467  0.45467  0.00000  0.09066
      13     H     0.45594  0.45594  0.00000  0.08812
      14     C     3.08682  3.08682  0.00000 -0.17364
      15     H     0.45147  0.45147  0.00000  0.09707
      16     H     0.45276  0.45276  0.00000  0.09447
      17     C     3.14815  3.14815  0.00000 -0.29631
      18     H     0.45210  0.45210  0.00000  0.09581
      19     H     0.45497  0.45497  0.00000  0.09007
      20     H     0.45384  0.45384  0.00000  0.09232
      21     H     0.44984  0.44984  0.00000  0.10031
      22     H     0.45609  0.45609  0.00000  0.08782
      23     H     0.45039  0.45039  0.00000  0.09922
      24     H     0.43537  0.43537  0.00000  0.12925
      25     H     0.45037  0.45037  0.00000  0.09925

   Total alpha = 36.00000, Total beta = 36.00000, Total charge = -0.00000

*** Psi4 exiting successfully. Buy a developer a beer!
