  ==> Input File <==

--------------------------------------------------------------------------
set {
	reference rhf
	basis cc-pvtz
}

set_num_threads( 4 )
memory 2 gb

molecule MOL {
0 1

H	 -0.366580	 2.045936	 -0.305741
C	 0.351829	 1.335402	 0.083179
N	 -0.000018	 0.000080	 -0.334836
H	 1.327156	 1.599860	 -0.305475
H	 0.380566	 1.445403	 1.171445
C	 0.613121	 -1.005617	 0.498839
C	 -1.428892	 -0.176627	 -0.431441
H	 0.385450	 -1.992315	 0.115842
H	 1.689055	 -0.885125	 0.492944
H	 0.273617	 -0.959745	 1.537926
H	 -1.845864	 0.549752	 -1.117509
H	 -1.654418	 -1.164306	 -0.813217
H	 -1.936452	 -0.062225	 0.531059

	symmetry c1
}
set optking {
	frozen_dihedral = ("
		6 3 2 1
	")
}

ee = optimize('scf')
oeprop('DIPOLE', 'QUADRUPOLE', 'MULLIKEN_CHARGES')
f=open( 'psi4out.xyz', 'w' )
f.write( "13  " )
f.write( str(ee) + "\n" )
f.write( MOL.save_string_xyz() )
f.close()
--------------------------------------------------------------------------

    Molecular point group: c1
  Charge       = 0
  Multiplicity = 1
  Basis Set: CC-PVTZ
  Basis Set:
  @DF-RHF Final Energy:  -173.33164761566783
    Total Energy =                       -173.3316476156678618
    Molecular point group: c1
  Basis Set: CC-PVTZ
  Basis Set:
  Basis Set: CC-PVTZ
  Basis Set:
  @DF-RHF Final Energy:  -173.33189343690597
    Total Energy =                       -173.3318934369060003
  Basis Set: CC-PVTZ
  Basis Set:
  Basis Set: CC-PVTZ
  Basis Set:
  @DF-RHF Final Energy:  -173.33193055956781
    Total Energy =                       -173.3319305595676383
  Basis Set: CC-PVTZ
  Basis Set:
  Charge       = 0
  Multiplicity = 1
  Basis Set: CC-PVTZ
  Basis Set:

    Orbital Energies (a.u.)
    -----------------------

    Doubly Occupied:

       1A    -15.539562     2A    -11.234258     3A    -11.234234
       4A    -11.234095     5A     -1.226073     6A     -0.952056
       7A     -0.951332     8A     -0.807844     9A     -0.642445
      10A     -0.631328    11A     -0.629778    12A     -0.547275
      13A     -0.544398    14A     -0.516004    15A     -0.501487
      16A     -0.500058    17A     -0.349898

  @DF-RHF Final Energy:  -173.33193178184649

   => Energetics <=

    Nuclear Repulsion Energy =            139.4237807235980426
    One-Electron Energy =                -509.4271748598213208
    Two-Electron Energy =                 196.6714623543768710
    DFT Exchange-Correlation Energy =       0.0000000000000000
    Empirical Dispersion Energy =           0.0000000000000000
    PCM Polarization Energy =               0.0000000000000000
    EFP Energy =                            0.0000000000000000
    Total Energy =                       -173.3319317818464071
    Molecular point group: c1
  Basis Set: CC-PVTZ
  Basis Set:

  -Total Gradient:
     Atom            X                  Y                   Z
    ------   -----------------  -----------------  -----------------
       1       -0.002652494553    -0.000505487286     0.003897472540
       2        0.002304570307     0.000643458313    -0.004133925070
       3        0.003135054590    -0.000176294477    -0.001882928823
       4        0.000007389509    -0.000017880557     0.000005166510
       5       -0.000006090968     0.000032890554     0.000016871492
       6       -0.002915082844     0.000129837855     0.002068578742
       7        0.000125668286    -0.000071690554    -0.000028864128
       8        0.000016303418    -0.000032692019     0.000014754471
       9       -0.000000839898     0.000006712019    -0.000000698139
      10        0.000006646662    -0.000005871557     0.000026610070
      11        0.000024952305     0.000007913263     0.000017979471
      12       -0.000053674156    -0.000026603749    -0.000008747144
      13        0.000007597342     0.000015708193     0.000007730010

  **** Optimization is complete! (in 4 steps) ****
    Final optimized geometry and variables:
    Molecular point group: c1

    Geometry (in Angstrom), charge = 0, multiplicity = 1:

    H           -0.223085505181     2.015956133493    -0.278385369610
    C            0.486094927694     1.295514318600     0.106616393739
    N            0.123336466378    -0.039846180827    -0.319536312920
    H            1.479390938590     1.553239818775    -0.239507373985
    H            0.470101785672     1.400513840577     1.194930063549
    C            0.732707672846    -1.045208197552     0.518372603878
    C           -1.308599193411    -0.220512291066    -0.389436230005
    H            0.525818231111    -2.033194935452     0.126727845397
    H            1.807791721612    -0.912583197465     0.534316274659
    H            0.373795408161    -1.005087652950     1.550917588772
    H           -1.738949817464     0.486555905320    -1.086709399876
    H           -1.535526919945    -1.217885951428    -0.744790005312
    H           -1.803823259574    -0.088627197028     0.577563381664

  Mulliken Charges: (a.u.)
   Center  Symbol    Alpha    Beta     Spin     Total
       1     H     0.45487  0.45487  0.00000  0.09027
       2     C     3.08851  3.08851  0.00000 -0.17702
       3     N     3.59703  3.59703  0.00000 -0.19407
       4     H     0.44998  0.44998  0.00000  0.10005
       5     H     0.47258  0.47258  0.00000  0.05484
       6     C     3.09024  3.09024  0.00000 -0.18047
       7     C     3.08930  3.08930  0.00000 -0.17860
       8     H     0.45279  0.45279  0.00000  0.09443
       9     H     0.45254  0.45254  0.00000  0.09493
      10     H     0.47317  0.47317  0.00000  0.05365
      11     H     0.45213  0.45213  0.00000  0.09574
      12     H     0.45273  0.45273  0.00000  0.09454
      13     H     0.47414  0.47414  0.00000  0.05172

   Total alpha = 17.00000, Total beta = 17.00000, Total charge =  0.00000
