                              Psi4 1.0.54 Driver

  ==> Input File <==

--------------------------------------------------------------------------
set {
	reference rhf
	basis cc-pvtz
}

set_num_threads( 4 )
memory 2 gb

molecule MOL {
0 1

H	 -3.294565	 0.569785	 0.000000
C	 -2.246225	 0.343737	 0.000000
C	 -1.809462	 -0.973484	 0.000000
C	 -1.312577	 1.353775	 0.000000
H	 -2.523539	 -1.775124	 0.000000
C	 -0.467257	 -1.267606	 0.000000
H	 -1.631287	 2.379013	 0.000000
C	 0.046966	 1.074396	 0.000000
H	 -0.119372	 -2.281828	 0.000000
C	 0.471772	 -0.241514	 0.000000
H	 0.748162	 1.882966	 0.000000
O	 1.760432	 -0.625184	 0.000000
C	 2.768322	 0.317272	 0.209983
H	 2.764317	 1.081920	 -0.558786
H	 3.702240	 -0.220536	 0.166086
H	 2.676697	 0.787625	 1.182650

	symmetry c1
}
set optking {
	frozen_dihedral = ("
		13 12 10 8
	")
}

ee,wfn = optimize('scf', return_wfn=True)
oeprop( wfn, 'DIPOLE', 'QUADRUPOLE', 'MULLIKEN_CHARGES')
f=open( 'psi4out.xyz', 'w' )
f.write( "16  " )
f.write( str(ee) + "\n" )
f.write( MOL.save_string_xyz() )
f.close()
--------------------------------------------------------------------------

    Molecular point group: c1
  Charge       = 0
  Multiplicity = 1
  Basis Set: CC-PVTZ
  Basis Set:
  @DF-RHF Final Energy:  -344.70345587148728
    Total Energy =                       -344.7034558714871650
    Molecular point group: c1
  Basis Set: CC-PVTZ
  Basis Set:
  Basis Set: CC-PVTZ
  Basis Set:
  @DF-RHF Final Energy:  -344.70336374797313
    Total Energy =                       -344.7033637479733557
  Basis Set: CC-PVTZ
  Basis Set:
  Basis Set: CC-PVTZ
  Basis Set:
  @DF-RHF Final Energy:  -344.70360264652254
    Total Energy =                       -344.7036026465226541
  Basis Set: CC-PVTZ
  Basis Set:
  Basis Set: CC-PVTZ
  Basis Set:
  @DF-RHF Final Energy:  -344.70360418941266
    Total Energy =                       -344.7036041894124878
  Basis Set: CC-PVTZ
  Basis Set:
  Charge       = 0
  Multiplicity = 1
  Basis Set: CC-PVTZ
  Basis Set:

    Orbital Energies (a.u.)
    -----------------------

    Doubly Occupied:

       1A    -20.580221     2A    -11.293553     3A    -11.278493
       4A    -11.231266     5A    -11.230015     6A    -11.221911
       7A    -11.218059     8A    -11.217028     9A     -1.419667
      10A     -1.150993    11A     -1.025674    12A     -1.016685
      13A     -0.944172    14A     -0.834627    15A     -0.808345
      16A     -0.726123    17A     -0.667783    18A     -0.666587
      19A     -0.660616    20A     -0.619330    21A     -0.590303
      22A     -0.579685    23A     -0.528607    24A     -0.523222
      25A     -0.512258    26A     -0.479586    27A     -0.466667
      28A     -0.339775    29A     -0.310286

  @DF-RHF Final Energy:  -344.70360459694200

   => Energetics <=

    Nuclear Repulsion Energy =            348.8956975986483258
    One-Electron Energy =               -1158.9155347994988006
    Two-Electron Energy =                 465.3162326039087020
    DFT Exchange-Correlation Energy =       0.0000000000000000
    Empirical Dispersion Energy =           0.0000000000000000
    PCM Polarization Energy =               0.0000000000000000
    EFP Energy =                            0.0000000000000000
    Total Energy =                       -344.7036045969417728
    Molecular point group: c1
  Basis Set: CC-PVTZ
  Basis Set:

  -Total Gradient:
     Atom            X                  Y                   Z
    ------   -----------------  -----------------  -----------------
       1        0.000001331699    -0.000000384757     0.000000226082
       2        0.000010305516     0.000043878813    -0.000008525821
       3        0.000033514764    -0.000027609919     0.000013639280
       4       -0.000044793359    -0.000011160302     0.000004129161
       5        0.000000751689     0.000001901585    -0.000002549900
       6       -0.000038186168    -0.000011153896     0.000008925136
       7       -0.000000354384     0.000002165018     0.000001713287
       8        0.000013719986    -0.000016713317    -0.000795634134
       9        0.000003972258     0.000000569663    -0.000001024461
      10        0.000015433135    -0.000035363666     0.001613054534
      11       -0.000009516224    -0.000001273042    -0.000001067822
      12        0.000072571447     0.000210843882    -0.001571716742
      13       -0.000065363650    -0.000150600468     0.000740314149
      14       -0.000005084115     0.000021370709    -0.000029706742
      15        0.000019477426    -0.000029800512     0.000001015026
      16       -0.000007780026     0.000003330208     0.000027208968

  **** Optimization is complete! (in 5 steps) ****
    Final optimized geometry and variables:
    Molecular point group: c1

    Geometry (in Angstrom), charge = 0, multiplicity = 1:

    H           -3.294279825767     0.569628060121    -0.032435678674
    C           -2.245774538289     0.344259928967    -0.030145972489
    C           -1.808415039508    -0.972537471051    -0.040616203918
    C           -1.312802417142     1.355021374952    -0.017045138686
    H           -2.522115025786    -1.774445569977    -0.051051104428
    C           -0.465860852701    -1.265953383127    -0.036013263627
    H           -1.632194176930     2.380026083951    -0.010412679301
    C            0.046643763462     1.076143455972    -0.014573314260
    H           -0.117284917919    -2.279913601718    -0.044042014896
    C            0.472218874935    -0.239477793288    -0.021395048046
    H            0.747991363905     1.884678797771    -0.007210306892
    O            1.761984935382    -0.620857970475    -0.035900454583
    C            2.769795090198     0.324217351754     0.165044565429
    H            2.814413577418     1.039862269444    -0.648351113626
    H            3.698645134418    -0.223180003003     0.199735071922
    H            2.634139725555     0.854651065210     1.100956273050

  Mulliken Charges: (a.u.)
   Center  Symbol    Alpha    Beta     Spin     Total
       1     H     0.42440  0.42440  0.00000  0.15120
       2     C     3.10067  3.10067  0.00000 -0.20134
       3     C     3.05817  3.05817  0.00000 -0.11635
       4     C     3.06151  3.06151  0.00000 -0.12302
       5     H     0.42298  0.42298  0.00000  0.15404
       6     C     3.11150  3.11150  0.00000 -0.22300
       7     H     0.42359  0.42359  0.00000  0.15283
       8     C     3.14277  3.14277  0.00000 -0.28554
       9     H     0.42086  0.42086  0.00000  0.15829
      10     C     2.85107  2.85107  0.00000  0.29785
      11     H     0.42254  0.42254  0.00000  0.15492
      12     O     4.15148  4.15148  0.00000 -0.30296
      13     C     3.04502  3.04502  0.00000 -0.09003
      14     H     0.46238  0.46238  0.00000  0.07523
      15     H     0.43898  0.43898  0.00000  0.12205
      16     H     0.46209  0.46209  0.00000  0.07582

   Total alpha = 29.00000, Total beta = 29.00000, Total charge =  0.00000

*** Psi4 exiting successfully. Buy a developer a beer!
