  ==> Input File <==

--------------------------------------------------------------------------
set {
	reference rhf
	basis 6-31G*
}

set_num_threads( 1 )
memory 2 gb

molecule MOL {
0 1

H	 -3.226553	 0.609723	 -0.577358
C	 -2.471152	 0.084721	 -1.158637
O	 -1.392607	 -0.295399	 -0.366433
H	 -2.907962	 -0.815461	 -1.568529
H	 -2.158170	 0.728758	 -1.979421
C	 -0.719715	 0.768384	 0.229244
C	 0.719720	 0.768376	 -0.229267
H	 -1.185038	 1.714362	 -0.050570
H	 -0.750528	 0.687237	 1.313896
O	 1.392611	 -0.295398	 0.366430
H	 0.750534	 0.687200	 -1.313918
H	 1.185043	 1.714359	 0.050526
C	 2.706965	 -0.449871	 -0.062409
H	 2.756559	 -0.644779	 -1.131878
H	 3.305899	 0.433456	 0.155466
H	 3.125548	 -1.294566	 0.467107

	symmetry c1
}
set optking {
	frozen_dihedral = ("
		3 6 7 11,
		7 10 13 14
	")
}

ee = energy('scf')
oeprop('DIPOLE', 'QUADRUPOLE', 'MULLIKEN_CHARGES')
f=open( 'psi4out.xyz', 'w' )
f.write( "16  " )
f.write( str(ee) + "\n" )
f.write( MOL.save_string_xyz() )
f.close()
--------------------------------------------------------------------------

    Molecular point group: c1

    Geometry (in Angstrom), charge = 0, multiplicity = 1:

       Center              X                  Y                   Z               Mass
    ------------   -----------------  -----------------  -----------------  -----------------
           H         -3.267990743533     0.515796768278    -0.362811163973     1.007825032070
           C         -2.512589743533    -0.009205231722    -0.944090163973    12.000000000000
           O         -1.434044743533    -0.389325231722    -0.151886163973    15.994914619560
           H         -2.949399743533    -0.909387231722    -1.353982163973     1.007825032070
           H         -2.199607743533     0.634831768278    -1.764874163973     1.007825032070
           C         -0.761152743533     0.674457768278     0.443790836027    12.000000000000
           C          0.678282256467     0.674449768278    -0.014720163973    12.000000000000
           H         -1.226475743533     1.620435768278     0.163976836027     1.007825032070
           H         -0.791965743533     0.593310768278     1.528442836027     1.007825032070
           O          1.351173256467    -0.389324231722     0.580976836027    15.994914619560
           H          0.709096256467     0.593273768278    -1.099371163973     1.007825032070
           H          1.143605256467     1.620432768278     0.265072836027     1.007825032070
           C          2.665527256467    -0.543797231722     0.152137836027    12.000000000000
           H          2.715121256467    -0.738705231722    -0.917331163973     1.007825032070
           H          3.264461256467     0.339529768278     0.370012836027     1.007825032070
           H          3.084110256467    -1.388492231722     0.681653836027     1.007825032070

  Charge       = 0
  Multiplicity = 1
  Basis Set: 6-31G*
  Basis Set:

    Orbital Energies (a.u.)
    -----------------------

    Doubly Occupied:

       1A    -20.553532     2A    -20.551757     3A    -11.268451
       4A    -11.266971     5A    -11.266307     6A    -11.263400
       7A     -1.388497     8A     -1.370695     9A     -1.029243
      10A     -0.937837    11A     -0.895889    12A     -0.822324
      13A     -0.687136    14A     -0.677530    15A     -0.657908
      16A     -0.638107    17A     -0.622731    18A     -0.603474
      19A     -0.556826    20A     -0.527035    21A     -0.509551
      22A     -0.478492    23A     -0.472146    24A     -0.416400
      25A     -0.406368

  @DF-RHF Final Energy:  -306.97277348545185

   => Energetics <=

    Nuclear Repulsion Energy =            259.6887027740381200
    One-Electron Energy =                -933.5856702696531784
    Two-Electron Energy =                 366.9241940101634896
    DFT Exchange-Correlation Energy =       0.0000000000000000
    Empirical Dispersion Energy =           0.0000000000000000
    PCM Polarization Energy =               0.0000000000000000
    EFP Energy =                            0.0000000000000000
    Total Energy =                       -306.9727734854515688

  Mulliken Charges: (a.u.)
   Center  Symbol    Alpha    Beta     Spin     Total
       1     H     0.42889  0.42889  0.00000  0.14222
       2     C     3.08152  3.08152  0.00000 -0.16305
       3     O     4.29877  4.29877  0.00000 -0.59754
       4     H     0.41132  0.41132  0.00000  0.17736
       5     H     0.43221  0.43221  0.00000  0.13557
       6     C     3.00080  3.00080  0.00000 -0.00161
       7     C     2.98791  2.98791  0.00000  0.02417
       8     H     0.43058  0.43058  0.00000  0.13884
       9     H     0.41278  0.41278  0.00000  0.17445
      10     O     4.30041  4.30041  0.00000 -0.60081
      11     H     0.42857  0.42857  0.00000  0.14285
      12     H     0.43537  0.43537  0.00000  0.12927
      13     C     3.07916  3.07916  0.00000 -0.15832
      14     H     0.42885  0.42885  0.00000  0.14229
      15     H     0.43186  0.43186  0.00000  0.13628
      16     H     0.41099  0.41099  0.00000  0.17803

   Total alpha = 25.00000, Total beta = 25.00000, Total charge = -0.00000
