  ==> Input File <==

--------------------------------------------------------------------------
set {
	reference rhf
	basis 6-31G*
}

set_num_threads( 4 )
memory 2 gb

molecule MOL {
0 1

O	 2.862325	 1.357334	 0.000267
C	 2.843464	 0.164689	 -0.000222
C	 1.546494	 -0.624492	 -0.000609
C	 4.124123	 -0.644674	 -0.000428
C	 0.291004	 0.242674	 0.000989
H	 1.557904	 -1.283758	 -0.867573
H	 1.558622	 -1.285963	 0.864672
C	 -0.994322	 -0.586602	 0.000262
H	 0.309117	 0.896430	 -0.865270
H	 0.309661	 0.894078	 0.869017
C	 -2.259874	 0.272531	 0.000494
H	 -1.004862	 -1.240012	 -0.870939
H	 -1.005220	 -1.241071	 0.870675
C	 -2.120701	 1.555155	 0.822393
H	 -3.091925	 -0.313290	 0.387178
H	 -2.520033	 0.529485	 -1.024830
C	 -3.388975	 2.407884	 0.817987
H	 -1.861823	 1.299528	 1.847800
H	 -1.290230	 2.142318	 0.435849
H	 -4.231248	 1.859759	 1.230644
H	 -3.259539	 3.309258	 1.409147
H	 -3.654975	 2.709504	 -0.191178
H	 4.165367	 -1.288615	 -0.874074
H	 4.976217	 0.020734	 -0.001915
H	 4.166763	 -1.286207	 0.874930

	symmetry c1
}
set optking {
	frozen_dihedral = ("
		15 11 8 12
	")
}

ee = optimize('scf')
oeprop('DIPOLE', 'QUADRUPOLE', 'MULLIKEN_CHARGES')
f=open( 'psi4out.xyz', 'w' )
f.write( "25  " )
f.write( str(ee) + "\n" )
f.write( MOL.save_string_xyz() )
f.close()
--------------------------------------------------------------------------

    Molecular point group: c1
  Charge       = 0
  Multiplicity = 1
  Basis Set: 6-31G*
  Basis Set:
  @DF-RHF Final Energy:  -387.12960398385383
    Total Energy =                       -387.1296039838542811
    Molecular point group: c1
  Basis Set: 6-31G*
  Basis Set:
  Basis Set: 6-31G*
  Basis Set:
  @DF-RHF Final Energy:  -387.13026112202061
    Total Energy =                       -387.1302611220214658
  Basis Set: 6-31G*
  Basis Set:
  Basis Set: 6-31G*
  Basis Set:
  @DF-RHF Final Energy:  -387.13183102877252
    Total Energy =                       -387.1318310287723534
  Basis Set: 6-31G*
  Basis Set:
  Basis Set: 6-31G*
  Basis Set:
  @DF-RHF Final Energy:  -387.13197598851241
    Total Energy =                       -387.1319759885127496
  Basis Set: 6-31G*
  Basis Set:
  @DF-RHF Final Energy:  -387.13171798168804
    Total Energy =                       -387.1317179816877569
  @DF-RHF Final Energy:  -387.13189289719463
    Total Energy =                       -387.1318928971952573
  Basis Set: 6-31G*
  Basis Set:
  @DF-RHF Final Energy:  -387.13199221544778
    Total Energy =                       -387.1319922154475535
  Basis Set: 6-31G*
  Basis Set:
  Basis Set: 6-31G*
  Basis Set:
  @DF-RHF Final Energy:  -387.13199099798095
    Total Energy =                       -387.1319909979806653
  Basis Set: 6-31G*
  Basis Set:
  Basis Set: 6-31G*
  Basis Set:
  @DF-RHF Final Energy:  -387.13199372835766
    Total Energy =                       -387.1319937283573154
  Basis Set: 6-31G*
  Basis Set:
  Charge       = 0
  Multiplicity = 1
  Basis Set: 6-31G*
  Basis Set:

    Orbital Energies (a.u.)
    -----------------------

    Doubly Occupied:

       1A    -20.550433     2A    -11.326259     3A    -11.231715
       4A    -11.228317     5A    -11.217527     6A    -11.215973
       7A    -11.214182     8A    -11.212446     9A    -11.206673
      10A     -1.395719    11A     -1.092848    12A     -1.053916
      13A     -1.012703    14A     -0.968207    15A     -0.888489
      16A     -0.832456    17A     -0.770155    18A     -0.730920
      19A     -0.658937    20A     -0.650375    21A     -0.633010
      22A     -0.622778    23A     -0.597835    24A     -0.580374
      25A     -0.568420    26A     -0.562022    27A     -0.550222
      28A     -0.518308    29A     -0.502477    30A     -0.497626
      31A     -0.488780    32A     -0.480334    33A     -0.458346
      34A     -0.455081    35A     -0.445489    36A     -0.399822

  @DF-RHF Final Energy:  -387.13199368151305

   => Energetics <=

    Nuclear Repulsion Energy =            446.1077223861187235
    One-Electron Energy =               -1408.8410792553063402
    Two-Electron Energy =                 575.6013631876745649
    DFT Exchange-Correlation Energy =       0.0000000000000000
    Empirical Dispersion Energy =           0.0000000000000000
    PCM Polarization Energy =               0.0000000000000000
    EFP Energy =                            0.0000000000000000
    Total Energy =                       -387.1319936815131086
    Molecular point group: c1
  Basis Set: 6-31G*
  Basis Set:

  -Total Gradient:
     Atom            X                  Y                   Z
    ------   -----------------  -----------------  -----------------
       1        0.000001783958    -0.000002026350     0.000018471836
       2       -0.000001942022     0.000002845869    -0.000054785973
       3       -0.000004217448    -0.000005674267     0.000006942762
       4       -0.000000228109     0.000000742828     0.000009396467
       5       -0.000007739366     0.000005968959     0.000015352069
       6        0.000005271270    -0.000000836307    -0.000001010634
       7       -0.000002834823    -0.000001014695    -0.000001663843
       8       -0.003188026862    -0.004311512410     0.004740993530
       9       -0.000012554003     0.000004304607     0.000004396269
      10        0.000004268369    -0.000005428396     0.000001803839
      11       -0.000503002262    -0.001460287434    -0.007028757718
      12        0.002795144958     0.003883489506    -0.002956175449
      13       -0.000005196337     0.000007663423     0.000006015236
      14       -0.000006508137    -0.000013787697     0.000022766867
      15        0.000923789708     0.001891644754     0.005220920991
      16       -0.000009379491    -0.000002062198     0.000002284365
      17        0.000001840343     0.000004628831    -0.000008887576
      18       -0.000008225795     0.000002811211     0.000001158326
      19        0.000017290707    -0.000004661201    -0.000002984362
      20        0.000003463801     0.000000655084    -0.000000404637
      21        0.000000751472     0.000002438876    -0.000001261332
      22       -0.000003989040     0.000000327486    -0.000001386840
      23       -0.000002714100     0.000000803445     0.000002878670
      24        0.000000570140    -0.000000302518     0.000001499632
      25        0.000002383070    -0.000000731407     0.000002437505

  **** Optimization is complete! (in 10 steps) ****
    Final optimized geometry and variables:
    Molecular point group: c1

    Geometry (in Angstrom), charge = 0, multiplicity = 1:

    O            2.642314264076     0.824361440445    -0.171354582518
    C            2.574436993609    -0.366155923361    -0.201723513040
    C            1.246649466460    -1.102339536492    -0.189380575968
    C            3.820533209275    -1.226166579398    -0.254981245448
    C            0.028099378301    -0.184969809780    -0.135814362932
    H            1.211816361800    -1.740732594929    -1.071169163987
    H            1.251969250420    -1.784574331369     0.659898750914
    C           -1.283524362140    -0.978783674125    -0.113495639423
    H            0.046311086049     0.478389189151    -0.995389070768
    H            0.108821825970     0.450691040602     0.737685121547
    C           -2.563049018499    -0.126690469096    -0.198342738455
    H           -1.265565899079    -1.645426575947    -0.973318761315
    H           -1.312591504938    -1.599621687464     0.778885282640
    C           -2.553521653557     1.160983821050     0.634476075470
    H           -3.393143389344    -0.727835559236     0.166170552965
    H           -2.772270628818     0.122853998038    -1.235569039418
    C           -3.902802880620     1.878982248298     0.604592711410
    H           -2.295719404394     0.924409516318     1.665164309721
    H           -1.784889423828     1.837471090383     0.273959314250
    H           -4.692865246652     1.250544028273     1.006202131514
    H           -3.875158244765     2.791590380222     1.191888630299
    H           -4.180513871397     2.148262813164    -0.410781368452
    H            3.815039625087    -1.846358508514    -1.146583034725
    H            4.698929392968    -0.595905026793    -0.259216266845
    H            3.857194884747    -1.893352911971     0.601266299500

  Mulliken Charges: (a.u.)
   Center  Symbol    Alpha    Beta     Spin     Total
       1     O     4.26135  4.26135  0.00000 -0.52269
       2     C     2.73551  2.73551  0.00000  0.52898
       3     C     3.21036  3.21036  0.00000 -0.42072
       4     C     3.28671  3.28671  0.00000 -0.57343
       5     C     3.15218  3.15218  0.00000 -0.30437
       6     H     0.41034  0.41034  0.00000  0.17933
       7     H     0.41016  0.41016  0.00000  0.17967
       8     C     3.15476  3.15476  0.00000 -0.30952
       9     H     0.41306  0.41306  0.00000  0.17388
      10     H     0.40914  0.40914  0.00000  0.18172
      11     C     3.15098  3.15098  0.00000 -0.30195
      12     H     0.42363  0.42363  0.00000  0.15274
      13     H     0.42347  0.42347  0.00000  0.15305
      14     C     3.15680  3.15680  0.00000 -0.31360
      15     H     0.42246  0.42246  0.00000  0.15508
      16     H     0.42219  0.42219  0.00000  0.15562
      17     C     3.23915  3.23915  0.00000 -0.47829
      18     H     0.42392  0.42392  0.00000  0.15216
      19     H     0.41642  0.41642  0.00000  0.16715
      20     H     0.42280  0.42280  0.00000  0.15441
      21     H     0.41872  0.41872  0.00000  0.16256
      22     H     0.42193  0.42193  0.00000  0.15613
      23     H     0.40872  0.40872  0.00000  0.18256
      24     H     0.39649  0.39649  0.00000  0.20701
      25     H     0.40873  0.40873  0.00000  0.18253

   Total alpha = 36.00000, Total beta = 36.00000, Total charge = -0.00000
