  ==> Input File <==

--------------------------------------------------------------------------
set {
	reference rhf
	basis 6-31G*
}

set_num_threads( 4 )
memory 2 gb

molecule MOL {
0 1

H	 1.807615	 -3.057987	 -1.500355
O	 2.623847	 -2.713899	 -1.832680
C	 2.392867	 -2.025790	 -3.035680
C	 1.692344	 -0.686193	 -2.837000
H	 3.368955	 -1.866133	 -3.475493
H	 1.824668	 -2.647080	 -3.727004
C	 0.278850	 -0.802382	 -2.261324
H	 2.303801	 -0.071118	 -2.181890
H	 1.650212	 -0.179546	 -3.799757
C	 -0.417363	 0.554609	 -2.124653
H	 0.327821	 -1.284611	 -1.288996
H	 -0.321118	 -1.448672	 -2.902174
C	 -1.867748	 0.487535	 -1.632488
H	 0.161129	 1.187872	 -1.454449
H	 -0.405234	 1.048957	 -3.093763
C	 -2.037799	 -0.007733	 -0.193645
H	 -2.301294	 1.482433	 -1.710140
H	 -2.445834	 -0.146576	 -2.302978
C	 -3.489788	 0.042957	 0.286558
H	 -1.419914	 0.596260	 0.469320
H	 -1.673729	 -1.028347	 -0.103628
C	 -4.216917	 1.317354	 -0.141063
H	 -4.025645	 -0.823308	 -0.095450
H	 -3.513059	 -0.038752	 1.371301
H	 -4.239342	 1.411634	 -1.223113
H	 -5.243387	 1.322503	 0.212445
H	 -3.726170	 2.201406	 0.256408

	symmetry c1
}
set optking {
	frozen_dihedral = ("
		20 16 19 22
	")
}

ee = optimize('scf')
oeprop('DIPOLE', 'QUADRUPOLE', 'MULLIKEN_CHARGES')
f=open( 'psi4out.xyz', 'w' )
f.write( "27  " )
f.write( str(ee) + "\n" )
f.write( MOL.save_string_xyz() )
f.close()
--------------------------------------------------------------------------

    Molecular point group: c1
  Charge       = 0
  Multiplicity = 1
  Basis Set: 6-31G*
  Basis Set:
  @DF-RHF Final Energy:  -388.27558873961044
    Total Energy =                       -388.2755887396100434
    Molecular point group: c1
  Basis Set: 6-31G*
  Basis Set:
  Basis Set: 6-31G*
  Basis Set:
  @DF-RHF Final Energy:  -388.27628317767176
    Total Energy =                       -388.2762831776715302
  Basis Set: 6-31G*
  Basis Set:
  Basis Set: 6-31G*
  Basis Set:
  @DF-RHF Final Energy:  -388.27794607412272
    Total Energy =                       -388.2779460741230650
  Basis Set: 6-31G*
  Basis Set:
  Basis Set: 6-31G*
  Basis Set:
  @DF-RHF Final Energy:  -388.27812657207204
    Total Energy =                       -388.2781265720718693
  Basis Set: 6-31G*
  Basis Set:
  Basis Set: 6-31G*
  Basis Set:
  @DF-RHF Final Energy:  -388.27813704809148
    Total Energy =                       -388.2781370480919350
  Basis Set: 6-31G*
  Basis Set:
  Basis Set: 6-31G*
  Basis Set:
  @DF-RHF Final Energy:  -388.27813845096637
    Total Energy =                       -388.2781384509663667
  Basis Set: 6-31G*
  Basis Set:
  Basis Set: 6-31G*
  Basis Set:
  @DF-RHF Final Energy:  -388.27814262455735
    Total Energy =                       -388.2781426245575176
  Basis Set: 6-31G*
  Basis Set:
  Charge       = 0
  Multiplicity = 1
  Basis Set: 6-31G*
  Basis Set:

    Orbital Energies (a.u.)
    -----------------------

    Doubly Occupied:

       1A    -20.552346     2A    -11.267083     3A    -11.219792
       4A    -11.217488     5A    -11.216679     6A    -11.215639
       7A    -11.215250     8A    -11.214438     9A    -11.208760
      10A     -1.359100    11A     -1.094844    12A     -1.060372
      13A     -1.009254    14A     -0.946425    15A     -0.894958
      16A     -0.829538    17A     -0.797658    18A     -0.767678
      19A     -0.693759    20A     -0.645991    21A     -0.635378
      22A     -0.616028    23A     -0.608222    24A     -0.587582
      25A     -0.579846    26A     -0.554692    27A     -0.537878
      28A     -0.527574    29A     -0.506269    30A     -0.499406
      31A     -0.485827    32A     -0.475255    33A     -0.468113
      34A     -0.454516    35A     -0.448458    36A     -0.442421
      37A     -0.423336

  @DF-RHF Final Energy:  -388.27814304381764

   => Energetics <=

    Nuclear Repulsion Energy =            462.0588147729737329
    One-Electron Energy =               -1442.1182066806593411
    Two-Electron Energy =                 591.7812488638672903
    DFT Exchange-Correlation Energy =       0.0000000000000000
    Empirical Dispersion Energy =           0.0000000000000000
    PCM Polarization Energy =               0.0000000000000000
    EFP Energy =                            0.0000000000000000
    Total Energy =                       -388.2781430438183179
    Molecular point group: c1
  Basis Set: 6-31G*
  Basis Set:

  -Total Gradient:
     Atom            X                  Y                   Z
    ------   -----------------  -----------------  -----------------
       1       -0.000022147148     0.000010384932     0.000007406790
       2       -0.000011149253     0.000000569169     0.000004843846
       3        0.000025475172     0.000023787577     0.000025458138
       4        0.000009248899    -0.000020891938     0.000003502590
       5        0.000002175239     0.000004653617    -0.000001529046
       6       -0.000003598326     0.000009994649     0.000000459374
       7       -0.000002097208    -0.000006046424    -0.000002724648
       8        0.000002668683     0.000013761067    -0.000014010079
       9       -0.000001440717    -0.000020327796    -0.000012598395
      10        0.000017288125     0.000032386275     0.000013989848
      11        0.000006154888    -0.000035920393    -0.000012608285
      12       -0.000014785607     0.000006516109    -0.000028406226
      13        0.000058812769    -0.000007385683    -0.000011877614
      14        0.000016322667     0.000023121501    -0.000015738356
      15       -0.000000570659    -0.000018172058     0.000001334409
      16       -0.001741577893     0.003772877620    -0.004468871257
      17        0.000033280359    -0.000022936608     0.000012151281
      18       -0.000003918195     0.000004731316    -0.000002492867
      19        0.001471225445     0.001508644356     0.004748934985
      20        0.001100149903    -0.003615971707     0.002604979201
      21        0.000001517653    -0.000004874118    -0.000023165224
      22       -0.000894740014    -0.001658317898    -0.002902228366
      23        0.000006663124     0.000035969709    -0.000010556099
      24       -0.000036910696     0.000001815746     0.000039077571
      25       -0.000051537778    -0.000008937570     0.000032801510
      26       -0.000005038668     0.000003279382     0.000024514024
      27        0.000038529226    -0.000032710825    -0.000012647105

  **** Optimization is complete! (in 8 steps) ****
    Final optimized geometry and variables:
    Molecular point group: c1

    Geometry (in Angstrom), charge = 0, multiplicity = 1:

    H            2.233945200538    -2.651948150152     0.011955163377
    O            3.069961096956    -2.336506876618    -0.298949667992
    C            2.891559046607    -1.625788533148    -1.497725710026
    C            2.241893769796    -0.261237834857    -1.296324103406
    H            3.882113712724    -1.500855344323    -1.915857414751
    H            2.313013171610    -2.215432263219    -2.207913580102
    C            0.814618957354    -0.326894903422    -0.747197756118
    H            2.865331810562     0.321635487156    -0.623328530575
    H            2.237863357005     0.256991277098    -2.253814147682
    C            0.173579447728     1.056370363446    -0.602437925691
    H            0.826925319212    -0.826794537294     0.217083409117
    H            0.199887621727    -0.937062608134    -1.409065564689
    C           -1.284142043649     1.049607723926    -0.124130375645
    H            0.772228465598     1.660315910436     0.077150741488
    H            0.215401582820     1.556664633355    -1.567600770550
    C           -1.468844815524     0.607193816688     1.329221706666
    H           -1.682098610830     2.052327104869    -0.247319528367
    H           -1.873250095867     0.406601190400    -0.777229971254
    C           -2.925044894381     0.512039462762     1.814523967923
    H           -0.906608055944     1.261545028875     1.993819840593
    H           -1.022093686881    -0.374519680532     1.465227448112
    C           -3.828283666034     1.686020257086     1.431289066254
    H           -3.367448854947    -0.399085024540     1.416291833574
    H           -2.921080838599     0.396381350579     2.894950775218
    H           -3.979843761743     1.744000518305     0.359229854426
    H           -4.805022937546     1.580172832636     1.893415355462
    H           -3.411157065367     2.634709693921     1.759550807086

  Mulliken Charges: (a.u.)
   Center  Symbol    Alpha    Beta     Spin     Total
       1     H     0.27986  0.27986  0.00000  0.44027
       2     O     4.37092  4.37092  0.00000 -0.74185
       3     C     2.99741  2.99741  0.00000  0.00518
       4     C     3.16088  3.16088  0.00000 -0.32176
       5     H     0.41442  0.41442  0.00000  0.17116
       6     H     0.43203  0.43203  0.00000  0.13593
       7     C     3.16314  3.16314  0.00000 -0.32628
       8     H     0.41496  0.41496  0.00000  0.17008
       9     H     0.42434  0.42434  0.00000  0.15131
      10     C     3.15225  3.15225  0.00000 -0.30449
      11     H     0.42318  0.42318  0.00000  0.15363
      12     H     0.42539  0.42539  0.00000  0.14922
      13     C     3.15625  3.15625  0.00000 -0.31250
      14     H     0.42143  0.42143  0.00000  0.15714
      15     H     0.42136  0.42136  0.00000  0.15728
      16     C     3.15482  3.15482  0.00000 -0.30964
      17     H     0.41778  0.41778  0.00000  0.16444
      18     H     0.42489  0.42489  0.00000  0.15023
      19     C     3.15097  3.15097  0.00000 -0.30195
      20     H     0.42321  0.42321  0.00000  0.15358
      21     H     0.42246  0.42246  0.00000  0.15507
      22     C     3.24282  3.24282  0.00000 -0.48563
      23     H     0.42400  0.42400  0.00000  0.15200
      24     H     0.42041  0.42041  0.00000  0.15919
      25     H     0.41931  0.41931  0.00000  0.16138
      26     H     0.41918  0.41918  0.00000  0.16164
      27     H     0.42232  0.42232  0.00000  0.15536

   Total alpha = 37.00000, Total beta = 37.00000, Total charge = -0.00000
