  ==> Input File <==

--------------------------------------------------------------------------
set {
	reference rhf
	basis 6-31G*
}

set_num_threads( 1 )
memory 2 gb

molecule MOL {
0 1

H	 -0.000158	 1.970498	 0.756846
O	 -0.000074	 1.880206	 -0.189275
C	 -0.000015	 0.544847	 -0.545111
C	 -1.278788	 -0.123820	 -0.051541
C	 1.278802	 -0.123718	 -0.051505
H	 -0.000001	 0.490777	 -1.623619
F	 -2.173760	 0.795344	 0.241220
F	 -1.800934	 -0.928429	 -0.952833
F	 -1.048502	 -0.827188	 1.045656
F	 2.323327	 0.466644	 -0.591854
F	 1.326242	 -1.401483	 -0.363667
F	 1.388946	 -0.015632	 1.262939

	symmetry c1
}
set optking {
	frozen_dihedral = ("
		6 3 2 1
	")
}

ee = energy('scf')
oeprop('DIPOLE', 'QUADRUPOLE', 'MULLIKEN_CHARGES')
f=open( 'psi4out.xyz', 'w' )
f.write( "12  " )
f.write( str(ee) + "\n" )
f.write( MOL.save_string_xyz() )
f.close()
--------------------------------------------------------------------------

    Molecular point group: c1

    Geometry (in Angstrom), charge = 0, multiplicity = 1:

       Center              X                  Y                   Z               Mass
    ------------   -----------------  -----------------  -----------------  -----------------
           H         -0.001882279609     1.971564112665     0.753823054972     1.007825032070
           O         -0.001798279609     1.881272112665    -0.192297945028    15.994914619560
           C         -0.001739279609     0.545913112665    -0.548133945028    12.000000000000
           C         -1.280512279609    -0.122753887335    -0.054563945028    12.000000000000
           C          1.277077720391    -0.122651887335    -0.054527945028    12.000000000000
           H         -0.001725279609     0.491843112665    -1.626641945028     1.007825032070
           F         -2.175484279609     0.796410112665     0.238197054972    18.998403224000
           F         -1.802658279609    -0.927362887335    -0.955855945028    18.998403224000
           F         -1.050226279609    -0.826121887335     1.042633054972    18.998403224000
           F          2.321602720391     0.467710112665    -0.594876945028    18.998403224000
           F          1.324517720391    -1.400416887335    -0.366689945028    18.998403224000
           F          1.387221720391    -0.014565887335     1.259916054972    18.998403224000

  Charge       = 0
  Multiplicity = 1
  Basis Set: 6-31G*
  Basis Set:

    Orbital Energies (a.u.)
    -----------------------

    Doubly Occupied:

       1A    -26.363059     2A    -26.361680     3A    -26.360771
       4A    -26.359298     5A    -26.358500     6A    -26.357832
       7A    -20.614454     8A    -11.525759     9A    -11.525316
      10A    -11.347607    11A     -1.764626    12A     -1.758146
      13A     -1.660247    14A     -1.658892    15A     -1.657652
      16A     -1.653670    17A     -1.433805    18A     -1.101401
      19A     -0.996929    20A     -0.936811    21A     -0.865906
      22A     -0.861196    23A     -0.850755    24A     -0.845478
      25A     -0.834157    26A     -0.811595    27A     -0.736046
      28A     -0.729942    29A     -0.726623    30A     -0.721653
      31A     -0.687998    32A     -0.685170    33A     -0.683062
      34A     -0.677640    35A     -0.667813    36A     -0.660279
      37A     -0.657134    38A     -0.651309    39A     -0.614679
      40A     -0.548169    41A     -0.506883

  @DF-RHF Final Energy:  -786.27145268114873

   => Energetics <=

    Nuclear Repulsion Energy =            671.3436018224474537
    One-Electron Energy =               -2429.5899356251093195
    Two-Electron Energy =                 971.9748811215133628
    DFT Exchange-Correlation Energy =       0.0000000000000000
    Empirical Dispersion Energy =           0.0000000000000000
    PCM Polarization Energy =               0.0000000000000000
    EFP Energy =                            0.0000000000000000
    Total Energy =                       -786.2714526811485030

  Mulliken Charges: (a.u.)
   Center  Symbol    Alpha    Beta     Spin     Total
       1     H     0.26785  0.26785  0.00000  0.46430
       2     O     4.35913  4.35913  0.00000 -0.71826
       3     C     3.06439  3.06439  0.00000 -0.12878
       4     C     2.43736  2.43736  0.00000  1.12529
       5     C     2.43857  2.43857  0.00000  1.12287
       6     H     0.37304  0.37304  0.00000  0.25392
       7     F     4.67413  4.67413  0.00000 -0.34826
       8     F     4.67467  4.67467  0.00000 -0.34933
       9     F     4.67901  4.67901  0.00000 -0.35801
      10     F     4.67485  4.67485  0.00000 -0.34970
      11     F     4.67503  4.67503  0.00000 -0.35006
      12     F     4.68198  4.68198  0.00000 -0.36396

   Total alpha = 41.00000, Total beta = 41.00000, Total charge =  0.00000
