                              Psi4 1.0.54 Driver

  ==> Input File <==

--------------------------------------------------------------------------
set {
	reference rhf
	basis cc-pvtz
}

set_num_threads( 4 )
memory 2 gb

molecule MOL {
0 1

H	 3.234065	 0.155345	 -0.375815
N	 2.433987	 -0.362316	 -0.080024
C	 1.263552	 0.494993	 0.021953
H	 2.656476	 -0.768383	 0.804817
C	 -0.016533	 -0.325589	 -0.026925
H	 1.280915	 1.180773	 -0.818522
H	 1.263064	 1.106893	 0.925038
C	 -1.280353	 0.525521	 0.047747
H	 -0.016686	 -0.912532	 -0.939714
H	 -0.014099	 -1.037598	 0.796369
C	 -2.560681	 -0.301323	 -0.007747
H	 -1.279957	 1.241025	 -0.770189
H	 -1.270445	 1.110526	 0.963468
H	 -2.617064	 -0.872870	 -0.928010
H	 -3.439525	 0.331102	 0.043462
H	 -2.609427	 -1.002736	 0.818585

	symmetry c1
}
set optking {
	frozen_dihedral = ("
		1 2 3 6
	")
}

ee,wfn = optimize('scf', return_wfn=True)
oeprop( wfn, 'DIPOLE', 'QUADRUPOLE', 'MULLIKEN_CHARGES')
f=open( 'psi4out.xyz', 'w' )
f.write( "16  " )
f.write( str(ee) + "\n" )
f.write( MOL.save_string_xyz() )
f.close()
--------------------------------------------------------------------------

    Molecular point group: c1
  Charge       = 0
  Multiplicity = 1
  Basis Set: CC-PVTZ
  Basis Set:
  @DF-RHF Final Energy:  -212.39968154780109
    Total Energy =                       -212.3996815478010944
    Molecular point group: c1
  Basis Set: CC-PVTZ
  Basis Set:
  Basis Set: CC-PVTZ
  Basis Set:
  @DF-RHF Final Energy:  -212.39976293286045
    Total Energy =                       -212.3997629328605399
  Basis Set: CC-PVTZ
  Basis Set:
  Basis Set: CC-PVTZ
  Basis Set:
  @DF-RHF Final Energy:  -212.39977754514621
    Total Energy =                       -212.3997775451465486
  Basis Set: CC-PVTZ
  Basis Set:
  Charge       = 0
  Multiplicity = 1
  Basis Set: CC-PVTZ
  Basis Set:

    Orbital Energies (a.u.)
    -----------------------

    Doubly Occupied:

       1A    -15.525747     2A    -11.238312     3A    -11.211756
       4A    -11.205442     5A    -11.204982     6A     -1.177076
       7A     -1.059794     8A     -0.959274     9A     -0.843625
      10A     -0.790427    11A     -0.671453    12A     -0.632445
      13A     -0.608540    14A     -0.577458    15A     -0.560219
      16A     -0.528401    17A     -0.496117    18A     -0.470821
      19A     -0.466409    20A     -0.461493    21A     -0.381303

  @DF-RHF Final Energy:  -212.39977824242365

   => Energetics <=

    Nuclear Repulsion Energy =            186.4081862094634232
    One-Electron Energy =                -655.4737398934134944
    Two-Electron Energy =                 256.6657754415263071
    DFT Exchange-Correlation Energy =       0.0000000000000000
    Empirical Dispersion Energy =           0.0000000000000000
    PCM Polarization Energy =               0.0000000000000000
    EFP Energy =                            0.0000000000000000
    Total Energy =                       -212.3997782424237357
    Molecular point group: c1
  Basis Set: CC-PVTZ
  Basis Set:

  -Total Gradient:
     Atom            X                  Y                   Z
    ------   -----------------  -----------------  -----------------
       1       -0.000445323118    -0.000367280618    -0.001867246719
       2        0.000796011163     0.000660179282     0.002565182363
       3       -0.001320431306    -0.001458947096    -0.001629475512
       4       -0.000025651369     0.000011622985    -0.000018440845
       5        0.000042623573    -0.000007198696    -0.000012622798
       6        0.000908280272     0.001133365619     0.000967469657
       7       -0.000002022026     0.000004963910    -0.000005643191
       8        0.000032211568     0.000011779241     0.000004560765
       9        0.000017349079     0.000008792228    -0.000010550716
      10        0.000000399669     0.000011155482    -0.000010782075
      11       -0.000005831458    -0.000007209285     0.000018542978
      12        0.000009805248    -0.000009436228    -0.000002599340
      13       -0.000003478280     0.000008704009    -0.000003300694
      14        0.000004813131     0.000007300033     0.000000486284
      15       -0.000005445281    -0.000001090786     0.000004568162
      16       -0.000003310867    -0.000006700080    -0.000000148319

  **** Optimization is complete! (in 4 steps) ****
    Final optimized geometry and variables:
    Molecular point group: c1

    Geometry (in Angstrom), charge = 0, multiplicity = 1:

    H            3.241762788534     0.179561925740    -0.351532604633
    N            2.440175571015    -0.341492773554    -0.070543409703
    C            1.256994239000     0.500694406060     0.013402705960
    H            2.645685387772    -0.778495651442     0.802057184616
    C           -0.017322473152    -0.328895857095    -0.033603908545
    H            1.278020627551     1.188609091667    -0.824996032982
    H            1.247994097033     1.120824546330     0.910741835498
    C           -1.286971250174     0.512244785891     0.052104470759
    H           -0.016420513477    -0.911827309633    -0.948805420512
    H           -0.002704963758    -1.045144015522     0.785303473659
    C           -2.561462536973    -0.324046588169     0.003985406970
    H           -1.298317586111     1.230095201929    -0.763973225084
    H           -1.275106511579     1.095223523716     0.969214380222
    H           -2.621117400786    -0.892212603535    -0.918165948980
    H           -3.444921676831     0.301134589724     0.065370233086
    H           -2.597445884114    -1.029368678600     0.827620662015

  Mulliken Charges: (a.u.)
   Center  Symbol    Alpha    Beta     Spin     Total
       1     H     0.42737  0.42737  0.00000  0.14526
       2     N     3.69313  3.69313  0.00000 -0.38627
       3     C     3.03245  3.03245  0.00000 -0.06490
       4     H     0.42959  0.42959  0.00000  0.14083
       5     C     3.07299  3.07299  0.00000 -0.14599
       6     H     0.45675  0.45675  0.00000  0.08649
       7     H     0.46696  0.46696  0.00000  0.06609
       8     C     3.08920  3.08920  0.00000 -0.17840
       9     H     0.45111  0.45111  0.00000  0.09778
      10     H     0.46022  0.46022  0.00000  0.07956
      11     C     3.14934  3.14934  0.00000 -0.29868
      12     H     0.45559  0.45559  0.00000  0.08882
      13     H     0.45671  0.45671  0.00000  0.08657
      14     H     0.45426  0.45426  0.00000  0.09148
      15     H     0.44897  0.44897  0.00000  0.10205
      16     H     0.45535  0.45535  0.00000  0.08929

   Total alpha = 21.00000, Total beta = 21.00000, Total charge = -0.00000

*** Psi4 exiting successfully. Buy a developer a beer!
