  ==> Input File <==

--------------------------------------------------------------------------
set {
	reference rhf
	basis cc-pvtz
}

set_num_threads( 4 )
memory 2 gb

molecule MOL {
0 1

O	 0.749630	 1.305591	 -0.000460
C	 0.576499	 0.134701	 -0.003900
C	 -0.765656	 -0.550508	 -0.002152
O	 1.564816	 -0.744612	 -0.000631
C	 -1.945526	 0.411052	 0.000603
H	 -0.794329	 -1.203792	 -0.868145
H	 -0.791555	 -1.205429	 0.862701
C	 -2.643975	 0.458848	 1.355154
H	 -2.649302	 0.115255	 -0.767900
H	 -1.600330	 1.400894	 -0.272220
H	 -3.027147	 -0.516558	 1.636354
H	 -3.479604	 1.147885	 1.334800
H	 -1.966409	 0.784655	 2.137510
C	 2.884339	 -0.237801	 0.002883
H	 3.064150	 0.362814	 -0.876312
H	 3.533055	 -1.098529	 0.004958
H	 3.059365	 0.363432	 0.882614

	symmetry c1
}
set optking {
	frozen_dihedral = ("
		9 5 3 6
	")
}

ee = optimize('scf')
oeprop('DIPOLE', 'QUADRUPOLE', 'MULLIKEN_CHARGES')
f=open( 'psi4out.xyz', 'w' )
f.write( "17  " )
f.write( str(ee) + "\n" )
f.write( MOL.save_string_xyz() )
f.close()
--------------------------------------------------------------------------

    Molecular point group: c1
  Charge       = 0
  Multiplicity = 1
  Basis Set: CC-PVTZ
  Basis Set:
  @DF-RHF Final Energy:  -345.03100770787034
    Total Energy =                       -345.0310077078703443
    Molecular point group: c1
  Basis Set: CC-PVTZ
  Basis Set:
  Basis Set: CC-PVTZ
  Basis Set:
  @DF-RHF Final Energy:  -345.03121363952494
    Total Energy =                       -345.0312136395252764
  Basis Set: CC-PVTZ
  Basis Set:
  Basis Set: CC-PVTZ
  Basis Set:
  @DF-RHF Final Energy:  -345.03123816717874
    Total Energy =                       -345.0312381671789126
  Basis Set: CC-PVTZ
  Basis Set:
  Basis Set: CC-PVTZ
  Basis Set:
  @DF-RHF Final Energy:  -345.03137550161813
    Total Energy =                       -345.0313755016176742
  Basis Set: CC-PVTZ
  Basis Set:
  Basis Set: CC-PVTZ
  Basis Set:
  @DF-RHF Final Energy:  -345.03141907794850
    Total Energy =                       -345.0314190779482715
  Basis Set: CC-PVTZ
  Basis Set:
  Basis Set: CC-PVTZ
  Basis Set:
  @DF-RHF Final Energy:  -345.03142251569028
    Total Energy =                       -345.0314225156903376
  Basis Set: CC-PVTZ
  Basis Set:
  Basis Set: CC-PVTZ
  Basis Set:
  @DF-RHF Final Energy:  -345.03142621246809
    Total Energy =                       -345.0314262124682045
  Basis Set: CC-PVTZ
  Basis Set:
  Charge       = 0
  Multiplicity = 1
  Basis Set: CC-PVTZ
  Basis Set:

    Orbital Energies (a.u.)
    -----------------------

    Doubly Occupied:

       1A    -20.597142     2A    -20.535371     3A    -11.366014
       4A    -11.279106     5A    -11.234074     6A    -11.218636
       7A    -11.210060     8A     -1.473382     9A     -1.366906
      10A     -1.078702    11A     -1.002057    12A     -0.939448
      13A     -0.829718    14A     -0.768925    15A     -0.705452
      16A     -0.684919    17A     -0.676509    18A     -0.623784
      19A     -0.607563    20A     -0.571349    21A     -0.570260
      22A     -0.534403    23A     -0.526129    24A     -0.488477
      25A     -0.484346    26A     -0.477500    27A     -0.461632
      28A     -0.443647

  @DF-RHF Final Energy:  -345.03142699682621

   => Energetics <=

    Nuclear Repulsion Energy =            315.2225509033715980
    One-Electron Energy =               -1094.9969298048908968
    Two-Electron Energy =                 434.7429519046928590
    DFT Exchange-Correlation Energy =       0.0000000000000000
    Empirical Dispersion Energy =           0.0000000000000000
    PCM Polarization Energy =               0.0000000000000000
    EFP Energy =                            0.0000000000000000
    Total Energy =                       -345.0314269968264398
    Molecular point group: c1
  Basis Set: CC-PVTZ
  Basis Set:

  -Total Gradient:
     Atom            X                  Y                   Z
    ------   -----------------  -----------------  -----------------
       1       -0.000000772402    -0.000002611530    -0.000009446246
       2       -0.000012603482     0.000044742356     0.000026103818
       3        0.002284693560     0.002871212315    -0.002443404801
       4        0.000008553785    -0.000023336682    -0.000011416375
       5       -0.002053147927    -0.002606122372     0.002811956044
       6       -0.001541393682    -0.001978826024     0.001572563539
       7       -0.000003361130     0.000014858821    -0.000008430501
       8        0.000012092962    -0.000002061637    -0.000001761336
       9        0.001327309388     0.001692135481    -0.001953330967
      10        0.000006917416    -0.000008915254    -0.000000223007
      11       -0.000011451692     0.000001233502     0.000002847237
      12       -0.000001492336     0.000004360586     0.000005185991
      13       -0.000001918890    -0.000003071175     0.000008406958
      14       -0.000017422167    -0.000004148017    -0.000005028568
      15       -0.000001599810    -0.000001393155     0.000002469235
      16        0.000002291923    -0.000000619748     0.000000913721
      17        0.000003304483     0.000002562532     0.000002595257

  **** Optimization is complete! (in 8 steps) ****
    Final optimized geometry and variables:
    Molecular point group: c1

    Geometry (in Angstrom), charge = 0, multiplicity = 1:

    O            0.666931230104     1.189413697117    -0.107631698201
    C            0.488930293058     0.021907074195    -0.186857946814
    C           -0.852229483020    -0.668103213545    -0.214969257812
    O            1.475362333070    -0.856886984656    -0.251096489523
    C           -2.061697001336     0.274178414699    -0.210538127393
    H           -0.862193277270    -1.337061083048    -1.066664954852
    H           -0.868414966218    -1.326028214000     0.648507511765
    C           -2.753920634173     0.367035245820     1.144616033244
    H           -2.765150356340    -0.048512489742    -0.969320045030
    H           -1.733240117571     1.260260643898    -0.509183851006
    H           -3.133705102150    -0.598768916709     1.461728213068
    H           -3.589525143090     1.055869908939     1.107066531352
    H           -2.067195604489     0.721928013984     1.905379936398
    C            2.795962440778    -0.354472509830    -0.217621446098
    H            2.973478725683     0.307109885426    -1.052434045083
    H            3.442981538068    -1.214305815372    -0.280063950260
    H            2.976640451271     0.182036800651     0.702024675786

  Mulliken Charges: (a.u.)
   Center  Symbol    Alpha    Beta     Spin     Total
       1     O     4.19716  4.19716  0.00000 -0.39431
       2     C     2.80245  2.80245  0.00000  0.39510
       3     C     3.10625  3.10625  0.00000 -0.21251
       4     O     4.14705  4.14705  0.00000 -0.29409
       5     C     3.08899  3.08899  0.00000 -0.17798
       6     H     0.43211  0.43211  0.00000  0.13578
       7     H     0.44111  0.44111  0.00000  0.11777
       8     C     3.14810  3.14810  0.00000 -0.29619
       9     H     0.44942  0.44942  0.00000  0.10116
      10     H     0.44010  0.44010  0.00000  0.11979
      11     H     0.45723  0.45723  0.00000  0.08553
      12     H     0.44844  0.44844  0.00000  0.10312
      13     H     0.45127  0.45127  0.00000  0.09747
      14     C     3.03624  3.03624  0.00000 -0.07249
      15     H     0.45420  0.45420  0.00000  0.09160
      16     H     0.44542  0.44542  0.00000  0.10916
      17     H     0.45446  0.45446  0.00000  0.09108

   Total alpha = 28.00000, Total beta = 28.00000, Total charge = -0.00000
