                              Psi4 1.0.54 Driver

  ==> Input File <==

--------------------------------------------------------------------------
set {
	reference rhf
	basis cc-pvtz
}

set_num_threads( 4 )
memory 2 gb

molecule MOL {
0 1

H	 -4.024094	 -0.454727	 0.000004
C	 -2.962215	 -0.297920	 0.000004
C	 -2.454736	 0.988978	 0.000025
C	 -2.105837	 -1.382632	 -0.000016
H	 -3.120052	 1.830438	 0.000041
C	 -1.090106	 1.189676	 0.000026
H	 -2.500390	 -2.380229	 -0.000033
C	 -0.739175	 -1.183302	 -0.000016
H	 -0.680214	 2.179144	 0.000042
C	 -0.227341	 0.104540	 0.000006
H	 -0.073209	 -2.021168	 -0.000032
C	 1.238974	 0.374429	 0.000004
O	 1.964947	 -0.707471	 -0.210805
O	 1.711896	 1.447869	 0.171035
C	 3.369945	 -0.548582	 -0.228057
H	 3.665446	 0.131242	 -1.012847
H	 3.776183	 -1.529888	 -0.411351
H	 3.720740	 -0.169492	 0.719905

	symmetry c1
}
set optking {
	frozen_dihedral = ("
		13 12 10 6
	")
}

ee,wfn = optimize('scf', return_wfn=True)
oeprop( wfn, 'DIPOLE', 'QUADRUPOLE', 'MULLIKEN_CHARGES')
f=open( 'psi4out.xyz', 'w' )
f.write( "18  " )
f.write( str(ee) + "\n" )
f.write( MOL.save_string_xyz() )
f.close()
--------------------------------------------------------------------------

    Molecular point group: c1
  Charge       = 0
  Multiplicity = 1
  Basis Set: CC-PVTZ
  Basis Set:
  @DF-RHF Final Energy:  -457.50998080574908
    Total Energy =                       -457.5099808057491373
    Molecular point group: c1
  Basis Set: CC-PVTZ
  Basis Set:
  Basis Set: CC-PVTZ
  Basis Set:
  @DF-RHF Final Energy:  -457.50968159921979
    Total Energy =                       -457.5096815992199026
  Basis Set: CC-PVTZ
  Basis Set:
  Basis Set: CC-PVTZ
  Basis Set:
  @DF-RHF Final Energy:  -457.50999763824188
    Total Energy =                       -457.5099976382425666
  Basis Set: CC-PVTZ
  Basis Set:
  Basis Set: CC-PVTZ
  Basis Set:
  @DF-RHF Final Energy:  -457.51000510005031
    Total Energy =                       -457.5100051000505346
  Basis Set: CC-PVTZ
  Basis Set:
  Charge       = 0
  Multiplicity = 1
  Basis Set: CC-PVTZ
  Basis Set:

    Orbital Energies (a.u.)
    -----------------------

    Doubly Occupied:

       1A    -20.601113     2A    -20.534613     3A    -11.371776
       4A    -11.281292     5A    -11.245137     6A    -11.243413
       7A    -11.242763     8A    -11.240192     9A    -11.236182
      10A    -11.235428    11A     -1.477130    12A     -1.368562
      13A     -1.170896    14A     -1.051944    15A     -1.029149
      16A     -0.980579    17A     -0.863268    18A     -0.838669
      19A     -0.781354    20A     -0.744962    21A     -0.687882
      22A     -0.681870    23A     -0.676646    24A     -0.634063
      25A     -0.630299    26A     -0.601301    27A     -0.587906
      28A     -0.564489    29A     -0.532207    30A     -0.520312
      31A     -0.509703    32A     -0.502487    33A     -0.464108
      34A     -0.449531    35A     -0.350181    36A     -0.346361

  @DF-RHF Final Energy:  -457.51000523614931

   => Energetics <=

    Nuclear Repulsion Energy =            494.0278295876209427
    One-Electron Energy =               -1602.5201347000058831
    Two-Electron Energy =                 650.9822998762357429
    DFT Exchange-Correlation Energy =       0.0000000000000000
    Empirical Dispersion Energy =           0.0000000000000000
    PCM Polarization Energy =               0.0000000000000000
    EFP Energy =                            0.0000000000000000
    Total Energy =                       -457.5100052361491407
    Molecular point group: c1
  Basis Set: CC-PVTZ
  Basis Set:

  -Total Gradient:
     Atom            X                  Y                   Z
    ------   -----------------  -----------------  -----------------
       1        0.000001009376     0.000000254722    -0.000004548384
       2        0.000001727494     0.000001551312     0.000015497515
       3        0.000000022766    -0.000002194305    -0.000014016279
       4        0.000000318574    -0.000002724115     0.000006836274
       5       -0.000000288084    -0.000001075351     0.000005056761
       6       -0.000002394138    -0.000000008740    -0.001166429930
       7       -0.000001053394     0.000001575927    -0.000002227570
       8       -0.000001673738    -0.000009822250    -0.000023385284
       9        0.000001943645    -0.000004356060    -0.000004288810
      10        0.000015821002     0.000099780067     0.001275796085
      11       -0.000002694704     0.000004960062     0.000015079961
      12        0.000054367352    -0.000333966020     0.001055974405
      13       -0.000076476284     0.000238411536    -0.001176066608
      14       -0.000017680044     0.000014439839     0.000005557183
      15        0.000044120966     0.000001634290     0.000027957228
      16       -0.000013437819    -0.000003281623     0.000003361676
      17       -0.000006286228    -0.000001242602    -0.000004436599
      18        0.000002653261    -0.000003936687    -0.000015717625

  **** Optimization is complete! (in 5 steps) ****
    Final optimized geometry and variables:
    Molecular point group: c1

    Geometry (in Angstrom), charge = 0, multiplicity = 1:

    H           -4.026695863516    -0.427295048238     0.012915948377
    C           -2.963678697387    -0.278342191895     0.018889890762
    C           -2.446751869153     1.004834558521     0.021344090058
    C           -2.115201214826    -1.369249778541     0.022617309358
    H           -3.105894231709     1.851191650654     0.015614484862
    C           -1.080680044291     1.195620800510     0.032090137543
    H           -2.516892533316    -2.364025858546     0.020470963417
    C           -0.747030031696    -1.179837333525     0.025564457547
    H           -0.663845297931     2.182278584943     0.039051724660
    C           -0.226139628127     0.104119786187     0.035896041664
    H           -0.087063795673    -2.022627845125     0.021931703169
    C            1.242401248067     0.362744075423     0.036155469333
    O            1.959377989566    -0.725607596761    -0.170957757939
    O            1.723103894502     1.434939084995     0.192215207166
    C            3.365629501021    -0.579547990415    -0.182710500121
    H            3.670386918395     0.093823965487    -0.969572494598
    H            3.764204788553    -1.565161557337    -0.359775552385
    H            3.716352431452    -0.198807390817     0.764746771662

  Mulliken Charges: (a.u.)
   Center  Symbol    Alpha    Beta     Spin     Total
       1     H     0.42032  0.42032  0.00000  0.15936
       2     C     3.07020  3.07020  0.00000 -0.14039
       3     C     3.07504  3.07504  0.00000 -0.15008
       4     C     3.07455  3.07455  0.00000 -0.14910
       5     H     0.42042  0.42042  0.00000  0.15915
       6     C     3.07710  3.07710  0.00000 -0.15419
       7     H     0.42186  0.42186  0.00000  0.15627
       8     C     3.08249  3.08249  0.00000 -0.16497
       9     H     0.40708  0.40708  0.00000  0.18585
      10     C     3.00665  3.00665  0.00000 -0.01331
      11     H     0.41160  0.41160  0.00000  0.17681
      12     C     2.78687  2.78687  0.00000  0.42625
      13     O     4.14802  4.14802  0.00000 -0.29603
      14     O     4.21080  4.21080  0.00000 -0.42159
      15     C     3.03657  3.03657  0.00000 -0.07314
      16     H     0.45228  0.45228  0.00000  0.09544
      17     H     0.44515  0.44515  0.00000  0.10969
      18     H     0.45301  0.45301  0.00000  0.09398

   Total alpha = 36.00000, Total beta = 36.00000, Total charge = -0.00000

*** Psi4 exiting successfully. Buy a developer a beer!
