  ==> Input File <==

--------------------------------------------------------------------------
set {
	reference rhf
	basis 6-31G*
}

set_num_threads( 4 )
memory 2 gb

molecule MOL {
0 1

O	 -2.042549	 -1.228399	 -0.269030
C	 -1.653912	 -0.146171	 0.050137
C	 -0.332303	 0.024011	 0.778412
C	 -2.438579	 1.106236	 -0.272369
C	 0.557229	 -1.216331	 0.599097
H	 0.188874	 0.907675	 0.420788
H	 -0.552335	 0.163437	 1.831061
C	 1.888142	 -1.099075	 1.343377
H	 0.751756	 -1.379740	 -0.459458
H	 0.013085	 -2.086678	 0.953420
C	 2.770969	 -2.334867	 1.174137
H	 2.423700	 -0.220449	 0.990361
H	 1.693487	 -0.935335	 2.400669
H	 3.011430	 -2.505616	 0.128634
H	 2.274349	 -3.225108	 1.548681
H	 3.705766	 -2.224965	 1.714603
H	 -3.277823	 0.863061	 -0.908988
H	 -1.806773	 1.843019	 -0.759671
H	 -2.802853	 1.554979	 0.648059

	symmetry c1
}
set optking {
	frozen_dihedral = ("
		5 3 2 4
	")
}

ee = optimize('scf')
oeprop('DIPOLE', 'QUADRUPOLE', 'MULLIKEN_CHARGES')
f=open( 'psi4out.xyz', 'w' )
f.write( "19  " )
f.write( str(ee) + "\n" )
f.write( MOL.save_string_xyz() )
f.close()
--------------------------------------------------------------------------

    Molecular point group: c1
  Charge       = 0
  Multiplicity = 1
  Basis Set: 6-31G*
  Basis Set:
  @DF-RHF Final Energy:  -309.06557503598953
    Total Energy =                       -309.0655750359893545
    Molecular point group: c1
  Basis Set: 6-31G*
  Basis Set:
  Basis Set: 6-31G*
  Basis Set:
  @DF-RHF Final Energy:  -309.06509530239634
    Total Energy =                       -309.0650953023963439
  Basis Set: 6-31G*
  Basis Set:
  Basis Set: 6-31G*
  Basis Set:
  @DF-RHF Final Energy:  -309.06587303951022
    Total Energy =                       -309.0658730395103362
  Basis Set: 6-31G*
  Basis Set:
  Basis Set: 6-31G*
  Basis Set:
  @DF-RHF Final Energy:  -309.06662440250165
    Total Energy =                       -309.0666244025017022
  Basis Set: 6-31G*
  Basis Set:
  @DF-RHF Final Energy:  -309.06654597014790
    Total Energy =                       -309.0665459701476721
  Basis Set: 6-31G*
  Basis Set:
  @DF-RHF Final Energy:  -309.06676113643539
    Total Energy =                       -309.0667611364353888
  Basis Set: 6-31G*
  Basis Set:
  Basis Set: 6-31G*
  Basis Set:
  @DF-RHF Final Energy:  -309.06679474669329
    Total Energy =                       -309.0667947466934606
  Basis Set: 6-31G*
  Basis Set:
  Basis Set: 6-31G*
  Basis Set:
  @DF-RHF Final Energy:  -309.06679663460000
    Total Energy =                       -309.0667966346000526
  Basis Set: 6-31G*
  Basis Set:
  Charge       = 0
  Multiplicity = 1
  Basis Set: 6-31G*
  Basis Set:

    Orbital Energies (a.u.)
    -----------------------

    Doubly Occupied:

       1A    -20.549824     2A    -11.326511     3A    -11.232052
       4A    -11.228716     5A    -11.219817     6A    -11.218173
       7A    -11.210378     8A     -1.395503     9A     -1.086038
      10A     -1.029737    11A     -0.983767    12A     -0.886509
      13A     -0.801611    14A     -0.731005    15A     -0.657343
      16A     -0.649743    17A     -0.625284    18A     -0.611269
      19A     -0.581175    20A     -0.571290    21A     -0.554420
      22A     -0.530430    23A     -0.512268    24A     -0.487156
      25A     -0.475861    26A     -0.473306    27A     -0.468814
      28A     -0.399725

  @DF-RHF Final Energy:  -309.06679645880456

   => Energetics <=

    Nuclear Repulsion Energy =            300.7898684105767870
    One-Electron Energy =               -1014.7178832480990422
    Two-Electron Energy =                 404.8612183787174672
    DFT Exchange-Correlation Energy =       0.0000000000000000
    Empirical Dispersion Energy =           0.0000000000000000
    PCM Polarization Energy =               0.0000000000000000
    EFP Energy =                            0.0000000000000000
    Total Energy =                       -309.0667964588047880
    Molecular point group: c1
  Basis Set: 6-31G*
  Basis Set:

  -Total Gradient:
     Atom            X                  Y                   Z
    ------   -----------------  -----------------  -----------------
       1        0.000009671661     0.000039807046     0.000024939597
       2       -0.000483304402     0.000009706818     0.000765776167
       3       -0.000336111846    -0.000473700009     0.000654980751
       4        0.000448746602     0.000088505444    -0.000722806896
       5        0.000328249115     0.000321184199    -0.000683535072
       6       -0.000021936845     0.000009892716    -0.000011012464
       7        0.000006654016    -0.000020317224    -0.000011418949
       8        0.000006436812     0.000020581923    -0.000033206856
       9       -0.000031288317     0.000038218241     0.000006158160
      10        0.000018552498    -0.000022382045    -0.000012974333
      11        0.000005405007     0.000001995616     0.000046424626
      12        0.000026730794    -0.000013687929    -0.000005586082
      13        0.000020702083     0.000010997134    -0.000004755847
      14       -0.000004532646     0.000017233592     0.000008440816
      15       -0.000004949481     0.000002296311    -0.000009939539
      16        0.000012354754    -0.000020189093     0.000009984752
      17       -0.000001510071    -0.000006828397    -0.000009858985
      18        0.000003198534    -0.000013402838    -0.000004535874
      19       -0.000003068259     0.000010088496    -0.000007073973

  **** Optimization is complete! (in 9 steps) ****
    Final optimized geometry and variables:
    Molecular point group: c1

    Geometry (in Angstrom), charge = 0, multiplicity = 1:

    O           -1.915926220140    -0.499105754953    -0.824308475593
    C           -1.489264423234     0.552925155322    -0.458131411746
    C           -0.172535296629     0.673042624590     0.288980639209
    C           -2.236039952523     1.843031359021    -0.721611481598
    C            0.750992349501    -0.529813422087     0.111815689423
    H            0.324697151172     1.590309606197    -0.019149688135
    H           -0.418593716164     0.812775682833     1.341782813305
    C            2.054543577875    -0.391968538443     0.900002706745
    H            0.974160589226    -0.654521020176    -0.944539049537
    H            0.226551347309    -1.428407389219     0.417400787862
    C            2.979870251518    -1.595605356371     0.725695997513
    H            2.576006606308     0.510979804061     0.588434763425
    H            1.827130327118    -0.263038684546     1.956360995355
    H            3.255724420431    -1.729659510534    -0.316292579635
    H            2.498775773832    -2.510292827954     1.059495931430
    H            3.894628027453    -1.474249309563     1.297486097567
    H           -3.231712396771     1.625493569710    -1.082544579733
    H           -1.702980022790     2.420130415728    -1.472575487221
    H           -2.292179662171     2.453702721860     0.174381025760

  Mulliken Charges: (a.u.)
   Center  Symbol    Alpha    Beta     Spin     Total
       1     O     4.26204  4.26204  0.00000 -0.52408
       2     C     2.73430  2.73430  0.00000  0.53140
       3     C     3.21120  3.21120  0.00000 -0.42239
       4     C     3.28742  3.28742  0.00000 -0.57483
       5     C     3.14869  3.14869  0.00000 -0.29738
       6     H     0.41311  0.41311  0.00000  0.17378
       7     H     0.40604  0.40604  0.00000  0.18792
       8     C     3.15341  3.15341  0.00000 -0.30682
       9     H     0.41714  0.41714  0.00000  0.16573
      10     H     0.40706  0.40706  0.00000  0.18588
      11     C     3.23936  3.23936  0.00000 -0.47873
      12     H     0.42422  0.42422  0.00000  0.15156
      13     H     0.42334  0.42334  0.00000  0.15332
      14     H     0.42052  0.42052  0.00000  0.15897
      15     H     0.41952  0.41952  0.00000  0.16096
      16     H     0.41912  0.41912  0.00000  0.16177
      17     H     0.39688  0.39688  0.00000  0.20623
      18     H     0.40618  0.40618  0.00000  0.18764
      19     H     0.41046  0.41046  0.00000  0.17908

   Total alpha = 28.00000, Total beta = 28.00000, Total charge =  0.00000
