  ==> Input File <==

--------------------------------------------------------------------------
set {
	reference rhf
	basis 6-31G*
}

set_num_threads( 4 )
memory 2 gb

molecule MOL {
0 1

H	 -3.042581	 -0.665861	 0.004336
O	 -2.245037	 -1.176175	 0.000806
C	 -1.162163	 -0.365336	 0.001020
C	 -0.687945	 0.240773	 1.150402
C	 -0.528609	 -0.153001	 -1.217321
H	 -1.179579	 0.079288	 2.094960
C	 0.427723	 1.062020	 1.068243
H	 -0.925265	 -0.637849	 -2.090651
C	 0.584650	 0.665082	 -1.297976
H	 0.797766	 1.536846	 1.959673
C	 1.061674	 1.277121	 -0.138741
C	 1.288751	 0.877667	 -2.617881
H	 1.924029	 1.918510	 -0.186638
H	 1.553921	 1.920427	 -2.756184
H	 0.666296	 0.575338	 -3.451552
H	 2.206813	 0.298404	 -2.662183

	symmetry c1
}
set optking {
	frozen_dihedral = ("
		5 3 2 1
	")
}

ee = optimize('scf')
oeprop('DIPOLE', 'QUADRUPOLE', 'MULLIKEN_CHARGES')
f=open( 'psi4out.xyz', 'w' )
f.write( "16  " )
f.write( str(ee) + "\n" )
f.write( MOL.save_string_xyz() )
f.close()
--------------------------------------------------------------------------

    Molecular point group: c1
  Charge       = 0
  Multiplicity = 1
  Basis Set: 6-31G*
  Basis Set:
  @DF-RHF Final Energy:  -344.59003605690083
    Total Energy =                       -344.5900360569011127
    Molecular point group: c1
  Basis Set: 6-31G*
  Basis Set:
  Basis Set: 6-31G*
  Basis Set:
  @DF-RHF Final Energy:  -344.59070921223173
    Total Energy =                       -344.5907092122317863
  Basis Set: 6-31G*
  Basis Set:
  Basis Set: 6-31G*
  Basis Set:
  @DF-RHF Final Energy:  -344.59076511665285
    Total Energy =                       -344.5907651166529604
  Basis Set: 6-31G*
  Basis Set:
  Basis Set: 6-31G*
  Basis Set:
  @DF-RHF Final Energy:  -344.59077064188955
    Total Energy =                       -344.5907706418897192
  Basis Set: 6-31G*
  Basis Set:
  Basis Set: 6-31G*
  Basis Set:
  @DF-RHF Final Energy:  -344.59077193495375
    Total Energy =                       -344.5907719349537501
  Basis Set: 6-31G*
  Basis Set:
  Charge       = 0
  Multiplicity = 1
  Basis Set: 6-31G*
  Basis Set:

    Orbital Energies (a.u.)
    -----------------------

    Doubly Occupied:

       1A    -20.574631     2A    -11.286515     3A    -11.241098
       4A    -11.232790     5A    -11.221979     6A    -11.221892
       7A    -11.221790     8A    -11.220429     9A     -1.389411
      10A     -1.149907    11A     -1.043059    12A     -1.003279
      13A     -0.936260    14A     -0.826166    15A     -0.807396
      16A     -0.714746    17A     -0.675986    18A     -0.654024
      19A     -0.618078    20A     -0.588629    21A     -0.575177
      22A     -0.567692    23A     -0.550431    24A     -0.509753
      25A     -0.503013    26A     -0.479794    27A     -0.461578
      28A     -0.329101    29A     -0.318197

  @DF-RHF Final Energy:  -344.59077274984270

   => Energetics <=

    Nuclear Repulsion Energy =            344.9636820555585928
    One-Electron Energy =               -1151.2633080244563644
    Two-Electron Energy =                 461.7088532190550154
    DFT Exchange-Correlation Energy =       0.0000000000000000
    Empirical Dispersion Energy =           0.0000000000000000
    PCM Polarization Energy =               0.0000000000000000
    EFP Energy =                            0.0000000000000000
    Total Energy =                       -344.5907727498427562
    Molecular point group: c1
  Basis Set: 6-31G*
  Basis Set:

  -Total Gradient:
     Atom            X                  Y                   Z
    ------   -----------------  -----------------  -----------------
       1       -0.000041600990    -0.000036955460    -0.000740670736
       2       -0.000209528768     0.000218801627     0.000856047167
       3        0.000596992775    -0.000617514949     0.000026231604
       4        0.000032303398     0.000059131188     0.000037786285
       5       -0.000420190176     0.000377710566    -0.000171451861
       6       -0.000004788219    -0.000004842546    -0.000008216888
       7       -0.000089905142    -0.000066915788     0.000015037274
       8        0.000022659210     0.000015917576     0.000037928766
       9        0.000052364387     0.000078664089     0.000050272743
      10        0.000005081405     0.000006475879     0.000000831843
      11        0.000050482650    -0.000038091470    -0.000083004666
      12        0.000007995052    -0.000007182230    -0.000007564558
      13       -0.000009579794    -0.000002845288    -0.000005070858
      14       -0.000011910129     0.000011126030    -0.000007448308
      15        0.000008995581    -0.000010543519    -0.000007482851
      16        0.000010628761     0.000017064301     0.000006775048

  **** Optimization is complete! (in 6 steps) ****
    Final optimized geometry and variables:
    Molecular point group: c1

    Geometry (in Angstrom), charge = 0, multiplicity = 1:

    H           -2.846789683367    -0.957819912727     0.448447193517
    O           -2.045941570406    -1.464771347369     0.444064724522
    C           -0.959831770796    -0.629211004695     0.393664578072
    C           -0.487675501612    -0.029759084490     1.546693834339
    C           -0.325430116076    -0.419043992537    -0.820052591435
    H           -0.984232044141    -0.212763020961     2.482233065286
    C            0.626989845850     0.790319904163     1.470507004880
    H           -0.716142028973    -0.907249556862    -1.694747669882
    C            0.795253298540     0.396013327879    -0.901151044817
    H            1.001121224510     1.263019996632     2.361301050520
    C            1.262782020579     1.003561652603     0.260301435663
    C            1.506924829816     0.605265445592    -2.217928076872
    H            2.127614944040     1.642657022031     0.217001932567
    H            1.790495200990     1.644039988939    -2.350276616388
    H            0.881101760502     0.319200554776    -3.055183555616
    H            2.414639365047     0.010132963366    -2.265793144699

  Mulliken Charges: (a.u.)
   Center  Symbol    Alpha    Beta     Spin     Total
       1     H     0.27145  0.27145  0.00000  0.45711
       2     O     4.38916  4.38916  0.00000 -0.77833
       3     C     2.81424  2.81424  0.00000  0.37152
       4     C     3.12502  3.12502  0.00000 -0.25003
       5     C     3.13438  3.13438  0.00000 -0.26875
       6     H     0.39630  0.39630  0.00000  0.20741
       7     C     3.09343  3.09343  0.00000 -0.18685
       8     H     0.39634  0.39634  0.00000  0.20733
       9     C     2.97451  2.97451  0.00000  0.05097
      10     H     0.39862  0.39862  0.00000  0.20275
      11     C     3.11705  3.11705  0.00000 -0.23409
      12     C     3.25388  3.25388  0.00000 -0.50776
      13     H     0.40238  0.40238  0.00000  0.19524
      14     H     0.41231  0.41231  0.00000  0.17538
      15     H     0.41245  0.41245  0.00000  0.17510
      16     H     0.40849  0.40849  0.00000  0.18302

   Total alpha = 29.00000, Total beta = 29.00000, Total charge = -0.00000
