  ==> Input File <==

--------------------------------------------------------------------------
set {
	reference rhf
	basis 6-31G*
}

set_num_threads( 1 )
memory 2 gb

molecule MOL {
0 1

O	 -2.042549	 -1.228399	 -0.269030
C	 -1.653912	 -0.146171	 0.050137
C	 -0.332303	 0.024011	 0.778412
C	 -2.438579	 1.106236	 -0.272369
C	 -0.491851	 -0.262188	 2.279914
H	 0.423294	 -0.631976	 0.355166
H	 -0.008405	 1.049202	 0.637000
C	 0.811432	 -0.072198	 3.057338
H	 -0.850309	 -1.279876	 2.424491
H	 -1.257316	 0.396863	 2.678482
C	 0.653580	 -0.347450	 4.552171
H	 1.576107	 -0.728290	 2.647168
H	 1.169512	 0.944321	 2.912299
H	 0.328627	 -1.368398	 4.731404
H	 -0.081888	 0.316364	 4.997008
H	 1.591852	 -0.202093	 5.078046
H	 -3.277823	 0.863061	 -0.908988
H	 -1.806773	 1.843019	 -0.759671
H	 -2.802853	 1.554979	 0.648059

	symmetry c1
}
set optking {
	frozen_dihedral = ("
		11 8 5 9,
		9 5 3 2
	")
}

ee = energy('scf')
oeprop('DIPOLE', 'QUADRUPOLE', 'MULLIKEN_CHARGES')
f=open( 'psi4out.xyz', 'w' )
f.write( "19  " )
f.write( str(ee) + "\n" )
f.write( MOL.save_string_xyz() )
f.close()
--------------------------------------------------------------------------

    Molecular point group: c1

    Geometry (in Angstrom), charge = 0, multiplicity = 1:

       Center              X                  Y                   Z               Mass
    ------------   -----------------  -----------------  -----------------  -----------------
           O         -1.252000510417    -1.096091447627    -1.734564990699    15.994914619560
           C         -0.863363510417    -0.013863447627    -1.415397990699    12.000000000000
           C          0.458245489583     0.156318552373    -0.687122990699    12.000000000000
           C         -1.648030510417     1.238543552373    -1.737903990699    12.000000000000
           C          0.298697489583    -0.129880447627     0.814379009301    12.000000000000
           H          1.213842489583    -0.499668447627    -1.110368990699     1.007825032070
           H          0.782143489583     1.181509552373    -0.828534990699     1.007825032070
           C          1.601980489583     0.060109552373     1.591803009301    12.000000000000
           H         -0.059760510417    -1.147568447627     0.958956009301     1.007825032070
           H         -0.466767510417     0.529170552373     1.212947009301     1.007825032070
           C          1.444128489583    -0.215142447627     3.086636009301    12.000000000000
           H          2.366655489583    -0.595982447627     1.181633009301     1.007825032070
           H          1.960060489583     1.076628552373     1.446764009301     1.007825032070
           H          1.119175489583    -1.236090447627     3.265869009301     1.007825032070
           H          0.708660489583     0.448671552373     3.531473009301     1.007825032070
           H          2.382400489583    -0.069785447627     3.612511009301     1.007825032070
           H         -2.487274510417     0.995368552373    -2.374522990699     1.007825032070
           H         -1.016224510417     1.975326552373    -2.225205990699     1.007825032070
           H         -2.012304510417     1.687286552373    -0.817475990699     1.007825032070

  Charge       = 0
  Multiplicity = 1
  Basis Set: 6-31G*
  Basis Set:

    Orbital Energies (a.u.)
    -----------------------

    Doubly Occupied:

       1A    -20.547026     2A    -11.324227     3A    -11.230310
       4A    -11.229377     5A    -11.228844     6A    -11.224684
       7A    -11.214846     8A     -1.392727     9A     -1.091399
      10A     -1.029909    11A     -0.983820    12A     -0.889738
      13A     -0.806660    14A     -0.733327    15A     -0.662835
      16A     -0.645742    17A     -0.622879    18A     -0.612933
      19A     -0.582318    20A     -0.572773    21A     -0.553651
      22A     -0.537657    23A     -0.513177    24A     -0.499362
      25A     -0.482451    26A     -0.476038    27A     -0.466119
      28A     -0.396354

  @DF-RHF Final Energy:  -309.06398671194779

   => Energetics <=

    Nuclear Repulsion Energy =            301.1324282822961322
    One-Electron Energy =               -1015.2906149026953244
    Two-Electron Energy =                 405.0941999084514578
    DFT Exchange-Correlation Energy =       0.0000000000000000
    Empirical Dispersion Energy =           0.0000000000000000
    PCM Polarization Energy =               0.0000000000000000
    EFP Energy =                            0.0000000000000000
    Total Energy =                       -309.0639867119477344

  Mulliken Charges: (a.u.)
   Center  Symbol    Alpha    Beta     Spin     Total
       1     O     4.26167  4.26167  0.00000 -0.52333
       2     C     2.73865  2.73865  0.00000  0.52270
       3     C     3.19825  3.19825  0.00000 -0.39650
       4     C     3.28992  3.28992  0.00000 -0.57984
       5     C     3.16030  3.16030  0.00000 -0.32059
       6     H     0.40025  0.40025  0.00000  0.19950
       7     H     0.41864  0.41864  0.00000  0.16273
       8     C     3.15185  3.15185  0.00000 -0.30371
       9     H     0.40703  0.40703  0.00000  0.18595
      10     H     0.42120  0.42120  0.00000  0.15759
      11     C     3.24029  3.24029  0.00000 -0.48058
      12     H     0.41941  0.41941  0.00000  0.16117
      13     H     0.42244  0.42244  0.00000  0.15512
      14     H     0.41898  0.41898  0.00000  0.16205
      15     H     0.42110  0.42110  0.00000  0.15780
      16     H     0.41750  0.41750  0.00000  0.16500
      17     H     0.39621  0.39621  0.00000  0.20758
      18     H     0.40921  0.40921  0.00000  0.18159
      19     H     0.40711  0.40711  0.00000  0.18578

   Total alpha = 28.00000, Total beta = 28.00000, Total charge = -0.00000
