  ==> Input File <==

--------------------------------------------------------------------------
set {
	reference rhf
	basis 6-31G*
}

set_num_threads( 4 )
memory 2 gb

molecule MOL {
0 1

H	 -3.337926	 1.219173	 -1.063376
O	 -3.452007	 0.283848	 -0.965577
C	 -3.181085	 -0.079926	 0.364119
C	 -1.765924	 0.277073	 0.805136
H	 -3.327791	 -1.152017	 0.410903
H	 -3.905698	 0.375695	 1.036898
C	 -0.677594	 -0.417312	 -0.014550
H	 -1.637766	 1.358238	 0.744969
H	 -1.659588	 0.017670	 1.857098
C	 0.738335	 -0.034840	 0.421385
H	 -0.814977	 -0.178223	 -1.064632
H	 -0.802730	 -1.495410	 0.071702
C	 1.822265	 -0.738362	 -0.399735
H	 0.853533	 1.043532	 0.342250
H	 0.871597	 -0.279636	 1.474438
C	 3.258060	 -0.455774	 0.057203
H	 1.718003	 -0.459167	 -1.447053
H	 1.651028	 -1.811884	 -0.354513
C	 3.709143	 0.994797	 -0.123830
H	 3.930637	 -1.101717	 -0.501982
H	 3.365259	 -0.739518	 1.102287
H	 3.601178	 1.310569	 -1.158127
H	 4.753787	 1.110486	 0.148516
H	 3.135362	 1.678896	 0.492569

	symmetry c1
}
set optking {
	frozen_dihedral = ("
		1 2 3 5
	")
}

ee = optimize('scf')
oeprop('DIPOLE', 'QUADRUPOLE', 'MULLIKEN_CHARGES')
f=open( 'psi4out.xyz', 'w' )
f.write( "24  " )
f.write( str(ee) + "\n" )
f.write( MOL.save_string_xyz() )
f.close()
--------------------------------------------------------------------------

    Molecular point group: c1
  Charge       = 0
  Multiplicity = 1
  Basis Set: 6-31G*
  Basis Set:
  @DF-RHF Final Energy:  -349.24758181323870
    Total Energy =                       -349.2475818132389804
    Molecular point group: c1
  Basis Set: 6-31G*
  Basis Set:
  Basis Set: 6-31G*
  Basis Set:
  @DF-RHF Final Energy:  -349.24758329241160
    Total Energy =                       -349.2475832924114911
  Basis Set: 6-31G*
  Basis Set:
  Charge       = 0
  Multiplicity = 1
  Basis Set: 6-31G*
  Basis Set:

    Orbital Energies (a.u.)
    -----------------------

    Doubly Occupied:

       1A    -20.553446     2A    -11.267611     3A    -11.218358
       4A    -11.214441     5A    -11.213070     6A    -11.212148
       7A    -11.211944     8A    -11.207719     9A     -1.360118
      10A     -1.089143    11A     -1.048762    12A     -0.986019
      13A     -0.915440    14A     -0.851093    15A     -0.801571
      16A     -0.776758    17A     -0.676754    18A     -0.654295
      19A     -0.626182    20A     -0.620913    21A     -0.598238
      22A     -0.585145    23A     -0.557831    24A     -0.541162
      25A     -0.514741    26A     -0.510070    27A     -0.499522
      28A     -0.473054    29A     -0.467129    30A     -0.460920
      31A     -0.455333    32A     -0.451696    33A     -0.419346

  @DF-RHF Final Energy:  -349.24758334046129

   => Energetics <=

    Nuclear Repulsion Energy =            384.5219252227944366
    One-Electron Energy =               -1235.4590773621150674
    Two-Electron Energy =                 501.6895687988592272
    DFT Exchange-Correlation Energy =       0.0000000000000000
    Empirical Dispersion Energy =           0.0000000000000000
    PCM Polarization Energy =               0.0000000000000000
    EFP Energy =                            0.0000000000000000
    Total Energy =                       -349.2475833404614605
    Molecular point group: c1
  Basis Set: 6-31G*
  Basis Set:

  -Total Gradient:
     Atom            X                  Y                   Z
    ------   -----------------  -----------------  -----------------
       1        0.000566315185    -0.000050416587    -0.000135021478
       2       -0.000608003033     0.000018960407     0.000156220583
       3       -0.000567526354     0.000123835476     0.000163270363
       4       -0.000035428065    -0.000156393551     0.000054838305
       5        0.000594871825    -0.000069573604    -0.000173684339
       6       -0.000008659485     0.000056882871    -0.000002309197
       7        0.000047334357    -0.000022263274     0.000003411312
       8       -0.000013946461     0.000017873553     0.000011638692
       9        0.000007415533     0.000045564277    -0.000022267651
      10        0.000009679067     0.000028853395    -0.000035915819
      11        0.000026662825    -0.000005099025    -0.000006935005
      12       -0.000008829393     0.000022621920    -0.000027243629
      13       -0.000003399981    -0.000013450054     0.000015657587
      14        0.000007941114    -0.000003955640    -0.000011215167
      15       -0.000006460241     0.000016906249    -0.000006910731
      16        0.000010370294    -0.000012910002     0.000007942201
      17        0.000004415470     0.000003435050     0.000014246547
      18       -0.000017309174    -0.000008531291    -0.000010626021
      19       -0.000006564182     0.000004833602     0.000001814085
      20       -0.000010318129     0.000007987842     0.000002875266
      21        0.000007499646    -0.000004687580     0.000000208127
      22        0.000005243133    -0.000002009507     0.000003170966
      23       -0.000003505101    -0.000001161274     0.000000926541
      24        0.000002201153     0.000002696745    -0.000004091537

  **** Optimization is complete! (in 3 steps) ****
    Final optimized geometry and variables:
    Molecular point group: c1

    Geometry (in Angstrom), charge = 0, multiplicity = 1:

    H           -3.348199439300     1.216516066467    -1.061862305554
    O           -3.456857614515     0.280515453254    -0.963283285088
    C           -3.182089284247    -0.080726141840     0.366105251125
    C           -1.766273177551     0.278193753710     0.804086825509
    H           -3.322872512773    -1.153462563144     0.412827059920
    H           -3.905877376064     0.374300778240     1.040073429159
    C           -0.677705915302    -0.414721146896    -0.016894389698
    H           -1.639524176237     1.359792442693     0.744468181449
    H           -1.657718439653     0.019510057736     1.855844118825
    C            0.738142954006    -0.032060745661     0.419055166968
    H           -0.814675975970    -0.175492597713    -1.067103117878
    H           -0.802611936961    -1.492825006360     0.068259012213
    C            1.822168179231    -0.737235294253    -0.400512520696
    H            0.853932709488     1.046104522571     0.338612717332
    H            0.870596026585    -0.275540092381     1.472499031072
    C            3.257702024579    -0.456541110412     0.058344707843
    H            1.719743298023    -0.458099612842    -1.447982565381
    H            1.649293671365    -1.810531030868    -0.355446329834
    C            3.710882538585     0.993449604382    -0.121977411857
    H            3.930063559103    -1.103314297053    -0.500006508075
    H            3.363099788973    -0.740534982538     1.103543261845
    H            3.605296130041     1.309260688605    -1.156491516845
    H            4.755170056816     1.107802995570     0.152254475309
    H            3.136827265717     1.678328143078     0.493277441471

  Mulliken Charges: (a.u.)
   Center  Symbol    Alpha    Beta     Spin     Total
       1     H     0.28357  0.28357  0.00000  0.43286
       2     O     4.36854  4.36854  0.00000 -0.73708
       3     C     2.99417  2.99417  0.00000  0.01166
       4     C     3.17140  3.17140  0.00000 -0.34280
       5     H     0.41650  0.41650  0.00000  0.16699
       6     H     0.42801  0.42801  0.00000  0.14399
       7     C     3.15145  3.15145  0.00000 -0.30290
       8     H     0.42839  0.42839  0.00000  0.14323
       9     H     0.42169  0.42169  0.00000  0.15662
      10     C     3.15360  3.15360  0.00000 -0.30721
      11     H     0.41288  0.41288  0.00000  0.17423
      12     H     0.42322  0.42322  0.00000  0.15356
      13     C     3.15228  3.15228  0.00000 -0.30456
      14     H     0.42295  0.42295  0.00000  0.15411
      15     H     0.42530  0.42530  0.00000  0.14941
      16     C     3.15233  3.15233  0.00000 -0.30465
      17     H     0.42365  0.42365  0.00000  0.15270
      18     H     0.42198  0.42198  0.00000  0.15603
      19     C     3.24107  3.24107  0.00000 -0.48214
      20     H     0.42098  0.42098  0.00000  0.15804
      21     H     0.42372  0.42372  0.00000  0.15256
      22     H     0.42229  0.42229  0.00000  0.15542
      23     H     0.41945  0.41945  0.00000  0.16109
      24     H     0.42058  0.42058  0.00000  0.15884

   Total alpha = 33.00000, Total beta = 33.00000, Total charge =  0.00000
