  ==> Input File <==

--------------------------------------------------------------------------
set {
	reference rhf
	basis 6-31G*
}

set_num_threads( 4 )
memory 2 gb

molecule MOL {
0 1

O	 2.862325	 1.357334	 0.000267
C	 2.843464	 0.164689	 -0.000222
C	 1.546494	 -0.624492	 -0.000609
C	 4.124123	 -0.644674	 -0.000428
C	 0.291004	 0.242674	 0.000989
H	 1.557904	 -1.283758	 -0.867573
H	 1.558622	 -1.285963	 0.864672
C	 0.609479	 1.735574	 -0.096921
H	 -0.276879	 0.044758	 0.904575
H	 -0.347142	 -0.053724	 -0.825489
C	 -0.642021	 2.615047	 -0.094824
H	 1.252512	 2.025277	 0.732915
H	 1.180415	 1.926764	 -1.004416
C	 -0.331704	 4.109773	 -0.192355
H	 -1.213174	 2.425269	 0.812253
H	 -1.285177	 2.326915	 -0.924480
C	 -1.586826	 4.981750	 -0.189450
H	 0.310172	 4.399224	 0.637124
H	 0.237912	 4.300948	 -1.099464
H	 -2.161421	 4.838606	 0.721318
H	 -1.334497	 6.035409	 -0.258982
H	 -2.233655	 4.740455	 -1.028220
H	 4.165367	 -1.288615	 -0.874074
H	 4.976217	 0.020734	 -0.001915
H	 4.166763	 -1.286207	 0.874930

	symmetry c1
}
set optking {
	frozen_dihedral = ("
		9 5 3 6
	")
}

ee = optimize('scf')
oeprop('DIPOLE', 'QUADRUPOLE', 'MULLIKEN_CHARGES')
f=open( 'psi4out.xyz', 'w' )
f.write( "25  " )
f.write( str(ee) + "\n" )
f.write( MOL.save_string_xyz() )
f.close()
--------------------------------------------------------------------------

    Molecular point group: c1
  Charge       = 0
  Multiplicity = 1
  Basis Set: 6-31G*
  Basis Set:
  @DF-RHF Final Energy:  -387.09330848615917
    Total Energy =                       -387.0933084861588895
    Molecular point group: c1
  Basis Set: 6-31G*
  Basis Set:
  Basis Set: 6-31G*
  Basis Set:
  @DF-RHF Final Energy:  -387.11626996855404
    Total Energy =                       -387.1162699685544339
  Basis Set: 6-31G*
  Basis Set:
  Basis Set: 6-31G*
  Basis Set:
  @DF-RHF Final Energy:  -387.12105796080209
    Total Energy =                       -387.1210579608018634
  Basis Set: 6-31G*
  Basis Set:
  Basis Set: 6-31G*
  Basis Set:
  @DF-RHF Final Energy:  -387.12158134177014
    Total Energy =                       -387.1215813417700247
  Basis Set: 6-31G*
  Basis Set:
  @DF-RHF Final Energy:  -387.12278529780724
    Total Energy =                       -387.1227852978071269
  @DF-RHF Final Energy:  -387.12334168039951
    Total Energy =                       -387.1233416803993350
  @DF-RHF Final Energy:  -387.12347146351368
    Total Energy =                       -387.1234714635139653
  @DF-RHF Final Energy:  -387.12356373005127
    Total Energy =                       -387.1235637300512735
  @DF-RHF Final Energy:  -387.12382551852698
    Total Energy =                       -387.1238255185273829
  @DF-RHF Final Energy:  -387.12444701375102
    Total Energy =                       -387.1244470137512508
  @DF-RHF Final Energy:  -387.12269143460696
    Total Energy =                       -387.1226914346069634
  @DF-RHF Final Energy:  -387.12473741365477
    Total Energy =                       -387.1247374136542021
  @DF-RHF Final Energy:  -387.12414591135155
    Total Energy =                       -387.1241459113506380
  @DF-RHF Final Energy:  -387.12508469948631
    Total Energy =                       -387.1250846994856829
  @DF-RHF Final Energy:  -387.12518152739955
    Total Energy =                       -387.1251815273986949
  @DF-RHF Final Energy:  -387.12527054351204
    Total Energy =                       -387.1252705435119879
  @DF-RHF Final Energy:  -387.12529505951625
    Total Energy =                       -387.1252950595156790
  @DF-RHF Final Energy:  -387.12535501663484
    Total Energy =                       -387.1253550166347850
  @DF-RHF Final Energy:  -387.12551397836279
    Total Energy =                       -387.1255139783636423
  @DF-RHF Final Energy:  -387.12562834505167
    Total Energy =                       -387.1256283450511546
  @DF-RHF Final Energy:  -387.12567453116185
    Total Energy =                       -387.1256745311616214
  Basis Set: 6-31G*
  Basis Set:
  @DF-RHF Final Energy:  -387.12569137527578
    Total Energy =                       -387.1256913752758919
  Basis Set: 6-31G*
  Basis Set:
  Basis Set: 6-31G*
  Basis Set:
  @DF-RHF Final Energy:  -387.12570099233392
    Total Energy =                       -387.1257009923340320
  Basis Set: 6-31G*
  Basis Set:
  Basis Set: 6-31G*
  Basis Set:
  @DF-RHF Final Energy:  -387.12570264298768
    Total Energy =                       -387.1257026429867665
  Basis Set: 6-31G*
  Basis Set:
  Charge       = 0
  Multiplicity = 1
  Basis Set: 6-31G*
  Basis Set:

    Orbital Energies (a.u.)
    -----------------------

    Doubly Occupied:

       1A    -20.546961     2A    -11.325055     3A    -11.229842
       4A    -11.229324     5A    -11.227748     6A    -11.217627
       7A    -11.216090     8A    -11.215460     9A    -11.208950
      10A     -1.393162    11A     -1.093976    12A     -1.054527
      13A     -1.010947    14A     -0.970190    15A     -0.893615
      16A     -0.821168    17A     -0.794006    18A     -0.723690
      19A     -0.663281    20A     -0.642188    21A     -0.635034
      22A     -0.616262    23A     -0.603141    24A     -0.584061
      25A     -0.565797    26A     -0.561159    27A     -0.540071
      28A     -0.538634    29A     -0.511369    30A     -0.498450
      31A     -0.483670    32A     -0.471351    33A     -0.466705
      34A     -0.462022    35A     -0.444355    36A     -0.396956

  @DF-RHF Final Energy:  -387.12570293374796

   => Energetics <=

    Nuclear Repulsion Energy =            451.5855748476496387
    One-Electron Energy =               -1419.7088683309316366
    Two-Electron Energy =                 580.9975905495339248
    DFT Exchange-Correlation Energy =       0.0000000000000000
    Empirical Dispersion Energy =           0.0000000000000000
    PCM Polarization Energy =               0.0000000000000000
    EFP Energy =                            0.0000000000000000
    Total Energy =                       -387.1257029337480162
    Molecular point group: c1
  Basis Set: 6-31G*
  Basis Set:

  -Total Gradient:
     Atom            X                  Y                   Z
    ------   -----------------  -----------------  -----------------
       1       -0.000008841132    -0.000007160031    -0.000011257367
       2        0.000000789594     0.000020062823     0.000022445355
       3        0.000846568208     0.000824502976    -0.001088871719
       4       -0.000011103164     0.000017628610    -0.000029340851
       5        0.000692890199     0.000992582224     0.000952564315
       6       -0.000816499952    -0.000844817983     0.000758213516
       7        0.000001962126    -0.000002976189     0.000013337696
       8        0.000032239241     0.000000068015    -0.000021231130
       9       -0.000727486454    -0.000998021196    -0.000629833231
      10        0.000000395444     0.000015430114    -0.000003016216
      11       -0.000002250106     0.000005605971    -0.000002898759
      12        0.000002088470    -0.000004695526     0.000011464634
      13       -0.000012975620    -0.000000998828     0.000006008180
      14       -0.000006420122    -0.000006132895    -0.000001254060
      15        0.000001039881     0.000004248234    -0.000000240108
      16       -0.000003972648     0.000002379125     0.000000896955
      17        0.000001123740     0.000004493943     0.000000056646
      18       -0.000001240782     0.000000339162    -0.000000277930
      19       -0.000000932187    -0.000001164104     0.000001321050
      20       -0.000000101281    -0.000000224668    -0.000001133990
      21       -0.000002714417     0.000003001652     0.000000232606
      22        0.000002864760    -0.000000471678     0.000001750789
      23        0.000005901547    -0.000009612544     0.000014740139
      24       -0.000004218377    -0.000004766923     0.000004378618
      25        0.000010893031    -0.000009300287     0.000001944862

  **** Optimization is complete! (in 25 steps) ****
    Final optimized geometry and variables:
    Molecular point group: c1

    Geometry (in Angstrom), charge = 0, multiplicity = 1:

    O            2.110408512304    -1.023886084119     1.451301773616
    C            1.763482135714    -1.553638516565     0.439610988939
    C            0.392038878689    -2.201762793200     0.324386966934
    C            2.675496493335    -1.628194680937    -0.765062386321
    C           -0.799770916257    -1.212471467646     0.141182930541
    H            0.395144573789    -2.923011671302    -0.485805491432
    H            0.249781330530    -2.760961949532     1.241840901190
    C           -0.450549379741     0.262232622328    -0.085336650847
    H           -1.445993298633    -1.287705796633     1.009095165944
    H           -1.395863124324    -1.557574623481    -0.698377310946
    C           -1.698566032533     1.125451805050    -0.280745352671
    H            0.120399273466     0.637654419239     0.757113691994
    H            0.187904257649     0.362338112752    -0.961969850618
    C           -1.378199672856     2.604818433715    -0.502440397984
    H           -2.343672698524     1.025669767971     0.590558883823
    H           -2.271061062991     0.751313106553    -1.128114691767
    C           -2.627892577879     3.463848953144    -0.692044492870
    H           -0.807244373753     2.979508791833     0.343977451213
    H           -0.734701605959     2.707425264726    -1.373714829087
    H           -3.276110909787     3.410241874066     0.178064897566
    H           -2.368572234716     4.506558139912    -0.846977434471
    H           -3.203554821579     3.134834374577    -1.552725299357
    H            2.166622646262    -1.276979382803    -1.657513104108
    H            3.565863463173    -1.039928602143    -0.591655465553
    H            2.956984618914    -2.662825099770    -0.943974160711

  Mulliken Charges: (a.u.)
   Center  Symbol    Alpha    Beta     Spin     Total
       1     O     4.26263  4.26263  0.00000 -0.52527
       2     C     2.73699  2.73699  0.00000  0.52602
       3     C     3.20588  3.20588  0.00000 -0.41177
       4     C     3.28942  3.28942  0.00000 -0.57885
       5     C     3.15264  3.15264  0.00000 -0.30529
       6     H     0.41499  0.41499  0.00000  0.17003
       7     H     0.39912  0.39912  0.00000  0.20176
       8     C     3.16746  3.16746  0.00000 -0.33493
       9     H     0.41256  0.41256  0.00000  0.17488
      10     H     0.41809  0.41809  0.00000  0.16382
      11     C     3.15128  3.15128  0.00000 -0.30257
      12     H     0.40383  0.40383  0.00000  0.19233
      13     H     0.42621  0.42621  0.00000  0.14757
      14     C     3.15180  3.15180  0.00000 -0.30359
      15     H     0.42227  0.42227  0.00000  0.15546
      16     H     0.42491  0.42491  0.00000  0.15017
      17     C     3.23950  3.23950  0.00000 -0.47901
      18     H     0.42019  0.42019  0.00000  0.15962
      19     H     0.42351  0.42351  0.00000  0.15298
      20     H     0.42133  0.42133  0.00000  0.15735
      21     H     0.41881  0.41881  0.00000  0.16238
      22     H     0.42234  0.42234  0.00000  0.15533
      23     H     0.40974  0.40974  0.00000  0.18052
      24     H     0.39748  0.39748  0.00000  0.20504
      25     H     0.40700  0.40700  0.00000  0.18601

   Total alpha = 36.00000, Total beta = 36.00000, Total charge = -0.00000
