                              Psi4 1.0.54 Driver

  ==> Input File <==

--------------------------------------------------------------------------
set {
	reference rhf
	basis cc-pvtz
}

set_num_threads( 4 )
memory 2 gb

molecule MOL {
0 1

H	 1.651193	 -1.101532	 -0.843661
O	 1.583947	 -0.677544	 -0.001533
C	 0.489979	 0.078084	 0.002623
C	 -0.763662	 -0.754014	 0.000816
O	 0.539051	 1.259395	 -0.000088
C	 -2.038001	 0.074705	 -0.000833
H	 -0.712945	 -1.405886	 -0.864342
H	 -0.715137	 -1.405770	 0.866182
H	 -2.087267	 0.710831	 -0.874232
H	 -2.903419	 -0.576199	 -0.001922
H	 -2.089467	 0.710909	 0.872389

	symmetry c1
}
set optking {
	frozen_dihedral = ("
		1 2 3 5
	")
}

ee,wfn = optimize('scf', return_wfn=True)
oeprop( wfn, 'DIPOLE', 'QUADRUPOLE', 'MULLIKEN_CHARGES')
f=open( 'psi4out.xyz', 'w' )
f.write( "11  " )
f.write( str(ee) + "\n" )
f.write( MOL.save_string_xyz() )
f.close()
--------------------------------------------------------------------------

    Molecular point group: c1
  Charge       = 0
  Multiplicity = 1
  Basis Set: CC-PVTZ
  Basis Set:
  @DF-RHF Final Energy:  -266.93242136478381
    Total Energy =                       -266.9324213647835791
    Molecular point group: c1
  Basis Set: CC-PVTZ
  Basis Set:
  Basis Set: CC-PVTZ
  Basis Set:
  @DF-RHF Final Energy:  -266.93357169424746
    Total Energy =                       -266.9335716942471777
  Basis Set: CC-PVTZ
  Basis Set:
  Basis Set: CC-PVTZ
  Basis Set:
  @DF-RHF Final Energy:  -266.93283537018232
    Total Energy =                       -266.9328353701823744
  Basis Set: CC-PVTZ
  Basis Set:
  Basis Set: CC-PVTZ
  Basis Set:
  @DF-RHF Final Energy:  -266.93403145530249
    Total Energy =                       -266.9340314553025451
  Basis Set: CC-PVTZ
  Basis Set:
  Basis Set: CC-PVTZ
  Basis Set:
  @DF-RHF Final Energy:  -266.93405468069949
    Total Energy =                       -266.9340546806995462
  Basis Set: CC-PVTZ
  Basis Set:
  Charge       = 0
  Multiplicity = 1
  Basis Set: CC-PVTZ
  Basis Set:

    Orbital Energies (a.u.)
    -----------------------

    Doubly Occupied:

       1A    -20.589105     2A    -20.550217     3A    -11.374860
       4A    -11.247615     5A    -11.221696     6A     -1.464950
       7A     -1.372770     8A     -1.066657     9A     -0.910296
      10A     -0.815296    11A     -0.716707    12A     -0.674598
      13A     -0.662623    14A     -0.617236    15A     -0.573928
      16A     -0.532259    17A     -0.522546    18A     -0.505035
      19A     -0.495236    20A     -0.449140

  @DF-RHF Final Energy:  -266.93405566437582

   => Energetics <=

    Nuclear Repulsion Energy =            179.4571691245900240
    One-Electron Energy =                -720.0569123137227052
    Two-Electron Energy =                 273.6656875247568905
    DFT Exchange-Correlation Energy =       0.0000000000000000
    Empirical Dispersion Energy =           0.0000000000000000
    PCM Polarization Energy =               0.0000000000000000
    EFP Energy =                            0.0000000000000000
    Total Energy =                       -266.9340556643758191
    Molecular point group: c1
  Basis Set: CC-PVTZ
  Basis Set:

  -Total Gradient:
     Atom            X                  Y                   Z
    ------   -----------------  -----------------  -----------------
       1        0.001904067423     0.002869902000    -0.001082554015
       2       -0.002441585651    -0.003574682540    -0.000041562536
       3        0.000491383683     0.000534297522     0.004268638015
       4        0.000049599626     0.000028802935     0.000050367942
       5        0.000013157927     0.000160284133    -0.003155118504
       6       -0.000006847429     0.000017695329    -0.000016151233
       7       -0.000003452527    -0.000006051713    -0.000018981647
       8       -0.000013692012    -0.000015925164    -0.000018258157
       9        0.000007121524    -0.000009422442     0.000013264851
      10        0.000000439889    -0.000003292189     0.000002677761
      11       -0.000000192452    -0.000001607871    -0.000002322478

  **** Optimization is complete! (in 6 steps) ****
    Final optimized geometry and variables:
    Molecular point group: c1

    Geometry (in Angstrom), charge = 0, multiplicity = 1:

    H            1.769589170472    -1.086412217449    -0.824963829236
    O            1.626142982402    -0.666453037842     0.006518291802
    C            0.494607531024     0.082612972432     0.008032558642
    C           -0.774952132593    -0.730967574455     0.001696368777
    O            0.543990113956     1.254403277479     0.042728864791
    C           -2.042132025202     0.108369452231    -0.005140935342
    H           -0.738456247743    -1.391102933218    -0.860852294995
    H           -0.733843084814    -1.381739459187     0.868577163123
    H           -2.084220165599     0.743259484878    -0.880139882770
    H           -2.914804913203    -0.533019596338    -0.005063600013
    H           -2.086520508251     0.747328423623     0.866225895322

  Mulliken Charges: (a.u.)
   Center  Symbol    Alpha    Beta     Spin     Total
       1     H     0.38928  0.38928  0.00000  0.22145
       2     O     4.16874  4.16874  0.00000 -0.33749
       3     C     2.80398  2.80398  0.00000  0.39205
       4     C     3.10608  3.10608  0.00000 -0.21216
       5     O     4.16032  4.16032  0.00000 -0.32064
       6     C     3.13916  3.13916  0.00000 -0.27832
       7     H     0.45135  0.45135  0.00000  0.09730
       8     H     0.43721  0.43721  0.00000  0.12557
       9     H     0.44855  0.44855  0.00000  0.10290
      10     H     0.45014  0.45014  0.00000  0.09971
      11     H     0.44519  0.44519  0.00000  0.10962

   Total alpha = 20.00000, Total beta = 20.00000, Total charge = -0.00000

*** Psi4 exiting successfully. Buy a developer a beer!
