  ==> Input File <==

--------------------------------------------------------------------------
set {
	reference rhf
	basis cc-pvtz
}

set_num_threads( 4 )
memory 2 gb

molecule MOL {
0 1

H	 -3.941973	 0.934228	 -0.390224
C	 -3.240162	 0.342701	 0.161016
C	 -2.105997	 -0.000418	 -0.398703
H	 -3.485368	 0.047206	 1.162193
O	 -1.189946	 -0.765863	 0.237511
H	 -1.846458	 0.297311	 -1.398265
C	 0.026572	 -0.995256	 -0.379403
C	 1.057223	 0.049888	 -0.004615
H	 -0.054361	 -1.010670	 -1.459674
H	 0.397526	 -1.952058	 -0.044198
F	 0.885192	 0.404667	 1.253009
F	 2.285578	 -0.405944	 -0.126550
F	 0.957597	 1.127734	 -0.744061

	symmetry c1
}
set optking {
	frozen_dihedral = ("
		11 8 7 9
	")
}

ee = optimize('scf')
oeprop('DIPOLE', 'QUADRUPOLE', 'MULLIKEN_CHARGES')
f=open( 'psi4out.xyz', 'w' )
f.write( "13  " )
f.write( str(ee) + "\n" )
f.write( MOL.save_string_xyz() )
f.close()
--------------------------------------------------------------------------

    Molecular point group: c1
  Charge       = 0
  Multiplicity = 1
  Basis Set: CC-PVTZ
  Basis Set:
  @DF-RHF Final Energy:  -527.73913918694507
    Total Energy =                       -527.7391391869452946
    Molecular point group: c1
  Basis Set: CC-PVTZ
  Basis Set:
  Basis Set: CC-PVTZ
  Basis Set:
  @DF-RHF Final Energy:  -527.73986483827775
    Total Energy =                       -527.7398648382777537
  Basis Set: CC-PVTZ
  Basis Set:
  Basis Set: CC-PVTZ
  Basis Set:
  @DF-RHF Final Energy:  -527.74005627118845
    Total Energy =                       -527.7400562711887915
  Basis Set: CC-PVTZ
  Basis Set:
  Basis Set: CC-PVTZ
  Basis Set:
  @DF-RHF Final Energy:  -527.74008955571253
    Total Energy =                       -527.7400895557120748
  Basis Set: CC-PVTZ
  Basis Set:
  @DF-RHF Final Energy:  -527.74010247251408
    Total Energy =                       -527.7401024725139678
  Basis Set: CC-PVTZ
  Basis Set:
  @DF-RHF Final Energy:  -527.74011010687229
    Total Energy =                       -527.7401101068726348
  Basis Set: CC-PVTZ
  Basis Set:
  Basis Set: CC-PVTZ
  Basis Set:
  @DF-RHF Final Energy:  -527.74011527832317
    Total Energy =                       -527.7401152783227190
  Basis Set: CC-PVTZ
  Basis Set:
  Basis Set: CC-PVTZ
  Basis Set:
  @DF-RHF Final Energy:  -527.74011697320623
    Total Energy =                       -527.7401169732058861
  Basis Set: CC-PVTZ
  Basis Set:
  Charge       = 0
  Multiplicity = 1
  Basis Set: CC-PVTZ
  Basis Set:

    Orbital Energies (a.u.)
    -----------------------

    Doubly Occupied:

       1A    -26.342533     2A    -26.338261     3A    -26.338124
       4A    -20.602861     5A    -11.498118     6A    -11.320047
       7A    -11.297919     8A    -11.214416     9A     -1.750259
      10A     -1.647818    11A     -1.643532    12A     -1.443538
      13A     -1.086157    14A     -1.020238    15A     -0.931987
      16A     -0.842636    17A     -0.839350    18A     -0.827077
      19A     -0.798908    20A     -0.726962    21A     -0.718936
      22A     -0.702526    23A     -0.681022    24A     -0.669223
      25A     -0.661245    26A     -0.650214    27A     -0.640292
      28A     -0.587845    29A     -0.566422    30A     -0.527212
      31A     -0.516917    32A     -0.357365

  @DF-RHF Final Energy:  -527.74011768809305

   => Energetics <=

    Nuclear Repulsion Energy =            414.3860977767902227
    One-Electron Energy =               -1552.6725062447794699
    Two-Electron Energy =                 610.5462907798962533
    DFT Exchange-Correlation Energy =       0.0000000000000000
    Empirical Dispersion Energy =           0.0000000000000000
    PCM Polarization Energy =               0.0000000000000000
    EFP Energy =                            0.0000000000000000
    Total Energy =                       -527.7401176880930507
    Molecular point group: c1
  Basis Set: CC-PVTZ
  Basis Set:

  -Total Gradient:
     Atom            X                  Y                   Z
    ------   -----------------  -----------------  -----------------
       1        0.000003378259     0.000010377420     0.000005585790
       2       -0.000005246540    -0.000002006356    -0.000003062679
       3       -0.000025395855    -0.000003318094    -0.000035280736
       4        0.000001458423    -0.000001079358    -0.000001397062
       5        0.000026441382    -0.000038303199     0.000004785377
       6        0.000002744047     0.000009322431     0.000012607502
       7        0.003241727331    -0.002726325173    -0.000635427511
       8        0.002793904684    -0.002932707126     0.001270084750
       9       -0.003374026554     0.002963050572     0.000224235638
      10       -0.000025077028     0.000040313770     0.000039842840
      11       -0.002563745916     0.002734190297    -0.000987236468
      12       -0.000050659675     0.000019480565    -0.000004345529
      13       -0.000025502551    -0.000072995757     0.000109608083

  **** Optimization is complete! (in 9 steps) ****
    Final optimized geometry and variables:
    Molecular point group: c1

    Geometry (in Angstrom), charge = 0, multiplicity = 1:

    H           -3.847941891506     0.999023618121    -0.382496575169
    C           -3.166914248796     0.370887846689     0.154249218049
    C           -2.064705872567    -0.032533618751    -0.428643462569
    H           -3.408059533770     0.085202595565     1.159253155197
    O           -1.184212715605    -0.857919181536     0.182453173486
    H           -1.808381394653     0.255234076690    -1.432486290293
    C            0.063058130128    -1.032004463868    -0.393137978054
    C            1.042273623912     0.060384105375     0.012822179604
    H           -0.004876070259    -1.023067558123    -1.474366388490
    H            0.453388438515    -1.977995068711    -0.053904864908
    F            0.895851296727     0.422741711293     1.261595242072
    F            2.278730423494    -0.355944447224    -0.160135751959
    F            0.885766441155     1.143627727058    -0.725675886579

  Mulliken Charges: (a.u.)
   Center  Symbol    Alpha    Beta     Spin     Total
       1     H     0.42512  0.42512  0.00000  0.14977
       2     C     3.19507  3.19507  0.00000 -0.39014
       3     C     2.96210  2.96210  0.00000  0.07581
       4     H     0.42436  0.42436  0.00000  0.15128
       5     O     4.14281  4.14281  0.00000 -0.28562
       6     H     0.43407  0.43407  0.00000  0.13187
       7     C     3.02118  3.02118  0.00000 -0.04236
       8     C     2.67662  2.67662  0.00000  0.64675
       9     H     0.45532  0.45532  0.00000  0.08936
      10     H     0.43429  0.43429  0.00000  0.13142
      11     F     4.60446  4.60446  0.00000 -0.20892
      12     F     4.61051  4.61051  0.00000 -0.22103
      13     F     4.61410  4.61410  0.00000 -0.22820

   Total alpha = 32.00000, Total beta = 32.00000, Total charge = -0.00000
