                              Psi4 1.0.54 Driver

  ==> Input File <==

--------------------------------------------------------------------------
set {
	reference rhf
	basis cc-pvtz
}

set_num_threads( 4 )
memory 2 gb

molecule MOL {
0 1

H	 -2.725694	 -1.469161	 0.275983
O	 -2.321472	 -0.864941	 -0.318626
C	 -2.021813	 0.336996	 0.342658
C	 -0.669613	 0.837286	 -0.127252
H	 -2.780861	 1.084746	 0.127159
H	 -2.006390	 0.184138	 1.420053
C	 0.490865	 -0.082543	 0.241244
H	 -0.708709	 0.967192	 -1.204587
H	 -0.507562	 1.822272	 0.303070
C	 1.839800	 0.429565	 -0.255472
H	 0.305636	 -1.070211	 -0.165276
H	 0.527397	 -0.195943	 1.322876
C	 3.001144	 -0.485193	 0.119072
H	 1.804373	 0.541073	 -1.335756
H	 2.020437	 1.423114	 0.146921
H	 2.866892	 -1.477297	 -0.298806
H	 3.943543	 -0.095749	 -0.249061
H	 3.085064	 -0.590459	 1.195790

	symmetry c1
}
set optking {
	frozen_dihedral = ("
		1 2 3 4
	")
}

ee,wfn = optimize('scf', return_wfn=True)
oeprop( wfn, 'DIPOLE', 'QUADRUPOLE', 'MULLIKEN_CHARGES')
f=open( 'psi4out.xyz', 'w' )
f.write( "18  " )
f.write( str(ee) + "\n" )
f.write( MOL.save_string_xyz() )
f.close()
--------------------------------------------------------------------------

    Molecular point group: c1
  Charge       = 0
  Multiplicity = 1
  Basis Set: CC-PVTZ
  Basis Set:
  @DF-RHF Final Energy:  -271.28570514495721
    Total Energy =                       -271.2857051449570918
    Molecular point group: c1
  Basis Set: CC-PVTZ
  Basis Set:
  Basis Set: CC-PVTZ
  Basis Set:
  @DF-RHF Final Energy:  -271.28579171093600
    Total Energy =                       -271.2857917109359960
  Basis Set: CC-PVTZ
  Basis Set:
  Basis Set: CC-PVTZ
  Basis Set:
  @DF-RHF Final Energy:  -271.28582996246405
    Total Energy =                       -271.2858299624643337
  Basis Set: CC-PVTZ
  Basis Set:
  Charge       = 0
  Multiplicity = 1
  Basis Set: CC-PVTZ
  Basis Set:

    Orbital Energies (a.u.)
    -----------------------

    Doubly Occupied:

       1A    -20.545538     2A    -11.266289     3A    -11.210551
       4A    -11.210303     5A    -11.207085     6A    -11.204238
       7A     -1.363056     8A     -1.077749     9A     -1.010923
      10A     -0.916187    11A     -0.820545    12A     -0.785759
      13A     -0.709138    14A     -0.635947    15A     -0.633327
      16A     -0.583118    17A     -0.571794    18A     -0.565508
      19A     -0.525714    20A     -0.497626    21A     -0.482948
      22A     -0.475799    23A     -0.461274    24A     -0.458952
      25A     -0.425956

  @DF-RHF Final Energy:  -271.28583018872393

   => Energetics <=

    Nuclear Repulsion Energy =            249.1415790798317857
    One-Electron Energy =                -861.5641671235632657
    Two-Electron Energy =                 341.1367578550072039
    DFT Exchange-Correlation Energy =       0.0000000000000000
    Empirical Dispersion Energy =           0.0000000000000000
    PCM Polarization Energy =               0.0000000000000000
    EFP Energy =                            0.0000000000000000
    Total Energy =                       -271.2858301887242760
    Molecular point group: c1
  Basis Set: CC-PVTZ
  Basis Set:

  -Total Gradient:
     Atom            X                  Y                   Z
    ------   -----------------  -----------------  -----------------
       1        0.001137463346    -0.000473120652     0.000270689371
       2       -0.001280586528     0.000404363299    -0.000148671988
       3       -0.000201830285     0.000456086162    -0.000673846972
       4        0.000336265630    -0.000409093146     0.000531935465
       5        0.000024246531     0.000019722269     0.000009069085
       6       -0.000002362955     0.000004095713     0.000009838950
       7       -0.000013780048    -0.000012791891     0.000002236529
       8        0.000000240532    -0.000002238151    -0.000010294202
       9        0.000002231488    -0.000013943008    -0.000005055361
      10        0.000006970802     0.000022823944     0.000021086364
      11       -0.000011382654     0.000001677998    -0.000012760319
      12        0.000003394029    -0.000001329644     0.000001818913
      13       -0.000000596033     0.000001390599    -0.000000755237
      14       -0.000005441226    -0.000010033801     0.000008779664
      15        0.000007494336     0.000011675235    -0.000002826477
      16       -0.000001468359    -0.000001993357     0.000000582684
      17       -0.000001619201     0.000000590023    -0.000002304633
      18        0.000000760596     0.000002118408     0.000000478162

  **** Optimization is complete! (in 4 steps) ****
    Final optimized geometry and variables:
    Molecular point group: c1

    Geometry (in Angstrom), charge = 0, multiplicity = 1:

    H           -2.754448900010    -1.474136235768     0.247666672848
    O           -2.350368717871    -0.863077778127    -0.337671542831
    C           -2.022969136494     0.327085954073     0.337074911541
    C           -0.671557383937     0.835041540984    -0.130640394457
    H           -2.785494377269     1.074413411232     0.139565479327
    H           -2.000630968209     0.161455600760     1.411201901573
    C            0.493466665151    -0.074794117736     0.245511778189
    H           -0.708286646249     0.958232722085    -1.209099749247
    H           -0.517448190126     1.824693275143     0.292453888590
    C            1.840724993943     0.436649203311    -0.256435188942
    H            0.312432202054    -1.066765811846    -0.153358385640
    H            0.532218057143    -0.178011401151     1.328428195235
    C            3.005147593772    -0.470789359116     0.126029247745
    H            1.804008094535     0.537738596491    -1.337558555801
    H            2.018141225892     1.434411127613     0.136515279057
    H            2.873122865437    -1.467733664692    -0.280971675387
    H            3.945746703768    -0.082765362936    -0.247961262861
    H            3.091365000652    -0.564052857367     1.203684728351

  Mulliken Charges: (a.u.)
   Center  Symbol    Alpha    Beta     Spin     Total
       1     H     0.39197  0.39197  0.00000  0.21605
       2     O     4.20540  4.20540  0.00000 -0.41080
       3     C     2.97794  2.97794  0.00000  0.04413
       4     C     3.08554  3.08554  0.00000 -0.17108
       5     H     0.45970  0.45970  0.00000  0.08061
       6     H     0.47237  0.47237  0.00000  0.05526
       7     C     3.09006  3.09006  0.00000 -0.18011
       8     H     0.45168  0.45168  0.00000  0.09665
       9     H     0.45451  0.45451  0.00000  0.09098
      10     C     3.08378  3.08378  0.00000 -0.16756
      11     H     0.44731  0.44731  0.00000  0.10539
      12     H     0.45997  0.45997  0.00000  0.08007
      13     C     3.14998  3.14998  0.00000 -0.29997
      14     H     0.45364  0.45364  0.00000  0.09271
      15     H     0.45645  0.45645  0.00000  0.08710
      16     H     0.45465  0.45465  0.00000  0.09070
      17     H     0.44890  0.44890  0.00000  0.10220
      18     H     0.45616  0.45616  0.00000  0.08768

   Total alpha = 25.00000, Total beta = 25.00000, Total charge = -0.00000

*** Psi4 exiting successfully. Buy a developer a beer!
