  ==> Input File <==

--------------------------------------------------------------------------
set {
	reference rhf
	basis 6-31G*
}

set_num_threads( 4 )
memory 2 gb

molecule MOL {
0 1

H	 -2.454336	 -0.715210	 2.083281
C	 -2.413988	 -1.511636	 1.342862
O	 -1.199638	 -1.514475	 0.664127
H	 -2.507933	 -2.463478	 1.847156
H	 -3.254258	 -1.391050	 0.660341
C	 -0.939939	 -0.344389	 -0.044889
C	 0.444140	 -0.421120	 -0.645425
H	 -1.670933	 -0.216541	 -0.844263
H	 -1.000257	 0.524724	 0.607038
O	 1.392611	 -0.295398	 0.366430
H	 0.557009	 -1.369913	 -1.166057
H	 0.562633	 0.379744	 -1.376362
C	 2.706965	 -0.449871	 -0.062409
H	 2.756559	 -0.644779	 -1.131878
H	 3.305899	 0.433456	 0.155466
H	 3.125548	 -1.294566	 0.467107

	symmetry c1
}
set optking {
	frozen_dihedral = ("
		7 10 13 14
	")
}

ee = optimize('scf')
oeprop('DIPOLE', 'QUADRUPOLE', 'MULLIKEN_CHARGES')
f=open( 'psi4out.xyz', 'w' )
f.write( "16  " )
f.write( str(ee) + "\n" )
f.write( MOL.save_string_xyz() )
f.close()
--------------------------------------------------------------------------

    Molecular point group: c1
  Charge       = 0
  Multiplicity = 1
  Basis Set: 6-31G*
  Basis Set:
  @DF-RHF Final Energy:  -306.97317151318629
    Total Energy =                       -306.9731715131863439
    Molecular point group: c1
  Basis Set: 6-31G*
  Basis Set:
  Basis Set: 6-31G*
  Basis Set:
  @DF-RHF Final Energy:  -306.97361352497290
    Total Energy =                       -306.9736135249727909
  Basis Set: 6-31G*
  Basis Set:
  Basis Set: 6-31G*
  Basis Set:
  @DF-RHF Final Energy:  -306.97375338221195
    Total Energy =                       -306.9737533822119531
  Basis Set: 6-31G*
  Basis Set:
  Charge       = 0
  Multiplicity = 1
  Basis Set: 6-31G*
  Basis Set:

    Orbital Energies (a.u.)
    -----------------------

    Doubly Occupied:

       1A    -20.553088     2A    -20.549359     3A    -11.269306
       4A    -11.267999     5A    -11.263193     6A    -11.262934
       7A     -1.385721     8A     -1.367129     9A     -1.030389
      10A     -0.936111    11A     -0.891910    12A     -0.823491
      13A     -0.682350    14A     -0.678593    15A     -0.655933
      16A     -0.633638    17A     -0.627760    18A     -0.595898
      19A     -0.554381    20A     -0.537515    21A     -0.507972
      22A     -0.476677    23A     -0.461421    24A     -0.417208
      25A     -0.406604

  @DF-RHF Final Energy:  -306.97375438134031

   => Energetics <=

    Nuclear Repulsion Energy =            258.5312929932447332
    One-Electron Energy =                -931.3369293107591602
    Two-Electron Energy =                 365.8318819361740566
    DFT Exchange-Correlation Energy =       0.0000000000000000
    Empirical Dispersion Energy =           0.0000000000000000
    PCM Polarization Energy =               0.0000000000000000
    EFP Energy =                            0.0000000000000000
    Total Energy =                       -306.9737543813403704
    Molecular point group: c1
  Basis Set: 6-31G*
  Basis Set:

  -Total Gradient:
     Atom            X                  Y                   Z
    ------   -----------------  -----------------  -----------------
       1       -0.000001185635     0.000000177263     0.000000356593
       2       -0.000001408061     0.000002403005     0.000002301719
       3        0.000002906058     0.000013302610     0.000025081691
       4        0.000001276632    -0.000000071213     0.000000592784
       5        0.000005039944     0.000001355753    -0.000002163081
       6       -0.000050115094    -0.000039942516    -0.000072283716
       7       -0.000052794414     0.000122150128    -0.000019861752
       8       -0.000057456923     0.000006272465    -0.000002579230
       9        0.000029563896    -0.000035270166    -0.000016276899
      10        0.000169038548    -0.000038142286    -0.000021712167
      11        0.000009889762     0.000010765724     0.000043459134
      12        0.000002744457    -0.000023105259    -0.000006697064
      13       -0.000016091369    -0.000035224168     0.000090700410
      14       -0.000052754596     0.000010579623    -0.000008665242
      15       -0.000022736195     0.000015310442    -0.000004638016
      16        0.000034082990    -0.000010561404    -0.000007615167

  **** Optimization is complete! (in 4 steps) ****
    Final optimized geometry and variables:
    Molecular point group: c1

    Geometry (in Angstrom), charge = 0, multiplicity = 1:

    H           -2.437767357641     0.044914088968     1.822395203975
    C           -2.407486413447    -0.748650920751     1.078426822909
    O           -1.200726985277    -0.751876797395     0.386333780710
    H           -2.498605463493    -1.702245162843     1.579940635016
    H           -3.254596223144    -0.622970833983     0.405405230244
    C           -0.945956096028     0.420359627013    -0.321026023687
    C            0.432171702500     0.344554352595    -0.935253565048
    H           -1.684530707087     0.552156914762    -1.112945604353
    H           -0.998912384855     1.286980845750     0.334623353009
    O            1.387537637585     0.459802508634     0.072890297735
    H            0.534598056770    -0.600761351218    -1.462629807158
    H            0.542644541688     1.150468240948    -1.661105286031
    C            2.718620454206     0.299135805830    -0.320652471540
    H            2.807472402753     0.102972101090    -1.385000976200
    H            3.277891397700     1.200251653633    -0.091985647638
    H            3.159908153142    -0.531735830243     0.218699982747

  Mulliken Charges: (a.u.)
   Center  Symbol    Alpha    Beta     Spin     Total
       1     H     0.42808  0.42808  0.00000  0.14383
       2     C     3.07941  3.07941  0.00000 -0.15881
       3     O     4.30084  4.30084  0.00000 -0.60168
       4     H     0.41142  0.41142  0.00000  0.17717
       5     H     0.43200  0.43200  0.00000  0.13601
       6     C     2.99355  2.99355  0.00000  0.01289
       7     C     2.99305  2.99305  0.00000  0.01391
       8     H     0.43250  0.43250  0.00000  0.13499
       9     H     0.42281  0.42281  0.00000  0.15438
      10     O     4.30606  4.30606  0.00000 -0.61212
      11     H     0.42238  0.42238  0.00000  0.15524
      12     H     0.43232  0.43232  0.00000  0.13537
      13     C     3.07573  3.07573  0.00000 -0.15146
      14     H     0.43029  0.43029  0.00000  0.13941
      15     H     0.42140  0.42140  0.00000  0.15721
      16     H     0.41816  0.41816  0.00000  0.16367

   Total alpha = 25.00000, Total beta = 25.00000, Total charge = -0.00000
