  ==> Input File <==

--------------------------------------------------------------------------
set {
	reference rhf
	basis 6-31G*
}

set_num_threads( 4 )
memory 2 gb

molecule MOL {
0 1

H	 -3.420663	 1.227371	 -1.044276
O	 -3.452007	 0.283848	 -0.965577
C	 -3.181085	 -0.079926	 0.364119
C	 -1.765924	 0.277073	 0.805136
H	 -3.327791	 -1.152017	 0.410903
H	 -3.905698	 0.375695	 1.036898
C	 -0.677594	 -0.417312	 -0.014550
H	 -1.637766	 1.358238	 0.744969
H	 -1.659588	 0.017670	 1.857098
C	 0.737012	 -0.099439	 0.474353
H	 -0.778390	 -0.130214	 -1.056723
H	 -0.838680	 -1.493456	 0.022315
C	 1.820700	 -0.802746	 -0.347270
H	 0.887980	 0.977003	 0.444347
H	 0.833429	 -0.392227	 1.519142
C	 3.251454	 -0.586139	 0.158870
H	 1.754173	 -0.476786	 -1.384102
H	 1.614829	 -1.871113	 -0.352400
C	 3.752456	 0.855366	 0.051796
H	 3.918712	 -1.229579	 -0.409498
H	 3.320835	 -0.916643	 1.193354
H	 3.683012	 1.217427	 -0.970568
H	 4.792284	 0.925688	 0.356180
H	 3.183520	 1.531318	 0.681530

	symmetry c1
}
set optking {
	frozen_dihedral = ("
		11 7 4 3
	")
}

ee = optimize('scf')
oeprop('DIPOLE', 'QUADRUPOLE', 'MULLIKEN_CHARGES')
f=open( 'psi4out.xyz', 'w' )
f.write( "24  " )
f.write( str(ee) + "\n" )
f.write( MOL.save_string_xyz() )
f.close()
--------------------------------------------------------------------------

    Molecular point group: c1
  Charge       = 0
  Multiplicity = 1
  Basis Set: 6-31G*
  Basis Set:
  @DF-RHF Final Energy:  -349.24758831517380
    Total Energy =                       -349.2475883151738003
    Molecular point group: c1
  Basis Set: 6-31G*
  Basis Set:
  Basis Set: 6-31G*
  Basis Set:
  @DF-RHF Final Energy:  -349.24758589878917
    Total Energy =                       -349.2475858987893389
  Basis Set: 6-31G*
  Basis Set:
  Basis Set: 6-31G*
  Basis Set:
  @DF-RHF Final Energy:  -349.24759487795421
    Total Energy =                       -349.2475948779543273
  Basis Set: 6-31G*
  Basis Set:
  Charge       = 0
  Multiplicity = 1
  Basis Set: 6-31G*
  Basis Set:

    Orbital Energies (a.u.)
    -----------------------

    Doubly Occupied:

       1A    -20.553428     2A    -11.267666     3A    -11.217497
       4A    -11.214087     5A    -11.212472     6A    -11.211628
       7A    -11.211283     8A    -11.207413     9A     -1.360006
      10A     -1.088621    11A     -1.048358    12A     -0.985679
      13A     -0.915069    14A     -0.850442    15A     -0.800707
      16A     -0.776311    17A     -0.678944    18A     -0.653738
      19A     -0.625676    20A     -0.619394    21A     -0.597284
      22A     -0.584501    23A     -0.557169    24A     -0.541570
      25A     -0.514864    26A     -0.507907    27A     -0.499881
      28A     -0.473117    29A     -0.467623    30A     -0.459736
      31A     -0.455405    32A     -0.450807    33A     -0.418900

  @DF-RHF Final Energy:  -349.24759522897034

   => Energetics <=

    Nuclear Repulsion Energy =            384.3934009534369807
    One-Electron Energy =               -1235.2276237402238621
    Two-Electron Energy =                 501.5866275578162572
    DFT Exchange-Correlation Energy =       0.0000000000000000
    Empirical Dispersion Energy =           0.0000000000000000
    PCM Polarization Energy =               0.0000000000000000
    EFP Energy =                            0.0000000000000000
    Total Energy =                       -349.2475952289706242
    Molecular point group: c1
  Basis Set: 6-31G*
  Basis Set:

  -Total Gradient:
     Atom            X                  Y                   Z
    ------   -----------------  -----------------  -----------------
       1       -0.000003424338    -0.000000570833    -0.000007511304
       2       -0.000033705722     0.000031643711    -0.000007797774
       3        0.000008600725    -0.000414928389     0.000305142527
       4        0.000101968360     0.000679876949    -0.000423194020
       5        0.000007494019     0.000013879588     0.000005186687
       6        0.000000050385    -0.000004351849    -0.000002880952
       7       -0.000520512705    -0.000778524801    -0.000027442855
       8        0.000035351902    -0.000008759741     0.000017474084
       9       -0.000021141341    -0.000011298251     0.000010717349
      10       -0.000021740062    -0.000010073896     0.000028381473
      11        0.000409524779     0.000473168301     0.000092474291
      12        0.000016170047     0.000025092657     0.000016140361
      13        0.000015435981     0.000018699743    -0.000016027655
      14        0.000007679268    -0.000008646013     0.000007495407
      15        0.000000569874    -0.000002829036     0.000015795162
      16       -0.000000943950     0.000014338980    -0.000010936206
      17       -0.000005716920    -0.000007142053    -0.000000796121
      18        0.000017950779    -0.000002676303     0.000000513093
      19        0.000003056430    -0.000004100026    -0.000003297330
      20       -0.000001029278    -0.000004169121     0.000004598730
      21       -0.000014366844     0.000007704855     0.000000235186
      22       -0.000005125661     0.000003561051    -0.000000453674
      23        0.000003506423    -0.000003051997    -0.000007062839
      24        0.000000347853    -0.000006843525     0.000003246378

  **** Optimization is complete! (in 4 steps) ****
    Final optimized geometry and variables:
    Molecular point group: c1

    Geometry (in Angstrom), charge = 0, multiplicity = 1:

    H           -3.409833122169     1.274559753253    -1.104943301663
    O           -3.449750552490     0.332101410531    -1.018258761378
    C           -3.186066316639    -0.022693485631     0.315382674408
    C           -1.769838414697     0.326209697921     0.758953340189
    H           -3.340503649737    -1.093150432179     0.370263520764
    H           -3.909627317331     0.443528136186     0.981989631502
    C           -0.683354457807    -0.375523078017    -0.057052458991
    H           -1.632601195562     1.406279825476     0.701878101539
    H           -1.669584944193     0.063427521609     1.810839154952
    C            0.731411147660    -0.057788077027     0.432266077000
    H           -0.779372257681    -0.089536668358    -1.100011856869
    H           -0.846346500843    -1.451029262752    -0.017122979726
    C            1.815546134430    -0.753499931982    -0.395259442218
    H            0.880294602428     1.019099663569     0.408928149158
    H            0.829696690352    -0.356994870293     1.475053257498
    C            3.246812336802    -0.533598569517     0.107908315890
    H            1.745072352722    -0.423470974912    -1.430502839672
    H            1.613675335506    -1.822646669204    -0.404510071745
    C            3.743081247601     0.909654730178     0.002636241861
    H            3.914630258940    -1.173832382417    -0.463329353550
    H            3.319565027881    -0.865987267604     1.141556892989
    H            3.669069643867     1.273999252018    -1.018587661420
    H            4.783746532484     0.982364620013     0.303593575574
    H            3.174206852446     1.582303840634     0.635923465011

  Mulliken Charges: (a.u.)
   Center  Symbol    Alpha    Beta     Spin     Total
       1     H     0.28342  0.28342  0.00000  0.43316
       2     O     4.36839  4.36839  0.00000 -0.73677
       3     C     2.99600  2.99600  0.00000  0.00800
       4     C     3.16939  3.16939  0.00000 -0.33878
       5     H     0.41629  0.41629  0.00000  0.16741
       6     H     0.42822  0.42822  0.00000  0.14356
       7     C     3.15077  3.15077  0.00000 -0.30154
       8     H     0.42801  0.42801  0.00000  0.14397
       9     H     0.42249  0.42249  0.00000  0.15502
      10     C     3.15374  3.15374  0.00000 -0.30749
      11     H     0.41303  0.41303  0.00000  0.17395
      12     H     0.42330  0.42330  0.00000  0.15341
      13     C     3.15224  3.15224  0.00000 -0.30448
      14     H     0.42300  0.42300  0.00000  0.15400
      15     H     0.42540  0.42540  0.00000  0.14920
      16     C     3.15231  3.15231  0.00000 -0.30461
      17     H     0.42372  0.42372  0.00000  0.15256
      18     H     0.42202  0.42202  0.00000  0.15595
      19     C     3.24103  3.24103  0.00000 -0.48206
      20     H     0.42105  0.42105  0.00000  0.15790
      21     H     0.42376  0.42376  0.00000  0.15247
      22     H     0.42232  0.42232  0.00000  0.15535
      23     H     0.41953  0.41953  0.00000  0.16095
      24     H     0.42057  0.42057  0.00000  0.15886

   Total alpha = 33.00000, Total beta = 33.00000, Total charge = -0.00000
