                              Psi4 1.0.54 Driver

  ==> Input File <==

--------------------------------------------------------------------------
set {
	reference rhf
	basis cc-pvtz
}

set_num_threads( 4 )
memory 2 gb

molecule MOL {
0 1

H	 -3.393712	 -0.093080	 0.470593
O	 -2.606652	 -0.616277	 0.493395
C	 -1.605397	 0.107680	 0.001145
C	 -0.310616	 -0.658853	 0.000791
O	 -1.759378	 1.215505	 -0.382240
C	 0.926581	 0.227233	 0.000178
H	 -0.327628	 -1.313681	 -0.864448
H	 -0.327041	 -1.313334	 0.866298
C	 2.220156	 -0.582071	 -0.000088
H	 0.899945	 0.878221	 -0.866390
H	 0.900542	 0.878581	 0.866486
C	 3.466689	 0.296012	 -0.000457
H	 2.239073	 -1.234095	 -0.869382
H	 2.239505	 -1.233985	 0.869270
H	 3.493549	 0.935857	 -0.875887
H	 4.368821	 -0.304526	 -0.001199
H	 3.494559	 0.935166	 0.875458

	symmetry c1
}
set optking {
	frozen_dihedral = ("
		2 3 4 7
	")
}

ee,wfn = optimize('scf', return_wfn=True)
oeprop( wfn, 'DIPOLE', 'QUADRUPOLE', 'MULLIKEN_CHARGES')
f=open( 'psi4out.xyz', 'w' )
f.write( "17  " )
f.write( str(ee) + "\n" )
f.write( MOL.save_string_xyz() )
f.close()
--------------------------------------------------------------------------

    Molecular point group: c1
  Charge       = 0
  Multiplicity = 1
  Basis Set: CC-PVTZ
  Basis Set:
  @DF-RHF Final Energy:  -345.04828172900409
    Total Energy =                       -345.0482817290039748
    Molecular point group: c1
  Basis Set: CC-PVTZ
  Basis Set:
  Basis Set: CC-PVTZ
  Basis Set:
  @DF-RHF Final Energy:  -345.04840677504137
    Total Energy =                       -345.0484067750417125
  Basis Set: CC-PVTZ
  Basis Set:
  Basis Set: CC-PVTZ
  Basis Set:
  @DF-RHF Final Energy:  -345.04835160367804
    Total Energy =                       -345.0483516036786114
  Basis Set: CC-PVTZ
  Basis Set:
  Basis Set: CC-PVTZ
  Basis Set:
  @DF-RHF Final Energy:  -345.04847431668287
    Total Energy =                       -345.0484743166825865
  Basis Set: CC-PVTZ
  Basis Set:
  Charge       = 0
  Multiplicity = 1
  Basis Set: CC-PVTZ
  Basis Set:

    Orbital Energies (a.u.)
    -----------------------

    Doubly Occupied:

       1A    -20.604909     2A    -20.539941     3A    -11.373808
       4A    -11.239201     5A    -11.222134     6A    -11.221106
       7A    -11.210968     8A     -1.477969     9A     -1.369048
      10A     -1.093063    11A     -1.019740    12A     -0.914585
      13A     -0.825280    14A     -0.792610    15A     -0.704777
      16A     -0.688065    17A     -0.669322    18A     -0.632538
      19A     -0.593501    20A     -0.584815    21A     -0.576494
      22A     -0.538414    23A     -0.510325    24A     -0.486321
      25A     -0.481414    26A     -0.477707    27A     -0.473809
      28A     -0.445253

  @DF-RHF Final Energy:  -345.04847480312657

   => Energetics <=

    Nuclear Repulsion Energy =            304.7784395827156345
    One-Electron Energy =               -1074.1195915639452778
    Two-Electron Energy =                 424.2926771781030766
    DFT Exchange-Correlation Energy =       0.0000000000000000
    Empirical Dispersion Energy =           0.0000000000000000
    PCM Polarization Energy =               0.0000000000000000
    EFP Energy =                            0.0000000000000000
    Total Energy =                       -345.0484748031265099
    Molecular point group: c1
  Basis Set: CC-PVTZ
  Basis Set:

  -Total Gradient:
     Atom            X                  Y                   Z
    ------   -----------------  -----------------  -----------------
       1        0.000036958080    -0.000014247143    -0.000000568219
       2        0.000060713189     0.000238947506     0.000816359130
       3       -0.000070777406    -0.000155678986    -0.001180466524
       4       -0.000481425563    -0.000780908675     0.000902629972
       5        0.000003286395    -0.000009784174    -0.000000806275
       6       -0.000003003417    -0.000007547725    -0.000017154203
       7        0.000438322370     0.000718256275    -0.000532121226
       8        0.000001606598     0.000005633086    -0.000011809776
       9        0.000010842991     0.000006416501     0.000011146665
      10       -0.000003903515    -0.000006757138     0.000004853377
      11        0.000011428327     0.000007085288     0.000003814728
      12       -0.000002809465    -0.000000491221     0.000005756959
      13       -0.000006281599     0.000004703091     0.000000209814
      14        0.000005076149    -0.000004946308    -0.000002176626
      15       -0.000000210604    -0.000002039368     0.000001255382
      16       -0.000001365802     0.000001163872     0.000001132160
      17        0.000001543265     0.000000195120    -0.000002055337

  **** Optimization is complete! (in 5 steps) ****
    Final optimized geometry and variables:
    Molecular point group: c1

    Geometry (in Angstrom), charge = 0, multiplicity = 1:

    H           -3.414627176366    -0.097383896977     0.358491993854
    O           -2.628273006857    -0.617003054281     0.433667963379
    C           -1.605902527972     0.101241488569    -0.020761757348
    C           -0.312917147896    -0.669233484681     0.012269963456
    O           -1.740868299526     1.208843843837    -0.412656142660
    C            0.923031939333     0.221759479746    -0.001310763425
    H           -0.322429874988    -1.311470934240    -0.864517761959
    H           -0.325769522684    -1.324480055774     0.873755847247
    C            2.218976451448    -0.583346816371    -0.016382401749
    H            0.881996339539     0.873705545991    -0.865123561010
    H            0.906922134106     0.869998619649     0.869203203639
    C            3.462611370650     0.298778476488    -0.023283404441
    H            2.231264924313    -1.229632270619    -0.890037971728
    H            2.248544692803    -1.240469719621     0.848649193054
    H            3.478854544311     0.944011769101    -0.894945253442
    H            4.366513090665    -0.298931046926    -0.036293255223
    H            3.497155123470     0.932546899757     0.856356052396

  Mulliken Charges: (a.u.)
   Center  Symbol    Alpha    Beta     Spin     Total
       1     H     0.38163  0.38163  0.00000  0.23674
       2     O     4.15908  4.15908  0.00000 -0.31817
       3     C     2.80766  2.80766  0.00000  0.38468
       4     C     3.10480  3.10480  0.00000 -0.20960
       5     O     4.19272  4.19272  0.00000 -0.38545
       6     C     3.08495  3.08495  0.00000 -0.16990
       7     H     0.44170  0.44170  0.00000  0.11660
       8     H     0.43631  0.43631  0.00000  0.12739
       9     C     3.08617  3.08617  0.00000 -0.17234
      10     H     0.44159  0.44159  0.00000  0.11682
      11     H     0.44983  0.44983  0.00000  0.10034
      12     C     3.14915  3.14915  0.00000 -0.29830
      13     H     0.45436  0.45436  0.00000  0.09128
      14     H     0.45477  0.45477  0.00000  0.09045
      15     H     0.45328  0.45328  0.00000  0.09343
      16     H     0.44798  0.44798  0.00000  0.10405
      17     H     0.45401  0.45401  0.00000  0.09198

   Total alpha = 28.00000, Total beta = 28.00000, Total charge =  0.00000

*** Psi4 exiting successfully. Buy a developer a beer!
