                              Psi4 1.0.54 Driver

  ==> Input File <==

--------------------------------------------------------------------------
set {
	reference rhf
	basis cc-pvtz
}

set_num_threads( 4 )
memory 2 gb

molecule MOL {
0 1

H	 -2.498963	 -0.741158	 -0.729149
O	 -2.346257	 -0.289210	 0.080372
C	 -1.183935	 0.486039	 -0.009831
C	 0.062853	 -0.375310	 0.027457
H	 -1.178881	 1.094526	 -0.908634
H	 -1.184406	 1.155156	 0.838676
O	 1.172093	 0.457955	 -0.054438
H	 0.052476	 -1.081302	 -0.804627
H	 0.076323	 -0.955658	 0.947560
C	 1.238249	 1.222275	 -1.213171
H	 0.378728	 1.882883	 -1.303132
H	 2.134737	 1.822675	 -1.163016
H	 1.284865	 0.595363	 -2.100486

	symmetry c1
}
set optking {
	frozen_dihedral = ("
		10 7 4 8
	")
}

ee,wfn = optimize('scf', return_wfn=True)
oeprop( wfn, 'DIPOLE', 'QUADRUPOLE', 'MULLIKEN_CHARGES')
f=open( 'psi4out.xyz', 'w' )
f.write( "13  " )
f.write( str(ee) + "\n" )
f.write( MOL.save_string_xyz() )
f.close()
--------------------------------------------------------------------------

    Molecular point group: c1
  Charge       = 0
  Multiplicity = 1
  Basis Set: CC-PVTZ
  Basis Set:
  @DF-RHF Final Energy:  -268.05145406347100
    Total Energy =                       -268.0514540634708851
    Molecular point group: c1
  Basis Set: CC-PVTZ
  Basis Set:
  Basis Set: CC-PVTZ
  Basis Set:
  @DF-RHF Final Energy:  -267.35412199515395
    Total Energy =                       -267.3541219951537755
  Basis Set: CC-PVTZ
  Basis Set:
  Basis Set: CC-PVTZ
  Basis Set:
  @DF-RHF Final Energy:  -267.53925789798950
    Total Energy =                       -267.5392578979893869
  Basis Set: CC-PVTZ
  Basis Set:
  Basis Set: CC-PVTZ
  Basis Set:
  @DF-RHF Final Energy:  -267.68400184719349
    Total Energy =                       -267.6840018471933718
  Basis Set: CC-PVTZ
  Basis Set:
  @DF-RHF Final Energy:  -267.94827826432265
    Total Energy =                       -267.9482782643225391
  @DF-RHF Final Energy:  -267.99761214819603
    Total Energy =                       -267.9976121481959126
  @DF-RHF Final Energy:  -268.05211825441734
    Total Energy =                       -268.0521182544172234
  @DF-RHF Final Energy:  -267.45343403189963
    Total Energy =                       -267.4534340318996328
  @DF-RHF Final Energy:  -267.75085670816009
    Total Energy =                       -267.7508567081601996
  @DF-RHF Final Energy:  -267.96903151782976
    Total Energy =                       -267.9690315178298761
  @DF-RHF Final Energy:  -268.04877419127342
    Total Energy =                       -268.0487741912733100
  @DF-RHF Final Energy:  -268.05497520759297
    Total Energy =                       -268.0549752075929746
  @DF-RHF Final Energy:  -268.05704969289991
    Total Energy =                       -268.0570496928998523
  Basis Set: CC-PVTZ
  Basis Set:
  @DF-RHF Final Energy:  -268.05791186931845
    Total Energy =                       -268.0579118693184455
  Basis Set: CC-PVTZ
  Basis Set:
  Basis Set: CC-PVTZ
  Basis Set:
  @DF-RHF Final Energy:  -268.05809370454682
    Total Energy =                       -268.0580937045468772
  Basis Set: CC-PVTZ
  Basis Set:
  Basis Set: CC-PVTZ
  Basis Set:
  @DF-RHF Final Energy:  -268.05809886811431
    Total Energy =                       -268.0580988681142003
  Basis Set: CC-PVTZ
  Basis Set:
  Charge       = 0
  Multiplicity = 1
  Basis Set: CC-PVTZ
  Basis Set:

    Orbital Energies (a.u.)
    -----------------------

    Doubly Occupied:

       1A    -20.556156     2A    -20.555008     3A    -11.271224
       4A    -11.269465     5A    -11.268579     6A     -1.389194
       7A     -1.371707     8A     -1.014756     9A     -0.932820
      10A     -0.834936    11A     -0.713043    12A     -0.676117
      13A     -0.665997    14A     -0.637302    15A     -0.601040
      16A     -0.576233    17A     -0.535677    18A     -0.498281
      19A     -0.494061    20A     -0.454140    21A     -0.410266

  @DF-RHF Final Energy:  -268.05809952925210

   => Energetics <=

    Nuclear Repulsion Energy =            192.6138384215257986
    One-Electron Energy =                -747.8918749965923780
    Two-Electron Energy =                 287.2199370458149588
    DFT Exchange-Correlation Energy =       0.0000000000000000
    Empirical Dispersion Energy =           0.0000000000000000
    PCM Polarization Energy =               0.0000000000000000
    EFP Energy =                            0.0000000000000000
    Total Energy =                       -268.0580995292516491
    Molecular point group: c1
  Basis Set: CC-PVTZ
  Basis Set:

  -Total Gradient:
     Atom            X                  Y                   Z
    ------   -----------------  -----------------  -----------------
       1        0.000020521241     0.000007668814    -0.000004323710
       2       -0.000033989475    -0.000004545722     0.000027431662
       3        0.000007463683    -0.000022789014    -0.000009321294
       4        0.001839794924     0.002649322310    -0.000659610049
       5        0.000005264381     0.000001634932     0.000000461221
       6        0.000001826408     0.000008420585    -0.000000517472
       7       -0.000024891929    -0.002538891545     0.001554430416
       8       -0.001548396508    -0.001536363530     0.000166033099
       9       -0.000009835412     0.000000197412    -0.000001102984
      10       -0.000279390003     0.001427881331    -0.001033278352
      11        0.000013059084     0.000022460777    -0.000011609691
      12        0.000019381640    -0.000017730578    -0.000029458555
      13       -0.000010808033     0.000002734228     0.000000865707

  **** Optimization is complete! (in 17 steps) ****
    Final optimized geometry and variables:
    Molecular point group: c1

    Geometry (in Angstrom), charge = 0, multiplicity = 1:

    H            1.483256065090    -0.997957898080    -1.882139254419
    O            0.717311192187    -0.497045454010    -2.095988881748
    C            0.312626070040     0.265514566907    -0.993038750761
    C           -0.288855091655    -0.625119470246     0.084695291312
    H            1.141881324133     0.851038203132    -0.608728437999
    H           -0.440623717428     0.955942437500    -1.347414670941
    O           -0.866650720410     0.065768715233     1.146751724575
    H            0.457741514754    -1.330911686060     0.453812545132
    H           -1.079738391622    -1.208729042355    -0.365512300165
    C           -0.009194932158     0.821392729375     1.941428928959
    H            0.333352684703     1.720798227908     1.439924440579
    H           -0.559252662297     1.112370059556     2.824445766673
    H            0.859955383281     0.243695979784     2.249922738822

  Mulliken Charges: (a.u.)
   Center  Symbol    Alpha    Beta     Spin     Total
       1     H     0.39379  0.39379  0.00000  0.21242
       2     O     4.20170  4.20170  0.00000 -0.40340
       3     C     2.97862  2.97862  0.00000  0.04275
       4     C     2.98732  2.98732  0.00000  0.02537
       5     H     0.47126  0.47126  0.00000  0.05748
       6     H     0.44925  0.44925  0.00000  0.10150
       7     O     4.17595  4.17595  0.00000 -0.35190
       8     H     0.47691  0.47691  0.00000  0.04619
       9     H     0.44576  0.44576  0.00000  0.10848
      10     C     3.03576  3.03576  0.00000 -0.07153
      11     H     0.46847  0.46847  0.00000  0.06306
      12     H     0.44274  0.44274  0.00000  0.11452
      13     H     0.47247  0.47247  0.00000  0.05506

   Total alpha = 21.00000, Total beta = 21.00000, Total charge = -0.00000

*** Psi4 exiting successfully. Buy a developer a beer!
