                              Psi4 1.0.54 Driver

  ==> Input File <==

--------------------------------------------------------------------------
set {
	reference rhf
	basis cc-pvtz
}

set_num_threads( 4 )
memory 2 gb

molecule MOL {
0 1

H	 -4.024094	 -0.454727	 0.000004
C	 -2.962215	 -0.297920	 0.000004
C	 -2.454736	 0.988978	 0.000025
C	 -2.105837	 -1.382632	 -0.000016
H	 -3.120052	 1.830438	 0.000041
C	 -1.090106	 1.189676	 0.000026
H	 -2.500390	 -2.380229	 -0.000033
C	 -0.739175	 -1.183302	 -0.000016
H	 -0.680214	 2.179144	 0.000042
C	 -0.227341	 0.104540	 0.000006
H	 -0.073209	 -2.021168	 -0.000032
C	 1.238974	 0.374429	 0.000004
O	 1.964949	 -0.707478	 0.210774
O	 1.711897	 1.447862	 -0.171073
C	 3.369944	 -0.548574	 0.228103
H	 3.720748	 -0.169213	 -0.719736
H	 3.776193	 -1.529933	 0.411095
H	 3.665425	 0.131035	 1.013100

	symmetry c1
}
set optking {
	frozen_dihedral = ("
		13 12 10 6
	")
}

ee,wfn = optimize('scf', return_wfn=True)
oeprop( wfn, 'DIPOLE', 'QUADRUPOLE', 'MULLIKEN_CHARGES')
f=open( 'psi4out.xyz', 'w' )
f.write( "18  " )
f.write( str(ee) + "\n" )
f.write( MOL.save_string_xyz() )
f.close()
--------------------------------------------------------------------------

    Molecular point group: c1
  Charge       = 0
  Multiplicity = 1
  Basis Set: CC-PVTZ
  Basis Set:
  @DF-RHF Final Energy:  -457.50998061416465
    Total Energy =                       -457.5099806141647605
    Molecular point group: c1
  Basis Set: CC-PVTZ
  Basis Set:
  Basis Set: CC-PVTZ
  Basis Set:
  @DF-RHF Final Energy:  -457.50967752656953
    Total Energy =                       -457.5096775265699307
  Basis Set: CC-PVTZ
  Basis Set:
  Basis Set: CC-PVTZ
  Basis Set:
  @DF-RHF Final Energy:  -457.50999755415478
    Total Energy =                       -457.5099975541545518
  Basis Set: CC-PVTZ
  Basis Set:
  Basis Set: CC-PVTZ
  Basis Set:
  @DF-RHF Final Energy:  -457.51000509939229
    Total Energy =                       -457.5100050993924015
  Basis Set: CC-PVTZ
  Basis Set:
  Charge       = 0
  Multiplicity = 1
  Basis Set: CC-PVTZ
  Basis Set:

    Orbital Energies (a.u.)
    -----------------------

    Doubly Occupied:

       1A    -20.601113     2A    -20.534612     3A    -11.371776
       4A    -11.281292     5A    -11.245137     6A    -11.243413
       7A    -11.242763     8A    -11.240192     9A    -11.236182
      10A    -11.235428    11A     -1.477130    12A     -1.368562
      13A     -1.170896    14A     -1.051944    15A     -1.029149
      16A     -0.980579    17A     -0.863268    18A     -0.838669
      19A     -0.781354    20A     -0.744962    21A     -0.687881
      22A     -0.681870    23A     -0.676646    24A     -0.634063
      25A     -0.630299    26A     -0.601301    27A     -0.587906
      28A     -0.564489    29A     -0.532207    30A     -0.520312
      31A     -0.509703    32A     -0.502487    33A     -0.464108
      34A     -0.449530    35A     -0.350181    36A     -0.346361

  @DF-RHF Final Energy:  -457.51000523619041

   => Energetics <=

    Nuclear Repulsion Energy =            494.0278188353640871
    One-Electron Energy =               -1602.5201141968418597
    Two-Electron Energy =                 650.9822901252871361
    DFT Exchange-Correlation Energy =       0.0000000000000000
    Empirical Dispersion Energy =           0.0000000000000000
    PCM Polarization Energy =               0.0000000000000000
    EFP Energy =                            0.0000000000000000
    Total Energy =                       -457.5100052361906364
    Molecular point group: c1
  Basis Set: CC-PVTZ
  Basis Set:

  -Total Gradient:
     Atom            X                  Y                   Z
    ------   -----------------  -----------------  -----------------
       1        0.000001003045     0.000000256884     0.000004544419
       2        0.000001721688     0.000001550438    -0.000015507091
       3       -0.000000005660    -0.000002206758     0.000013985248
       4        0.000000258906    -0.000002763495    -0.000006745997
       5       -0.000000318158    -0.000001066213    -0.000005038550
       6       -0.000002433960     0.000000060139     0.001166381024
       7       -0.000001081465     0.000001566078     0.000002229818
       8       -0.000001673074    -0.000009914660     0.000023205346
       9        0.000001976573    -0.000004362747     0.000004295152
      10        0.000016000349     0.000100023987    -0.001275681992
      11       -0.000002702914     0.000004971549    -0.000015056082
      12        0.000054621429    -0.000334252878    -0.001055911615
      13       -0.000076832905     0.000238990586     0.001176098670
      14       -0.000017893058     0.000014100296    -0.000005515496
      15        0.000044438278     0.000001570604    -0.000028302289
      16        0.000002706339    -0.000004030806     0.000015967232
      17       -0.000006242647    -0.000001260542     0.000004397392
      18       -0.000013542763    -0.000003232461    -0.000003345189

  **** Optimization is complete! (in 5 steps) ****
    Final optimized geometry and variables:
    Molecular point group: c1

    Geometry (in Angstrom), charge = 0, multiplicity = 1:

    H           -4.026505725225    -0.429087910044    -0.012816035772
    C           -2.963555078786    -0.279662185238    -0.018817762931
    C           -2.447199493394     1.003744421635    -0.021329271241
    C           -2.114592230928    -1.370192160677    -0.022523543818
    H           -3.106718510917     1.849808181324    -0.015616236139
    C           -1.081212926953     1.195138372128    -0.032110622025
    H           -2.515840814398    -2.365146828648    -0.020332816453
    C           -0.746505499968    -1.180170784749    -0.025506810230
    H           -0.664817419027     2.181981279629    -0.039116294480
    C           -0.226186635081     0.104017763906    -0.035894799452
    H           -0.086164115888    -2.022667304721    -0.021857382974
    C            1.242238924694     0.363295454085    -0.036194419958
    O            1.959704904658    -0.724728558534     0.170942806423
    O            1.722460195320     1.435698919488    -0.192302997394
    C            3.365891918110    -0.578042905187     0.182661036467
    H            3.716426514162    -0.197180735336    -0.764816670453
    H            3.764909388858    -1.563472577637     0.359753714375
    H            3.670364842927     0.095493424759     0.969492501039

  Mulliken Charges: (a.u.)
   Center  Symbol    Alpha    Beta     Spin     Total
       1     H     0.42032  0.42032  0.00000  0.15936
       2     C     3.07020  3.07020  0.00000 -0.14039
       3     C     3.07504  3.07504  0.00000 -0.15008
       4     C     3.07455  3.07455  0.00000 -0.14910
       5     H     0.42042  0.42042  0.00000  0.15915
       6     C     3.07710  3.07710  0.00000 -0.15419
       7     H     0.42186  0.42186  0.00000  0.15627
       8     C     3.08249  3.08249  0.00000 -0.16497
       9     H     0.40708  0.40708  0.00000  0.18585
      10     C     3.00665  3.00665  0.00000 -0.01331
      11     H     0.41160  0.41160  0.00000  0.17681
      12     C     2.78687  2.78687  0.00000  0.42625
      13     O     4.14802  4.14802  0.00000 -0.29603
      14     O     4.21080  4.21080  0.00000 -0.42159
      15     C     3.03657  3.03657  0.00000 -0.07314
      16     H     0.45301  0.45301  0.00000  0.09398
      17     H     0.44515  0.44515  0.00000  0.10969
      18     H     0.45228  0.45228  0.00000  0.09544

   Total alpha = 36.00000, Total beta = 36.00000, Total charge =  0.00000

*** Psi4 exiting successfully. Buy a developer a beer!
