                              Psi4 1.0.54 Driver

  ==> Input File <==

--------------------------------------------------------------------------
set {
	reference rhf
	basis cc-pvtz
}

set_num_threads( 4 )
memory 2 gb

molecule MOL {
0 1

O	 -2.071633	 -1.227563	 -0.223463
C	 -1.652164	 -0.152425	 0.058082
C	 -0.327811	 0.006324	 0.778296
C	 -2.402515	 1.108629	 -0.298924
C	 0.843231	 -0.001575	 -0.211665
H	 -0.319484	 0.928173	 1.350354
H	 -0.227804	 -0.823091	 1.466705
C	 2.197693	 0.138030	 0.476937
H	 0.722944	 0.805202	 -0.930230
H	 0.813976	 -0.926978	 -0.776588
C	 3.098987	 -1.073431	 0.264346
H	 2.698398	 1.029745	 0.109971
H	 2.042366	 0.290513	 1.540968
H	 3.301470	 -1.231254	 -0.789754
H	 2.637950	 -1.976054	 0.650461
H	 4.050071	 -0.946073	 0.767955
H	 -3.240910	 0.874416	 -0.936711
H	 -1.747554	 1.818823	 -0.790984
H	 -2.760419	 1.579708	 0.610998

	symmetry c1
}
set optking {
	frozen_dihedral = ("
		11 8 5 9
	")
}

ee,wfn = optimize('scf', return_wfn=True)
oeprop( wfn, 'DIPOLE', 'QUADRUPOLE', 'MULLIKEN_CHARGES')
f=open( 'psi4out.xyz', 'w' )
f.write( "19  " )
f.write( str(ee) + "\n" )
f.write( MOL.save_string_xyz() )
f.close()
--------------------------------------------------------------------------

    Molecular point group: c1
  Charge       = 0
  Multiplicity = 1
  Basis Set: CC-PVTZ
  Basis Set:
  @DF-RHF Final Energy:  -309.17132656909519
    Total Energy =                       -309.1713265690952994
    Molecular point group: c1
  Basis Set: CC-PVTZ
  Basis Set:
  Basis Set: CC-PVTZ
  Basis Set:
  @DF-RHF Final Energy:  -309.17155947730959
    Total Energy =                       -309.1715594773098701
  Basis Set: CC-PVTZ
  Basis Set:
  Basis Set: CC-PVTZ
  Basis Set:
  @DF-RHF Final Energy:  -309.17151856380337
    Total Energy =                       -309.1715185638033745
  Basis Set: CC-PVTZ
  Basis Set:
  Basis Set: CC-PVTZ
  Basis Set:
  @DF-RHF Final Energy:  -309.17160521343646
    Total Energy =                       -309.1716052134365214
  Basis Set: CC-PVTZ
  Basis Set:
  Basis Set: CC-PVTZ
  Basis Set:
  @DF-RHF Final Energy:  -309.17163417304846
    Total Energy =                       -309.1716341730485738
  Basis Set: CC-PVTZ
  Basis Set:
  Basis Set: CC-PVTZ
  Basis Set:
  @DF-RHF Final Energy:  -309.17164725678066
    Total Energy =                       -309.1716472567806022
  Basis Set: CC-PVTZ
  Basis Set:
  Charge       = 0
  Multiplicity = 1
  Basis Set: CC-PVTZ
  Basis Set:

    Orbital Energies (a.u.)
    -----------------------

    Doubly Occupied:

       1A    -20.537073     2A    -11.319319     3A    -11.228754
       4A    -11.228139     5A    -11.227021     6A    -11.222682
       7A    -11.212324     8A     -1.397097     9A     -1.090334
      10A     -1.029437    11A     -0.984001    12A     -0.891512
      13A     -0.806629    14A     -0.736303    15A     -0.656992
      16A     -0.653523    17A     -0.618100    18A     -0.613257
      19A     -0.592328    20A     -0.578122    21A     -0.545694
      22A     -0.533472    23A     -0.525316    24A     -0.498539
      25A     -0.481254    26A     -0.474908    27A     -0.465282
      28A     -0.398951

  @DF-RHF Final Energy:  -309.17164728713436

   => Energetics <=

    Nuclear Repulsion Energy =            302.5197920500355053
    One-Electron Energy =               -1018.2901496036131448
    Two-Electron Energy =                 406.5987102664431632
    DFT Exchange-Correlation Energy =       0.0000000000000000
    Empirical Dispersion Energy =           0.0000000000000000
    PCM Polarization Energy =               0.0000000000000000
    EFP Energy =                            0.0000000000000000
    Total Energy =                       -309.1716472871345331
    Molecular point group: c1
  Basis Set: CC-PVTZ
  Basis Set:

  -Total Gradient:
     Atom            X                  Y                   Z
    ------   -----------------  -----------------  -----------------
       1       -0.000006002981     0.000000169583    -0.000002679639
       2        0.000012405392     0.000007498350    -0.000000858225
       3       -0.000006962751    -0.000005634179     0.000004069577
       4       -0.000008507170    -0.000004278073     0.000006011402
       5       -0.000137779159     0.000270356499     0.000209015631
       6        0.000000707094    -0.000001021192    -0.000000332308
       7       -0.000002724548     0.000001962064     0.000000968424
       8       -0.000078376903    -0.000168763129     0.000200566977
       9        0.000135514101    -0.000185411306    -0.000229136567
      10       -0.000001025517     0.000001562524     0.000003347214
      11        0.000090201214     0.000089063253    -0.000187900802
      12       -0.000004907951     0.000000971781     0.000002987791
      13        0.000002943017     0.000000843540    -0.000003278422
      14        0.000002951509     0.000003875518     0.000002758979
      15        0.000001361021    -0.000006894676    -0.000005122380
      16       -0.000004338956    -0.000000884776     0.000003256955
      17        0.000001833392    -0.000000327205    -0.000000547358
      18        0.000000608001    -0.000003286874    -0.000000372877
      19        0.000002101197     0.000000198296    -0.000002754376

  **** Optimization is complete! (in 7 steps) ****
    Final optimized geometry and variables:
    Molecular point group: c1

    Geometry (in Angstrom), charge = 0, multiplicity = 1:

    O           -2.027982409361    -1.054320313042    -0.351075488588
    C           -1.616993568772     0.023646523500    -0.067488989848
    C           -0.298316756042     0.190776066558     0.661075304752
    C           -2.373006820343     1.279765403323    -0.429794994953
    C            0.880837403064     0.189567486419    -0.320884941527
    H           -0.298534738029     1.112931912044     1.232581526077
    H           -0.196546434270    -0.637744352295     1.350703329505
    C            2.249839013157     0.316920688593     0.379596004713
    H            0.755609532562     0.995709683508    -1.036203180763
    H            0.842800013094    -0.730005491431    -0.892499762261
    C            3.151439988056    -0.895477844658     0.166290631229
    H            2.761646478563     1.204342568711     0.024190483474
    H            2.103116821362     0.464721853116     1.444408572689
    H            3.363986082809    -1.042326390414    -0.887074092888
    H            2.682170743190    -1.800833872020     0.536469722792
    H            4.097066884077    -0.775932204827     0.682566932387
    H           -3.203986684322     1.040270726206    -1.075283300522
    H           -1.718944453063     1.995515956953    -0.914880911417
    H           -2.742657946872     1.746770977596     0.477551638539

  Mulliken Charges: (a.u.)
   Center  Symbol    Alpha    Beta     Spin     Total
       1     O     4.17689  4.17689  0.00000 -0.35379
       2     C     2.85889  2.85889  0.00000  0.28223
       3     C     3.09996  3.09996  0.00000 -0.19992
       4     C     3.15519  3.15519  0.00000 -0.31039
       5     C     3.10506  3.10506  0.00000 -0.21012
       6     H     0.44806  0.44806  0.00000  0.10388
       7     H     0.43883  0.43883  0.00000  0.12235
       8     C     3.08991  3.08991  0.00000 -0.17981
       9     H     0.44645  0.44645  0.00000  0.10711
      10     H     0.44148  0.44148  0.00000  0.11704
      11     C     3.14642  3.14642  0.00000 -0.29284
      12     H     0.44881  0.44881  0.00000  0.10238
      13     H     0.45352  0.45352  0.00000  0.09296
      14     H     0.45350  0.45350  0.00000  0.09300
      15     H     0.45245  0.45245  0.00000  0.09511
      16     H     0.44912  0.44912  0.00000  0.10176
      17     H     0.43615  0.43615  0.00000  0.12771
      18     H     0.45092  0.45092  0.00000  0.09817
      19     H     0.44841  0.44841  0.00000  0.10318

   Total alpha = 28.00000, Total beta = 28.00000, Total charge = -0.00000

*** Psi4 exiting successfully. Buy a developer a beer!
