  ==> Input File <==

--------------------------------------------------------------------------
set {
	reference rhf
	basis 6-31G*
}

set_num_threads( 4 )
memory 2 gb

molecule MOL {
0 1

H	 -0.935315	 -0.953188	 -0.913580
O	 -1.422729	 -0.573567	 -0.196946
C	 -0.731407	 0.539437	 0.309156
C	 0.680193	 0.672443	 -0.251532
H	 -1.319765	 1.404033	 0.030086
H	 -0.700012	 0.506517	 1.397677
C	 1.599139	 -0.492137	 0.118598
H	 0.616402	 0.758534	 -1.332349
H	 1.107032	 1.602637	 0.117369
H	 1.239738	 -1.428634	 -0.297334
H	 2.601428	 -0.335055	 -0.265730
H	 1.674954	 -0.608418	 1.197020

	symmetry c1
}
set optking {
	frozen_dihedral = ("
		1 2 3 4
	")
}

ee = optimize('scf')
oeprop('DIPOLE', 'QUADRUPOLE', 'MULLIKEN_CHARGES')
f=open( 'psi4out.xyz', 'w' )
f.write( "12  " )
f.write( str(ee) + "\n" )
f.write( MOL.save_string_xyz() )
f.close()
--------------------------------------------------------------------------

    Molecular point group: c1
  Charge       = 0
  Multiplicity = 1
  Basis Set: 6-31G*
  Basis Set:
  @DF-RHF Final Energy:  -193.10647891045522
    Total Energy =                       -193.1064789104552801
    Molecular point group: c1
  Basis Set: 6-31G*
  Basis Set:
  Basis Set: 6-31G*
  Basis Set:
  @DF-RHF Final Energy:  -193.10706309153051
    Total Energy =                       -193.1070630915304775
  Basis Set: 6-31G*
  Basis Set:
  Basis Set: 6-31G*
  Basis Set:
  @DF-RHF Final Energy:  -193.10730118251675
    Total Energy =                       -193.1073011825166930
  Basis Set: 6-31G*
  Basis Set:
  Basis Set: 6-31G*
  Basis Set:
  @DF-RHF Final Energy:  -193.10731011401768
    Total Energy =                       -193.1073101140176220
  Basis Set: 6-31G*
  Basis Set:
  Basis Set: 6-31G*
  Basis Set:
  @DF-RHF Final Energy:  -193.10732643856477
    Total Energy =                       -193.1073264385647406
  Basis Set: 6-31G*
  Basis Set:
  Charge       = 0
  Multiplicity = 1
  Basis Set: 6-31G*
  Basis Set:

    Orbital Energies (a.u.)
    -----------------------

    Doubly Occupied:

       1A    -20.550005     2A    -11.267412     3A    -11.228125
       4A    -11.219616     5A     -1.357409     6A     -1.055249
       7A     -0.927831     8A     -0.820393     9A     -0.663365
      10A     -0.645504    11A     -0.635338    12A     -0.574888
      13A     -0.547868    14A     -0.512316    15A     -0.493722
      16A     -0.465177    17A     -0.430876

  @DF-RHF Final Energy:  -193.10732740753758

   => Energetics <=

    Nuclear Repulsion Energy =            133.1152753067148069
    One-Electron Energy =                -525.6550160842341484
    Two-Electron Energy =                 199.4324133699818447
    DFT Exchange-Correlation Energy =       0.0000000000000000
    Empirical Dispersion Energy =           0.0000000000000000
    PCM Polarization Energy =               0.0000000000000000
    EFP Energy =                            0.0000000000000000
    Total Energy =                       -193.1073274075374968
    Molecular point group: c1
  Basis Set: 6-31G*
  Basis Set:

  -Total Gradient:
     Atom            X                  Y                   Z
    ------   -----------------  -----------------  -----------------
       1        0.000831863282    -0.001040913611     0.001113137452
       2       -0.001185603914     0.001526999682    -0.001743015888
       3        0.000712034044    -0.001104605583     0.001397791074
       4       -0.000378056564     0.000608610688    -0.000825054790
       5        0.000009068704     0.000003209033     0.000012707687
       6        0.000024186346     0.000006749765     0.000005839968
       7       -0.000000879710     0.000002892604    -0.000001346847
       8       -0.000013618446    -0.000008449579     0.000017733704
       9        0.000002785010     0.000014205623     0.000016065075
      10        0.000003679948    -0.000003685732    -0.000012447666
      11       -0.000024950547    -0.000008447854    -0.000000790408
      12        0.000019491846     0.000003434965     0.000019380638

  **** Optimization is complete! (in 6 steps) ****
    Final optimized geometry and variables:
    Molecular point group: c1

    Geometry (in Angstrom), charge = 0, multiplicity = 1:

    H           -0.956290277684    -0.969878846662    -0.905959979820
    O           -1.433510053725    -0.580108903688    -0.188917098603
    C           -0.734078471987     0.529633813821     0.320078881219
    C            0.680634368158     0.664885431245    -0.230914181446
    H           -1.296963046765     1.430244255715     0.091189967946
    H           -0.703048444261     0.431175982430     1.400468912161
    C            1.603175669572    -0.494786600733     0.149462641551
    H            0.629168155164     0.760833343035    -1.314586513530
    H            1.100748128887     1.597208568156     0.136900023299
    H            1.228724263083    -1.447170068151    -0.212793042263
    H            2.595476607697    -0.354008715410    -0.266224546174
    H            1.700641180100    -0.573251963387     1.227961754573

  Mulliken Charges: (a.u.)
   Center  Symbol    Alpha    Beta     Spin     Total
       1     H     0.27947  0.27947  0.00000  0.44107
       2     O     4.37713  4.37713  0.00000 -0.75426
       3     C     2.97612  2.97612  0.00000  0.04775
       4     C     3.18732  3.18732  0.00000 -0.37465
       5     H     0.42477  0.42477  0.00000  0.15046
       6     H     0.42382  0.42382  0.00000  0.15236
       7     C     3.24018  3.24018  0.00000 -0.48036
       8     H     0.42104  0.42104  0.00000  0.15793
       9     H     0.41561  0.41561  0.00000  0.16877
      10     H     0.42201  0.42201  0.00000  0.15598
      11     H     0.41601  0.41601  0.00000  0.16797
      12     H     0.41651  0.41651  0.00000  0.16698

   Total alpha = 17.00000, Total beta = 17.00000, Total charge =  0.00000
