  ==> Input File <==

--------------------------------------------------------------------------
set {
	reference rhf
	basis 6-31G*
}

set_num_threads( 4 )
memory 2 gb

molecule MOL {
0 1

O	 -2.439739	 -0.935931	 -0.423848
C	 -1.921153	 0.064240	 -0.045697
C	 -2.624470	 1.379923	 0.150949
O	 -0.632575	 0.154573	 0.251549
H	 -2.168117	 2.136577	 -0.476876
H	 -3.669540	 1.273223	 -0.098610
H	 -2.519365	 1.700893	 1.180846
C	 0.160891	 -1.019931	 0.106212
C	 1.589627	 -0.672828	 0.480843
H	 0.089836	 -1.367806	 -0.916050
H	 -0.238459	 -1.792301	 0.749618
C	 2.246377	 0.346236	 -0.452210
H	 2.163194	 -1.597435	 0.473358
H	 1.604769	 -0.303424	 1.502885
C	 3.668172	 0.704130	 -0.021617
H	 2.264846	 -0.054031	 -1.463914
H	 1.639520	 1.245087	 -0.486125
H	 4.111349	 1.428248	 -0.697842
H	 4.308996	 -0.173076	 -0.010196
H	 3.679022	 1.133894	 0.976012

	symmetry c1
}
set optking {
	frozen_dihedral = ("
		16 12 9 8
	")
}

ee = optimize('scf')
oeprop('DIPOLE', 'QUADRUPOLE', 'MULLIKEN_CHARGES')
f=open( 'psi4out.xyz', 'w' )
f.write( "20  " )
f.write( str(ee) + "\n" )
f.write( MOL.save_string_xyz() )
f.close()
--------------------------------------------------------------------------

    Molecular point group: c1
  Charge       = 0
  Multiplicity = 1
  Basis Set: 6-31G*
  Basis Set:
  @DF-RHF Final Energy:  -383.94566185043067
    Total Energy =                       -383.9456618504308381
    Molecular point group: c1
  Basis Set: 6-31G*
  Basis Set:
  Basis Set: 6-31G*
  Basis Set:
  @DF-RHF Final Energy:  -383.94554921535848
    Total Energy =                       -383.9455492153584828
  Basis Set: 6-31G*
  Basis Set:
  Basis Set: 6-31G*
  Basis Set:
  @DF-RHF Final Energy:  -383.94566476984733
    Total Energy =                       -383.9456647698472125
  Basis Set: 6-31G*
  Basis Set:
  Basis Set: 6-31G*
  Basis Set:
  @DF-RHF Final Energy:  -383.94566852682630
    Total Energy =                       -383.9456685268261253
  Basis Set: 6-31G*
  Basis Set:
  Charge       = 0
  Multiplicity = 1
  Basis Set: 6-31G*
  Basis Set:

    Orbital Energies (a.u.)
    -----------------------

    Doubly Occupied:

       1A    -20.601896     2A    -20.544137     3A    -11.374601
       4A    -11.282389     5A    -11.233494     6A    -11.225504
       7A    -11.220587     8A    -11.213387     9A     -1.468070
      10A     -1.362302    11A     -1.086039    12A     -1.028289
      13A     -0.981411    14A     -0.880205    15A     -0.811300
      16A     -0.775355    17A     -0.689721    18A     -0.683404
      19A     -0.667057    20A     -0.631545    21A     -0.601434
      22A     -0.592518    23A     -0.572398    24A     -0.550737
      25A     -0.544064    26A     -0.531718    27A     -0.512015
      28A     -0.483208    29A     -0.474896    30A     -0.472282
      31A     -0.448890    32A     -0.438812

  @DF-RHF Final Energy:  -383.94566858870530

   => Energetics <=

    Nuclear Repulsion Energy =            385.2323112452652367
    One-Electron Energy =               -1286.3886269713470938
    Two-Electron Energy =                 517.2106471373770091
    DFT Exchange-Correlation Energy =       0.0000000000000000
    Empirical Dispersion Energy =           0.0000000000000000
    PCM Polarization Energy =               0.0000000000000000
    EFP Energy =                            0.0000000000000000
    Total Energy =                       -383.9456685887048479
    Molecular point group: c1
  Basis Set: 6-31G*
  Basis Set:

  -Total Gradient:
     Atom            X                  Y                   Z
    ------   -----------------  -----------------  -----------------
       1        0.000004600235     0.000006455246     0.000009009214
       2       -0.000015254295    -0.000010120206     0.000006976401
       3        0.000002600810     0.000000981949    -0.000007735543
       4        0.000035800668    -0.000006572549     0.000013376521
       5       -0.000000410755     0.000002556460     0.000001135661
       6       -0.000000156690     0.000000901503     0.000000078557
       7        0.000000346494    -0.000002585045    -0.000002485320
       8       -0.000120587816     0.000276699834     0.000136562835
       9        0.000252342281    -0.000398264368    -0.000240506308
      10        0.000000453556    -0.000005358617     0.000015275642
      11       -0.000011516120    -0.000004016434     0.000013819881
      12       -0.000587291726     0.000314133855    -0.000059743042
      13       -0.000014720541     0.000009944013    -0.000018374937
      14        0.000017507775    -0.000004540876     0.000019418091
      15        0.000001862636     0.000020708929     0.000023108985
      16        0.000436406665    -0.000190309134     0.000078344233
      17       -0.000005697686    -0.000019768009     0.000005047818
      18        0.000001070918    -0.000001608602    -0.000001081790
      19       -0.000011392813     0.000000894964     0.000001112738
      20        0.000014036405     0.000009867090     0.000006660359

  **** Optimization is complete! (in 5 steps) ****
    Final optimized geometry and variables:
    Molecular point group: c1

    Geometry (in Angstrom), charge = 0, multiplicity = 1:

    O           -2.437827533564    -0.944139161022    -0.426848491869
    C           -1.918994860492     0.057119804386    -0.051847080594
    C           -2.624072466862     1.371280824861     0.149259705278
    O           -0.630227253467     0.148686259479     0.243787937188
    H           -2.171695761202     2.129407513676    -0.479644161073
    H           -3.669884638486     1.262725756689    -0.096383554364
    H           -2.515477551027     1.691263623466     1.179122516324
    C            0.164535985247    -1.024735577543     0.097006581695
    C            1.592151773728    -0.676642811197     0.475500907052
    H            0.095262050224    -1.370558177192    -0.926102058732
    H           -0.235248297869    -1.798803581967     0.738116304302
    C            2.251629594622     0.340684063057    -0.457478779151
    H            2.167271571438    -1.600183509672     0.474620610260
    H            1.601334421755    -0.303280833177     1.496205270496
    C            3.674274915213     0.694664424959    -0.025656868742
    H            2.272942553957    -0.062282033350    -1.468012681685
    H            1.647521096351     1.241212710297    -0.493257154553
    H            4.123419562976     1.410461257583    -0.706811208814
    H            4.310411424542    -0.185849232810    -0.004823315687
    H            3.684613843916     1.132883641910     0.968262648150

  Mulliken Charges: (a.u.)
   Center  Symbol    Alpha    Beta     Spin     Total
       1     O     4.28330  4.28330  0.00000 -0.56659
       2     C     2.61921  2.61921  0.00000  0.76157
       3     C     3.28167  3.28167  0.00000 -0.56334
       4     O     4.30858  4.30858  0.00000 -0.61717
       5     H     0.40079  0.40079  0.00000  0.19843
       6     H     0.39684  0.39684  0.00000  0.20631
       7     H     0.40058  0.40058  0.00000  0.19883
       8     C     3.00266  3.00266  0.00000 -0.00533
       9     C     3.16467  3.16467  0.00000 -0.32934
      10     H     0.41065  0.41065  0.00000  0.17870
      11     H     0.40830  0.40830  0.00000  0.18341
      12     C     3.15535  3.15535  0.00000 -0.31069
      13     H     0.41809  0.41809  0.00000  0.16382
      14     H     0.41465  0.41465  0.00000  0.17070
      15     C     3.24039  3.24039  0.00000 -0.48077
      16     H     0.42271  0.42271  0.00000  0.15458
      17     H     0.41174  0.41174  0.00000  0.17652
      18     H     0.41760  0.41760  0.00000  0.16480
      19     H     0.42171  0.42171  0.00000  0.15658
      20     H     0.42051  0.42051  0.00000  0.15899

   Total alpha = 32.00000, Total beta = 32.00000, Total charge = -0.00000
