                              Psi4 1.0.54 Driver

  ==> Input File <==

--------------------------------------------------------------------------
set {
	reference rhf
	basis cc-pvtz
}

set_num_threads( 4 )
memory 2 gb

molecule MOL {
0 1

H	 2.990543	 0.341347	 1.128000
O	 2.291804	 0.884073	 0.812934
C	 1.135873	 0.113391	 0.608264
C	 0.027642	 1.012027	 0.090274
H	 0.815450	 -0.342958	 1.541453
H	 1.335894	 -0.690959	 -0.094213
C	 -1.138737	 0.285728	 -0.581921
H	 0.464661	 1.708096	 -0.618252
H	 -0.340737	 1.603071	 0.925246
C	 -1.933983	 -0.631436	 0.343653
H	 -0.763151	 -0.285569	 -1.422081
H	 -1.808359	 1.035291	 -0.992333
H	 -2.789188	 -1.049673	 -0.174718
H	 -1.335629	 -1.461368	 0.700418
H	 -2.305435	 -0.092167	 1.209725

	symmetry c1
}
set optking {
	frozen_dihedral = ("
		2 3 4 8
	")
}

ee,wfn = optimize('scf', return_wfn=True)
oeprop( wfn, 'DIPOLE', 'QUADRUPOLE', 'MULLIKEN_CHARGES')
f=open( 'psi4out.xyz', 'w' )
f.write( "15  " )
f.write( str(ee) + "\n" )
f.write( MOL.save_string_xyz() )
f.close()
--------------------------------------------------------------------------

    Molecular point group: c1
  Charge       = 0
  Multiplicity = 1
  Basis Set: CC-PVTZ
  Basis Set:
  @DF-RHF Final Energy:  -232.23630624832592
    Total Energy =                       -232.2363062483259455
    Molecular point group: c1
  Basis Set: CC-PVTZ
  Basis Set:
  Basis Set: CC-PVTZ
  Basis Set:
  @DF-RHF Final Energy:  -232.23660700982623
    Total Energy =                       -232.2366070098261162
  Basis Set: CC-PVTZ
  Basis Set:
  Basis Set: CC-PVTZ
  Basis Set:
  @DF-RHF Final Energy:  -232.23663870272523
    Total Energy =                       -232.2366387027253154
  Basis Set: CC-PVTZ
  Basis Set:
  Basis Set: CC-PVTZ
  Basis Set:
  @DF-RHF Final Energy:  -232.23666212436024
    Total Energy =                       -232.2366621243602367
  Basis Set: CC-PVTZ
  Basis Set:
  Basis Set: CC-PVTZ
  Basis Set:
  @DF-RHF Final Energy:  -232.23666665970450
    Total Energy =                       -232.2366666597044400
  Basis Set: CC-PVTZ
  Basis Set:
  Charge       = 0
  Multiplicity = 1
  Basis Set: CC-PVTZ
  Basis Set:

    Orbital Energies (a.u.)
    -----------------------

    Doubly Occupied:

       1A    -20.545664     2A    -11.265181     3A    -11.216283
       4A    -11.209421     5A    -11.209274     6A     -1.363367
       7A     -1.070942     8A     -0.971496     9A     -0.870842
      10A     -0.784692    11A     -0.700947    12A     -0.651015
      13A     -0.614544    14A     -0.589101    15A     -0.558463
      16A     -0.537257    17A     -0.510385    18A     -0.475038
      19A     -0.473400    20A     -0.456585    21A     -0.435991

  @DF-RHF Final Energy:  -232.23666679274058

   => Energetics <=

    Nuclear Repulsion Energy =            188.4517755321346328
    One-Electron Energy =                -688.3571112089382495
    Two-Electron Energy =                 267.6686688840630950
    DFT Exchange-Correlation Energy =       0.0000000000000000
    Empirical Dispersion Energy =           0.0000000000000000
    PCM Polarization Energy =               0.0000000000000000
    EFP Energy =                            0.0000000000000000
    Total Energy =                       -232.2366667927404933
    Molecular point group: c1
  Basis Set: CC-PVTZ
  Basis Set:

  -Total Gradient:
     Atom            X                  Y                   Z
    ------   -----------------  -----------------  -----------------
       1       -0.000005993635     0.000005548488    -0.000008509911
       2        0.000602650081    -0.000376686029    -0.001919962164
       3       -0.000675189017     0.000815060307     0.002912121499
       4       -0.000401717464    -0.002140292964    -0.002975380926
       5        0.000008334420     0.000004357175    -0.000004179954
       6        0.000009441877     0.000005280056     0.000008085359
       7        0.000013092608     0.000013695707     0.000002118889
       8        0.000465530673     0.001686155918     0.001986942351
       9       -0.000002467435     0.000001437976    -0.000005495412
      10       -0.000005154904    -0.000013681763     0.000000523629
      11       -0.000007116324     0.000005816203     0.000006578961
      12        0.000003597730    -0.000007355140     0.000000948675
      13       -0.000003110984    -0.000003271715     0.000004845295
      14       -0.000008586840     0.000005368587    -0.000002600429
      15        0.000006689215    -0.000001432809    -0.000006035863

  **** Optimization is complete! (in 6 steps) ****
    Final optimized geometry and variables:
    Molecular point group: c1

    Geometry (in Angstrom), charge = 0, multiplicity = 1:

    H            2.820531462757     0.040973509500     0.920406083663
    O            2.143767820271     0.561953106691     0.529602506300
    C            0.995823551906    -0.218054857163     0.318671430146
    C           -0.108618297122     0.690840878984    -0.194966503491
    H            0.695082937743    -0.709348872175     1.239326925055
    H            1.202737494219    -0.995009005648    -0.415444363436
    C           -1.272709134558    -0.041804555599    -0.858130761458
    H            0.342634375534     1.387370779824    -0.892422930183
    H           -0.476910912433     1.294182987241     0.630186368455
    C           -2.049312976501    -0.968849967175     0.074645763984
    H           -0.903385587544    -0.611446742861    -1.706590126549
    H           -1.954658075730     0.697718311169    -1.264609149831
    H           -2.897970061546    -1.408212937933    -0.436679726825
    H           -1.433855632443    -1.783006426097     0.440298514980
    H           -2.426409818404    -0.427517110335     0.936240578775

  Mulliken Charges: (a.u.)
   Center  Symbol    Alpha    Beta     Spin     Total
       1     H     0.39633  0.39633  0.00000  0.20734
       2     O     4.19688  4.19688  0.00000 -0.39375
       3     C     2.96345  2.96345  0.00000  0.07309
       4     C     3.09075  3.09075  0.00000 -0.18150
       5     H     0.47188  0.47188  0.00000  0.05625
       6     H     0.47551  0.47551  0.00000  0.04899
       7     C     3.09784  3.09784  0.00000 -0.19568
       8     H     0.44404  0.44404  0.00000  0.11193
       9     H     0.45400  0.45400  0.00000  0.09200
      10     C     3.15163  3.15163  0.00000 -0.30326
      11     H     0.45417  0.45417  0.00000  0.09167
      12     H     0.44773  0.44773  0.00000  0.10454
      13     H     0.44629  0.44629  0.00000  0.10743
      14     H     0.45579  0.45579  0.00000  0.08842
      15     H     0.45373  0.45373  0.00000  0.09254

   Total alpha = 21.00000, Total beta = 21.00000, Total charge = -0.00000

*** Psi4 exiting successfully. Buy a developer a beer!
