  ==> Input File <==

--------------------------------------------------------------------------
set {
	reference rhf
	basis 6-31G*
}

set_num_threads( 4 )
memory 2 gb

molecule MOL {
0 1

H	 -2.498997	 1.199667	 -1.031155
N	 -1.509354	 1.205906	 -0.877722
C	 -0.831732	 0.371720	 -1.854486
H	 -1.347373	 0.842852	 0.041551
C	 0.657980	 0.363601	 -1.582777
H	 -1.184038	 -0.660580	 -1.869915
H	 -1.000283	 0.788143	 -2.842901
O	 0.874168	 -0.245412	 -0.342030
H	 1.180579	 -0.185747	 -2.365558
H	 1.033410	 1.384475	 -1.572506
C	 2.202317	 -0.244239	 0.074611
H	 2.711377	 -1.041390	 -0.449894
H	 2.692099	 0.699270	 -0.159667
H	 2.283185	 -0.418429	 1.145558

	symmetry c1
}
set optking {
	frozen_dihedral = ("
		5 8 11 13
	")
}

ee = optimize('scf')
oeprop('DIPOLE', 'QUADRUPOLE', 'MULLIKEN_CHARGES')
f=open( 'psi4out.xyz', 'w' )
f.write( "14  " )
f.write( str(ee) + "\n" )
f.write( MOL.save_string_xyz() )
f.close()
--------------------------------------------------------------------------

    Molecular point group: c1
  Charge       = 0
  Multiplicity = 1
  Basis Set: 6-31G*
  Basis Set:
  @DF-RHF Final Energy:  -248.12334646627559
    Total Energy =                       -248.1233464662756205
    Molecular point group: c1
  Basis Set: 6-31G*
  Basis Set:
  Basis Set: 6-31G*
  Basis Set:
  @DF-RHF Final Energy:  -248.12406969406675
    Total Energy =                       -248.1240696940666339
  Basis Set: 6-31G*
  Basis Set:
  Basis Set: 6-31G*
  Basis Set:
  @DF-RHF Final Energy:  -248.12425884007689
    Total Energy =                       -248.1242588400768341
  Basis Set: 6-31G*
  Basis Set:
  Basis Set: 6-31G*
  Basis Set:
  @DF-RHF Final Energy:  -248.12426000396320
    Total Energy =                       -248.1242600039632862
  Basis Set: 6-31G*
  Basis Set:
  Charge       = 0
  Multiplicity = 1
  Basis Set: 6-31G*
  Basis Set:

    Orbital Energies (a.u.)
    -----------------------

    Doubly Occupied:

       1A    -20.556612     2A    -15.528275     3A    -11.266190
       4A    -11.265889     5A    -11.240670     6A     -1.380264
       7A     -1.173444     8A     -0.999090     9A     -0.907337
      10A     -0.815225    11A     -0.682960    12A     -0.673518
      13A     -0.645365    14A     -0.609886    15A     -0.605358
      16A     -0.540428    17A     -0.530606    18A     -0.497436
      19A     -0.472611    20A     -0.415977    21A     -0.379944

  @DF-RHF Final Energy:  -248.12426042146907

   => Energetics <=

    Nuclear Repulsion Energy =            194.6145156380493688
    One-Electron Energy =                -723.1033790314191947
    Two-Electron Energy =                 280.3646029719007515
    DFT Exchange-Correlation Energy =       0.0000000000000000
    Empirical Dispersion Energy =           0.0000000000000000
    PCM Polarization Energy =               0.0000000000000000
    EFP Energy =                            0.0000000000000000
    Total Energy =                       -248.1242604214690459
    Molecular point group: c1
  Basis Set: 6-31G*
  Basis Set:

  -Total Gradient:
     Atom            X                  Y                   Z
    ------   -----------------  -----------------  -----------------
       1        0.000001101471    -0.000001143749     0.000004588697
       2       -0.000003901228    -0.000004067651     0.000002020490
       3        0.000007376333     0.000022102319    -0.000004531971
       4       -0.000003106920    -0.000003743708     0.000001644743
       5       -0.000292188833     0.001835672461     0.000928367864
       6        0.000012314056     0.000006560787     0.000006163845
       7       -0.000003391475     0.000001718141    -0.000006069611
       8        0.000630671729    -0.002911874303    -0.002006678627
       9        0.000003175429    -0.000002865482     0.000007327035
      10       -0.000007477233    -0.000005425600     0.000001587003
      11       -0.001056792340     0.002025264225     0.003417935498
      12       -0.000005894959    -0.000000888373    -0.000003641203
      13        0.000726235234    -0.000963649802    -0.002344126982
      14       -0.000008121267     0.000002340736    -0.000004586783

  **** Optimization is complete! (in 5 steps) ****
    Final optimized geometry and variables:
    Molecular point group: c1

    Geometry (in Angstrom), charge = 0, multiplicity = 1:

    H           -2.779955375884     0.910322711980    -0.116898666132
    N           -1.789224380059     0.917755156417     0.029061118911
    C           -1.117435653715     0.087304452786    -0.954953741808
    H           -1.619744139814     0.552483891185     0.946056668681
    C            0.374140170446     0.079030022802    -0.693366864863
    H           -1.469538526626    -0.944981011926    -0.971942049312
    H           -1.292271208321     0.507085583687    -1.940845610537
    O            0.596649930155    -0.528400452890     0.547110370780
    H            0.890020295830    -0.469160162487    -1.481666463798
    H            0.749567644542     1.099400169629    -0.684017744201
    C            1.924927652478    -0.535273025672     0.968185555361
    H            2.483250779216    -1.336011386468     0.486420429265
    H            2.422718304775     0.403174515383     0.736585883601
    H            1.937303295801    -0.694939166022     2.037735112316

  Mulliken Charges: (a.u.)
   Center  Symbol    Alpha    Beta     Spin     Total
       1     H     0.33286  0.33286  0.00000  0.33427
       2     N     3.92531  3.92531  0.00000 -0.85062
       3     C     3.06898  3.06898  0.00000 -0.13796
       4     H     0.32366  0.32366  0.00000  0.35268
       5     C     2.99010  2.99010  0.00000  0.01979
       6     H     0.42661  0.42661  0.00000  0.14678
       7     H     0.42050  0.42050  0.00000  0.15901
       8     O     4.31106  4.31106  0.00000 -0.62211
       9     H     0.43137  0.43137  0.00000  0.13725
      10     H     0.42192  0.42192  0.00000  0.15616
      11     C     3.07753  3.07753  0.00000 -0.15506
      12     H     0.42805  0.42805  0.00000  0.14391
      13     H     0.42874  0.42874  0.00000  0.14251
      14     H     0.41331  0.41331  0.00000  0.17338

   Total alpha = 21.00000, Total beta = 21.00000, Total charge = -0.00000
