  ==> Input File <==

--------------------------------------------------------------------------
set {
	reference rhf
	basis cc-pvtz
}

set_num_threads( 4 )
memory 2 gb

molecule MOL {
0 1

O	 -0.694481	 1.313155	 -0.204815
C	 -0.862519	 0.151932	 -0.046791
C	 -2.171428	 -0.477048	 0.339095
O	 0.085519	 -0.757083	 -0.192238
H	 -2.467997	 -1.191667	 -0.417688
H	 -2.923379	 0.287970	 0.444097
H	 -2.053854	 -1.015120	 1.270901
C	 1.392036	 -0.330828	 -0.560749
C	 2.456352	 -0.981025	 0.298539
H	 1.445672	 0.744850	 -0.498651
H	 1.496078	 -0.629135	 -1.593192
H	 3.438160	 -0.685304	 -0.053673
H	 2.359544	 -0.675086	 1.331212
H	 2.385811	 -2.060645	 0.243419

	symmetry c1
}
set optking {
	frozen_dihedral = ("
		10 8 4 2
	")
}

ee = optimize('scf')
oeprop('DIPOLE', 'QUADRUPOLE', 'MULLIKEN_CHARGES')
f=open( 'psi4out.xyz', 'w' )
f.write( "14  " )
f.write( str(ee) + "\n" )
f.write( MOL.save_string_xyz() )
f.close()
--------------------------------------------------------------------------

    Molecular point group: c1
  Charge       = 0
  Multiplicity = 1
  Basis Set: CC-PVTZ
  Basis Set:
  @DF-RHF Final Energy:  -305.98951104598552
    Total Energy =                       -305.9895110459853527
    Molecular point group: c1
  Basis Set: CC-PVTZ
  Basis Set:
  Basis Set: CC-PVTZ
  Basis Set:
  @DF-RHF Final Energy:  -305.99005398946360
    Total Energy =                       -305.9900539894637745
  Basis Set: CC-PVTZ
  Basis Set:
  Basis Set: CC-PVTZ
  Basis Set:
  @DF-RHF Final Energy:  -305.99021147031249
    Total Energy =                       -305.9902114703128291
  Basis Set: CC-PVTZ
  Basis Set:
  Basis Set: CC-PVTZ
  Basis Set:
  @DF-RHF Final Energy:  -305.98989747207094
    Total Energy =                       -305.9898974720709930
  Basis Set: CC-PVTZ
  Basis Set:
  Basis Set: CC-PVTZ
  Basis Set:
  @DF-RHF Final Energy:  -305.99023212770476
    Total Energy =                       -305.9902321277046440
  Basis Set: CC-PVTZ
  Basis Set:
  Charge       = 0
  Multiplicity = 1
  Basis Set: CC-PVTZ
  Basis Set:

    Orbital Energies (a.u.)
    -----------------------

    Doubly Occupied:

       1A    -20.593938     2A    -20.532528     3A    -11.368389
       4A    -11.282020     5A    -11.231228     6A    -11.220866
       7A     -1.469141     8A     -1.366223     9A     -1.058429
      10A     -1.000453    11A     -0.876775    12A     -0.777761
      13A     -0.698719    14A     -0.686339    15A     -0.664080
      16A     -0.613017    17A     -0.582554    18A     -0.564377
      19A     -0.562813    20A     -0.535129    21A     -0.517631
      22A     -0.498335    23A     -0.453101    24A     -0.442372

  @DF-RHF Final Energy:  -305.99023274914157

   => Energetics <=

    Nuclear Repulsion Energy =            246.2988050852407298
    One-Electron Energy =                -905.3856364523037428
    Two-Electron Energy =                 353.0965986179213587
    DFT Exchange-Correlation Energy =       0.0000000000000000
    Empirical Dispersion Energy =           0.0000000000000000
    PCM Polarization Energy =               0.0000000000000000
    EFP Energy =                            0.0000000000000000
    Total Energy =                       -305.9902327491416827
    Molecular point group: c1
  Basis Set: CC-PVTZ
  Basis Set:

  -Total Gradient:
     Atom            X                  Y                   Z
    ------   -----------------  -----------------  -----------------
       1       -0.000068013122     0.000038158025     0.000021606811
       2        0.000223162236     0.000049408514     0.000606618464
       3        0.000015602016     0.000005705368    -0.000019856609
       4       -0.000319027623    -0.000088917346    -0.001114903043
       5        0.000010677054     0.000002477717     0.000003241815
       6        0.000000078339     0.000006429948     0.000004356478
       7        0.000006331976     0.000008144421     0.000005412354
       8        0.000342250505    -0.000071965288     0.001166350502
       9       -0.000000283693     0.000008383861     0.000015041804
      10       -0.000224840440     0.000021057015    -0.000685536292
      11       -0.000014271397    -0.000000631535    -0.000003123716
      12        0.000030345989     0.000003863788    -0.000002260864
      13        0.000004409908    -0.000005608494     0.000011156611
      14       -0.000006421746     0.000023494008    -0.000008104314

  **** Optimization is complete! (in 6 steps) ****
    Final optimized geometry and variables:
    Molecular point group: c1

    Geometry (in Angstrom), charge = 0, multiplicity = 1:

    O           -0.764178428012     1.502507832718    -0.153019379101
    C           -0.900708230794     0.338666927997     0.011484914171
    C           -2.187643198333    -0.316738865769     0.426946251894
    O            0.059868113850    -0.556200507020    -0.147182144442
    H           -2.485574726792    -1.037763437966    -0.323225517584
    H           -2.952782682549     0.432741047036     0.547264744216
    H           -2.039020610850    -0.851745589572     1.355971633538
    C            1.366680157149    -0.138651033094    -0.524580172806
    C            2.377530010989    -0.816635159770     0.373188765311
    H            1.431480954490     0.934357514993    -0.464401619960
    H            1.508888846358    -0.431678980109    -1.556578977375
    H            3.380908565831    -0.547557131113     0.063670050807
    H            2.244350019528    -0.509901822018     1.403345999133
    H            2.280467779022    -1.893700216378     0.320636486020

  Mulliken Charges: (a.u.)
   Center  Symbol    Alpha    Beta     Spin     Total
       1     O     4.19809  4.19809  0.00000 -0.39619
       2     C     2.80082  2.80082  0.00000  0.39835
       3     C     3.14028  3.14028  0.00000 -0.28055
       4     O     4.15683  4.15683  0.00000 -0.31367
       5     H     0.44573  0.44573  0.00000  0.10854
       6     H     0.43823  0.43823  0.00000  0.12354
       7     H     0.44630  0.44630  0.00000  0.10740
       8     C     2.98689  2.98689  0.00000  0.02622
       9     C     3.13387  3.13387  0.00000 -0.26774
      10     H     0.44139  0.44139  0.00000  0.11723
      11     H     0.45415  0.45415  0.00000  0.09171
      12     H     0.45425  0.45425  0.00000  0.09150
      13     H     0.45175  0.45175  0.00000  0.09650
      14     H     0.45143  0.45143  0.00000  0.09714

   Total alpha = 24.00000, Total beta = 24.00000, Total charge = -0.00000
