  ==> Input File <==

--------------------------------------------------------------------------
set {
	reference rhf
	basis cc-pvtz
}

set_num_threads( 4 )
memory 2 gb

molecule MOL {
0 1

H	 2.704186	 -0.876047	 -0.434451
N	 2.326826	 -0.066186	 0.000000
C	 0.934676	 -0.005420	 0.000000
H	 2.746621	 0.096145	 0.885688
C	 0.226436	 -0.001077	 -1.195129
C	 0.226436	 -0.001077	 1.195129
H	 0.759091	 -0.011439	 -2.128123
C	 -1.153391	 0.009141	 -1.189028
H	 0.759091	 -0.011439	 2.128123
C	 -1.153391	 0.009141	 1.189028
H	 -1.680905	 0.012964	 -2.124348
C	 -1.857876	 0.014675	 0.000000
H	 -1.680905	 0.012964	 2.124348
H	 -2.930222	 0.022904	 0.000000

	symmetry c1
}
set optking {
	frozen_dihedral = ("
		1 2 3 5
	")
}

ee = optimize('scf')
oeprop('DIPOLE', 'QUADRUPOLE', 'MULLIKEN_CHARGES')
f=open( 'psi4out.xyz', 'w' )
f.write( "14  " )
f.write( str(ee) + "\n" )
f.write( MOL.save_string_xyz() )
f.close()
--------------------------------------------------------------------------

    Molecular point group: c1
  Charge       = 0
  Multiplicity = 1
  Basis Set: CC-PVTZ
  Basis Set:
  @DF-RHF Final Energy:  -285.83040902456833
    Total Energy =                       -285.8304090245682119
    Molecular point group: c1
  Basis Set: CC-PVTZ
  Basis Set:
  Basis Set: CC-PVTZ
  Basis Set:
  @DF-RHF Final Energy:  -285.83159534956434
    Total Energy =                       -285.8315953495641111
  Basis Set: CC-PVTZ
  Basis Set:
  Basis Set: CC-PVTZ
  Basis Set:
  @DF-RHF Final Energy:  -285.83180310844494
    Total Energy =                       -285.8318031084449444
  Basis Set: CC-PVTZ
  Basis Set:
  Basis Set: CC-PVTZ
  Basis Set:
  @DF-RHF Final Energy:  -285.83181688275158
    Total Energy =                       -285.8318168827515819
  Basis Set: CC-PVTZ
  Basis Set:
  Charge       = 0
  Multiplicity = 1
  Basis Set: CC-PVTZ
  Basis Set:

    Orbital Energies (a.u.)
    -----------------------

    Doubly Occupied:

       1A    -15.553127     2A    -11.267608     3A    -11.228010
       4A    -11.227441     5A    -11.219145     6A    -11.216936
       7A    -11.215596     8A     -1.222312     9A     -1.131734
      10A     -1.014711    11A     -0.989180    12A     -0.832620
      13A     -0.812637    14A     -0.707121    15A     -0.680372
      16A     -0.652518    17A     -0.607764    18A     -0.594857
      19A     -0.583754    20A     -0.524123    21A     -0.506056
      22A     -0.490027    23A     -0.443824    24A     -0.336676
      25A     -0.303947

  @DF-RHF Final Energy:  -285.83181790756868

   => Energetics <=

    Nuclear Repulsion Energy =            273.4890882224707980
    One-Electron Energy =                -927.9176192254320767
    Two-Electron Energy =                 368.5967130953924880
    DFT Exchange-Correlation Energy =       0.0000000000000000
    Empirical Dispersion Energy =           0.0000000000000000
    PCM Polarization Energy =               0.0000000000000000
    EFP Energy =                            0.0000000000000000
    Total Energy =                       -285.8318179075688477
    Molecular point group: c1
  Basis Set: CC-PVTZ
  Basis Set:

  -Total Gradient:
     Atom            X                  Y                   Z
    ------   -----------------  -----------------  -----------------
       1        0.000139271012    -0.001784195082     0.002755876871
       2       -0.000191013326     0.003461279461    -0.003523672638
       3        0.000054695820    -0.004158847034     0.000420486389
       4        0.000052898544    -0.000011156365     0.000068658447
       5        0.000090876311     0.002494033012     0.000169537490
       6       -0.000174775498     0.000016111452     0.000094071675
       7       -0.000000900260     0.000008592125    -0.000019966765
       8       -0.000137827758    -0.000069537468     0.000106429507
       9        0.000005693843     0.000024641842    -0.000002438004
      10        0.000161058229    -0.000087718250     0.000096432646
      11        0.000019054432     0.000014168631    -0.000001388173
      12       -0.000002214428     0.000079415862    -0.000179957620
      13       -0.000016148928     0.000006756414    -0.000006376247
      14       -0.000000667993     0.000006455399     0.000022306422

  **** Optimization is complete! (in 5 steps) ****
    Final optimized geometry and variables:
    Molecular point group: c1

    Geometry (in Angstrom), charge = 0, multiplicity = 1:

    H            2.731950045432    -0.773765832535    -0.505920954781
    N            2.338291729917     0.001823922600    -0.018638789786
    C            0.931137040298    -0.027746994256     0.004075165475
    H            2.729339736996     0.028997913718     0.896793349230
    C            0.228578952369    -0.009842123445    -1.194110126168
    C            0.221680441056     0.003643039182     1.194168375336
    H            0.771244821033    -0.000654462566    -2.120448320068
    C           -1.150027391701     0.006311115579    -1.194686208286
    H            0.750378997557    -0.001633918082     2.129636020731
    C           -1.160539665359     0.040966622027     1.185856064638
    H           -1.675883158670     0.012823005197    -2.130775681191
    C           -1.857047927632     0.035627034328    -0.005325438560
    H           -1.691655383008     0.067171856527     2.118631727318
    H           -2.929392422649     0.058776443213    -0.009610035133

  Mulliken Charges: (a.u.)
   Center  Symbol    Alpha    Beta     Spin     Total
       1     H     0.41999  0.41999  0.00000  0.16002
       2     N     3.67838  3.67838  0.00000 -0.35676
       3     C     2.88895  2.88895  0.00000  0.22211
       4     H     0.42723  0.42723  0.00000  0.14553
       5     C     3.11365  3.11365  0.00000 -0.22730
       6     C     3.11652  3.11652  0.00000 -0.23305
       7     H     0.42642  0.42642  0.00000  0.14716
       8     C     3.06081  3.06081  0.00000 -0.12161
       9     H     0.43387  0.43387  0.00000  0.13226
      10     C     3.06299  3.06299  0.00000 -0.12598
      11     H     0.42420  0.42420  0.00000  0.15159
      12     C     3.09786  3.09786  0.00000 -0.19573
      13     H     0.42439  0.42439  0.00000  0.15122
      14     H     0.42474  0.42474  0.00000  0.15053

   Total alpha = 25.00000, Total beta = 25.00000, Total charge = -0.00000
