  ==> Input File <==

--------------------------------------------------------------------------
set {
	reference rhf
	basis 6-31G*
}

set_num_threads( 4 )
memory 2 gb

molecule MOL {
0 1

O	 1.846825	 1.296220	 0.000415
C	 1.705091	 0.115954	 0.001797
C	 0.381791	 -0.609817	 0.001258
O	 2.721346	 -0.737485	 -0.000216
C	 -0.823008	 0.326187	 0.001381
H	 0.371250	 -1.265087	 -0.865474
H	 0.370908	 -1.265746	 0.867490
C	 -2.149452	 -0.435131	 -0.000098
H	 -0.770201	 0.977095	 -0.865636
H	 -0.771220	 0.975655	 0.869608
C	 -3.368779	 0.488503	 -0.000883
H	 -2.193746	 -1.087250	 -0.871175
H	 -2.195311	 -1.087803	 0.870418
C	 -3.905260	 0.767067	 -1.404394
H	 -3.107436	 1.428839	 0.479336
H	 -4.155573	 0.045140	 0.605353
H	 -3.151395	 1.242768	 -2.025369
H	 -4.768902	 1.423960	 -1.371741
H	 -4.207454	 -0.152062	 -1.898550
C	 4.024888	 -0.184556	 -0.001949
H	 4.179030	 0.422472	 -0.882452
H	 4.701782	 -1.024608	 -0.003642
H	 4.181981	 0.421185	 0.878906

	symmetry c1
}
set optking {
	frozen_dihedral = ("
		15 11 8 12
	")
}

ee = optimize('scf')
oeprop('DIPOLE', 'QUADRUPOLE', 'MULLIKEN_CHARGES')
f=open( 'psi4out.xyz', 'w' )
f.write( "23  " )
f.write( str(ee) + "\n" )
f.write( MOL.save_string_xyz() )
f.close()
--------------------------------------------------------------------------

    Molecular point group: c1
  Charge       = 0
  Multiplicity = 1
  Basis Set: 6-31G*
  Basis Set:
  @DF-RHF Final Energy:  -422.97240109492088
    Total Energy =                       -422.9724010949207695
    Molecular point group: c1
  Basis Set: 6-31G*
  Basis Set:
  Basis Set: 6-31G*
  Basis Set:
  @DF-RHF Final Energy:  -422.97260681585141
    Total Energy =                       -422.9726068158510088
  Basis Set: 6-31G*
  Basis Set:
  Basis Set: 6-31G*
  Basis Set:
  @DF-RHF Final Energy:  -422.97248657738373
    Total Energy =                       -422.9724865773831652
  Basis Set: 6-31G*
  Basis Set:
  Basis Set: 6-31G*
  Basis Set:
  @DF-RHF Final Energy:  -422.97273634674104
    Total Energy =                       -422.9727363467411578
  Basis Set: 6-31G*
  Basis Set:
  Basis Set: 6-31G*
  Basis Set:
  @DF-RHF Final Energy:  -422.97273926287465
    Total Energy =                       -422.9727392628747111
  Basis Set: 6-31G*
  Basis Set:
  Charge       = 0
  Multiplicity = 1
  Basis Set: 6-31G*
  Basis Set:

    Orbital Energies (a.u.)
    -----------------------

    Doubly Occupied:

       1A    -20.603656     2A    -20.545463     3A    -11.372302
       4A    -11.280868     5A    -11.235411     6A    -11.219347
       7A    -11.217828     8A    -11.216386     9A    -11.209070
      10A     -1.469354    11A     -1.362799    12A     -1.092648
      13A     -1.042079    14A     -0.985828    15A     -0.931087
      16A     -0.849151    17A     -0.790105    18A     -0.767599
      19A     -0.696609    20A     -0.683490    21A     -0.672109
      22A     -0.643142    23A     -0.616219    24A     -0.597103
      25A     -0.585239    26A     -0.563693    27A     -0.534334
      28A     -0.529330    29A     -0.521647    30A     -0.505595
      31A     -0.493049    32A     -0.468000    33A     -0.461419
      34A     -0.459815    35A     -0.454625    36A     -0.435473

  @DF-RHF Final Energy:  -422.97274001853992

   => Energetics <=

    Nuclear Repulsion Energy =            455.6419721090597363
    One-Electron Energy =               -1479.0056817349718585
    Two-Electron Energy =                 600.3909696073724263
    DFT Exchange-Correlation Energy =       0.0000000000000000
    Empirical Dispersion Energy =           0.0000000000000000
    PCM Polarization Energy =               0.0000000000000000
    EFP Energy =                            0.0000000000000000
    Total Energy =                       -422.9727400185397528
    Molecular point group: c1
  Basis Set: 6-31G*
  Basis Set:

  -Total Gradient:
     Atom            X                  Y                   Z
    ------   -----------------  -----------------  -----------------
       1       -0.000004346215    -0.000014820289    -0.000017790612
       2        0.000010987109     0.000010280179     0.000087023383
       3       -0.000005866868     0.000001984984    -0.000000962593
       4       -0.000011494340     0.000000679816    -0.000016138867
       5        0.000013455805     0.000072940355    -0.000027370283
       6       -0.000019144052    -0.000007597625     0.000002868612
       7        0.000028513196    -0.000000784418     0.000005174114
       8       -0.001996640378    -0.002700420775     0.001490748533
       9        0.000013215882     0.000002448221    -0.000004970651
      10        0.000005131267     0.000032157544    -0.000012683187
      11       -0.000921194966    -0.000944714358     0.003460692747
      12        0.001726235337     0.002270842255    -0.001797977572
      13        0.000031817473     0.000074572790    -0.000047156062
      14        0.000043483055    -0.000035712796    -0.000058868443
      15        0.001053576382     0.001230456952    -0.002970240695
      16        0.000045513827    -0.000005266484    -0.000071891642
      17       -0.000016604183    -0.000001432745    -0.000017113814
      18        0.000014343181     0.000013743005     0.000024079398
      19       -0.000012120327     0.000000013032    -0.000021882992
      20       -0.000000479829     0.000001294117    -0.000004244230
      21        0.000004525315     0.000000781586    -0.000000124857
      22        0.000001486257    -0.000000320430    -0.000001237097
      23       -0.000004392931    -0.000001124916     0.000000066813

  **** Optimization is complete! (in 6 steps) ****
    Final optimized geometry and variables:
    Molecular point group: c1

    Geometry (in Angstrom), charge = 0, multiplicity = 1:

    O            1.747578203141     1.178511436275     0.173223054793
    C            1.609322959299    -0.002088470064     0.159848793725
    C            0.288079887116    -0.731650667665     0.161299382775
    O            2.627969081651    -0.852412160478     0.140315088349
    C           -0.919204405232     0.200428982443     0.189831642007
    H            0.270435017805    -1.372712240129    -0.715929180923
    H            0.288114633872    -1.401959283415     1.016634509402
    C           -2.245122841082    -0.567219294849     0.203151971666
    H           -0.879118730284     0.861916004768    -0.669906446976
    H           -0.856873294739     0.839542399955     1.064809716852
    C           -3.472965094622     0.360523352355     0.161407834526
    H           -2.266501413283    -1.230127268836    -0.659812612301
    H           -2.281209717234    -1.197962384767     1.087564057927
    C           -3.955380157429     0.651561207111    -1.261998605869
    H           -3.225159317311     1.306733285065     0.635894469878
    H           -4.289429038660    -0.074951869384     0.729336098465
    H           -3.166499821571     1.090523792134    -1.866109985471
    H           -4.789979718149     1.345953287139    -1.258299197577
    H           -4.283166473701    -0.257998953572    -1.757311008480
    C            3.929896309338    -0.295622810739     0.135683799567
    H            4.076024093749     0.322054996789    -0.738753856044
    H            4.609192786797    -1.133629765226     0.119291339232
    H            4.091544330967     0.300214171757     1.022451360792

  Mulliken Charges: (a.u.)
   Center  Symbol    Alpha    Beta     Spin     Total
       1     O     4.28612  4.28612  0.00000 -0.57224
       2     C     2.60519  2.60519  0.00000  0.78962
       3     C     3.20811  3.20811  0.00000 -0.41622
       4     O     4.30722  4.30722  0.00000 -0.61445
       5     C     3.15430  3.15430  0.00000 -0.30860
       6     H     0.40066  0.40066  0.00000  0.19868
       7     H     0.40076  0.40076  0.00000  0.19848
       8     C     3.15633  3.15633  0.00000 -0.31266
       9     H     0.41143  0.41143  0.00000  0.17714
      10     H     0.41138  0.41138  0.00000  0.17724
      11     C     3.15481  3.15481  0.00000 -0.30963
      12     H     0.42295  0.42295  0.00000  0.15409
      13     H     0.42086  0.42086  0.00000  0.15828
      14     C     3.24073  3.24073  0.00000 -0.48147
      15     H     0.41920  0.41920  0.00000  0.16161
      16     H     0.41933  0.41933  0.00000  0.16134
      17     H     0.42066  0.42066  0.00000  0.15869
      18     H     0.41905  0.41905  0.00000  0.16191
      19     H     0.42190  0.42190  0.00000  0.15621
      20     C     3.09244  3.09244  0.00000 -0.18487
      21     H     0.40908  0.40908  0.00000  0.18183
      22     H     0.40842  0.40842  0.00000  0.18315
      23     H     0.40907  0.40907  0.00000  0.18186

   Total alpha = 36.00000, Total beta = 36.00000, Total charge =  0.00000
