  ==> Input File <==

--------------------------------------------------------------------------
set {
	reference rhf
	basis 6-31G*
}

set_num_threads( 4 )
memory 2 gb

molecule MOL {
0 1

H	 -2.646374	 -0.642757	 1.268656
C	 -2.083525	 -0.384536	 0.393091
O	 -0.807605	 -0.127164	 0.768327
F	 -2.118945	 -1.383102	 -0.486752
F	 -2.621877	 0.670592	 -0.209486
C	 0.196576	 -0.897374	 0.210578
C	 1.108927	 -1.331748	 1.350356
Cl	 1.104144	 0.027063	 -0.997292
H	 -0.184689	 -1.779913	 -0.272678
F	 2.087551	 -2.084379	 0.894306
F	 0.407168	 -2.047360	 2.206436
F	 1.624585	 -0.309483	 1.988356

	symmetry c1
}
set optking {
	frozen_dihedral = ("
		6 3 2 4
	")
}

ee = optimize('scf')
oeprop('DIPOLE', 'QUADRUPOLE', 'MULLIKEN_CHARGES')
f=open( 'psi4out.xyz', 'w' )
f.write( "12  " )
f.write( str(ee) + "\n" )
f.write( MOL.save_string_xyz() )
f.close()
--------------------------------------------------------------------------

    Molecular point group: c1
  Charge       = 0
  Multiplicity = 1
  Basis Set: 6-31G*
  Basis Set:
  @DF-RHF Final Energy: -1146.30581811894581
    Total Energy =                      -1146.3058181189460356
    Molecular point group: c1
  Basis Set: 6-31G*
  Basis Set:
  Basis Set: 6-31G*
  Basis Set:
  @DF-RHF Final Energy: -1146.30661831251018
    Total Energy =                      -1146.3066183125097268
  Basis Set: 6-31G*
  Basis Set:
  Basis Set: 6-31G*
  Basis Set:
  @DF-RHF Final Energy: -1146.30842394528486
    Total Energy =                      -1146.3084239452848578
  Basis Set: 6-31G*
  Basis Set:
  Basis Set: 6-31G*
  Basis Set:
  @DF-RHF Final Energy: -1146.30875027612956
    Total Energy =                      -1146.3087502761295582
  Basis Set: 6-31G*
  Basis Set:
  @DF-RHF Final Energy: -1146.30886081560607
    Total Energy =                      -1146.3088608156062946
  Basis Set: 6-31G*
  Basis Set:
  @DF-RHF Final Energy: -1146.30896997025047
    Total Energy =                      -1146.3089699702516100
  Basis Set: 6-31G*
  Basis Set:
  Basis Set: 6-31G*
  Basis Set:
  @DF-RHF Final Energy: -1146.30904983940923
    Total Energy =                      -1146.3090498394089991
  Basis Set: 6-31G*
  Basis Set:
  Basis Set: 6-31G*
  Basis Set:
  @DF-RHF Final Energy: -1146.30906937042300
    Total Energy =                      -1146.3090693704225487
  Basis Set: 6-31G*
  Basis Set:
  Charge       = 0
  Multiplicity = 1
  Basis Set: 6-31G*
  Basis Set:

    Orbital Energies (a.u.)
    -----------------------

    Doubly Occupied:

       1A   -104.841405     2A    -26.360784     3A    -26.360184
       4A    -26.358186     5A    -26.356242     6A    -26.339990
       7A    -20.646217     8A    -11.528724     9A    -11.492194
      10A    -11.402245    11A    -10.576230    12A     -8.045564
      13A     -8.042062    14A     -8.041953    15A     -1.762108
      16A     -1.720028    17A     -1.658427    18A     -1.657244
      19A     -1.641749    20A     -1.482381    21A     -1.176983
      22A     -1.054111    23A     -0.986847    24A     -0.920712
      25A     -0.858991    26A     -0.849495    27A     -0.846156
      28A     -0.827492    29A     -0.818192    30A     -0.792675
      31A     -0.729800    32A     -0.726512    33A     -0.703378
      34A     -0.697970    35A     -0.680019    36A     -0.675421
      37A     -0.661748    38A     -0.658937    39A     -0.642241
      40A     -0.634899    41A     -0.608018    42A     -0.574705
      43A     -0.513895    44A     -0.474121    45A     -0.467906

  @DF-RHF Final Energy: -1146.30906996267890

   => Energetics <=

    Nuclear Repulsion Energy =            732.8547076747099709
    One-Electron Energy =               -3048.5372740680959396
    Two-Electron Energy =                1169.3734964307068367
    DFT Exchange-Correlation Energy =       0.0000000000000000
    Empirical Dispersion Energy =           0.0000000000000000
    PCM Polarization Energy =               0.0000000000000000
    EFP Energy =                            0.0000000000000000
    Total Energy =                      -1146.3090699626791320
    Molecular point group: c1
  Basis Set: 6-31G*
  Basis Set:

  -Total Gradient:
     Atom            X                  Y                   Z
    ------   -----------------  -----------------  -----------------
       1        0.000058941293     0.000042756761     0.000060962155
       2       -0.000774859733    -0.002638125760     0.001789536564
       3        0.000693228874     0.002750842810    -0.001979436276
       4        0.000488039466     0.001310826617    -0.001005120692
       5       -0.000064906557     0.000120151397     0.000056934339
       6       -0.000457238074    -0.001544492330     0.001012043194
       7       -0.000125054245     0.000107146469     0.000100112597
       8        0.000036330477    -0.000142621781    -0.000011534251
       9        0.000015848330     0.000025112966    -0.000052405773
      10       -0.000083937721     0.000151493388    -0.000037492244
      11        0.000127589386    -0.000160102445     0.000012532661
      12        0.000086018514    -0.000022988101     0.000053867697

  **** Optimization is complete! (in 9 steps) ****
    Final optimized geometry and variables:
    Molecular point group: c1

    Geometry (in Angstrom), charge = 0, multiplicity = 1:

    H           -2.812583809789    -0.019960158926     0.640716317895
    C           -2.136293479008     0.337771618507    -0.113857140939
    O           -0.864701077782     0.386873959731     0.381949352647
    F           -2.203201161079    -0.447605659995    -1.184337407849
    F           -2.496205265085     1.553608006351    -0.484954936017
    C            0.164534000358    -0.311728525197    -0.201860649139
    C            1.164506744089    -0.598980325324     0.911120497048
    CL           0.936359938642     0.609436337002    -1.510729569678
    H           -0.154724892211    -1.248829184705    -0.620484157543
    F            2.188067120012    -1.278442736411     0.440217508018
    F            0.574509080004    -1.339401638242     1.830637179931
    F            1.608642011322     0.493580610803     1.480402600664

  Mulliken Charges: (a.u.)
   Center  Symbol    Alpha    Beta     Spin     Total
       1     H     0.40987  0.40987  0.00000  0.18026
       2     C     2.55953  2.55953  0.00000  0.88093
       3     O     4.31060  4.31060  0.00000 -0.62120
       4     F     4.68357  4.68357  0.00000 -0.36714
       5     F     4.67292  4.67292  0.00000 -0.34584
       6     C     3.03560  3.03560  0.00000 -0.07121
       7     C     2.43283  2.43283  0.00000  1.13435
       8    CL     8.50593  8.50593  0.00000 -0.01186
       9     H     0.36895  0.36895  0.00000  0.26209
      10     F     4.67431  4.67431  0.00000 -0.34861
      11     F     4.67861  4.67861  0.00000 -0.35722
      12     F     4.66727  4.66727  0.00000 -0.33454

   Total alpha = 45.00000, Total beta = 45.00000, Total charge =  0.00000
