                              Psi4 1.0.54 Driver

  ==> Input File <==

--------------------------------------------------------------------------
set {
	reference rhf
	basis cc-pvtz
}

set_num_threads( 4 )
memory 2 gb

molecule MOL {
0 1

H	 3.459101	 0.139266	 -0.762951
C	 2.749156	 -0.051729	 0.031265
C	 1.322304	 0.099773	 -0.484271
H	 2.929445	 -1.053887	 0.403481
H	 2.954281	 0.646699	 0.834672
C	 0.308557	 -0.162619	 0.622645
H	 1.143368	 -0.594400	 -1.295960
H	 1.169532	 1.100095	 -0.870217
N	 -1.069352	 -0.004081	 0.085342
H	 0.371632	 -1.172932	 0.991288
H	 0.400391	 0.548875	 1.426218
O	 -1.554806	 1.075312	 0.147162
O	 -1.600214	 -0.973896	 -0.341959

	symmetry c1
}
set optking {
	frozen_dihedral = ("
		12 9 6 3
	")
}

ee,wfn = optimize('scf', return_wfn=True)
oeprop( wfn, 'DIPOLE', 'QUADRUPOLE', 'MULLIKEN_CHARGES')
f=open( 'psi4out.xyz', 'w' )
f.write( "13  " )
f.write( str(ee) + "\n" )
f.write( MOL.save_string_xyz() )
f.close()
--------------------------------------------------------------------------

    Molecular point group: c1
  Charge       = 0
  Multiplicity = 1
  Basis Set: CC-PVTZ
  Basis Set:
  @DF-RHF Final Energy:  -321.86132207453107
    Total Energy =                       -321.8613220745310741
    Molecular point group: c1
  Basis Set: CC-PVTZ
  Basis Set:
  Basis Set: CC-PVTZ
  Basis Set:
  @DF-RHF Final Energy:  -321.85592322448565
    Total Energy =                       -321.8559232244857071
  Basis Set: CC-PVTZ
  Basis Set:
  Basis Set: CC-PVTZ
  Basis Set:
  @DF-RHF Final Energy:  -321.86091325178586
    Total Energy =                       -321.8609132517857461
  Basis Set: CC-PVTZ
  Basis Set:
  Basis Set: CC-PVTZ
  Basis Set:
  @DF-RHF Final Energy:  -321.86151216485723
    Total Energy =                       -321.8615121648574018
  Basis Set: CC-PVTZ
  Basis Set:
  Basis Set: CC-PVTZ
  Basis Set:
  @DF-RHF Final Energy:  -321.86153712661081
    Total Energy =                       -321.8615371266108696
  Basis Set: CC-PVTZ
  Basis Set:
  Charge       = 0
  Multiplicity = 1
  Basis Set: CC-PVTZ
  Basis Set:

    Orbital Energies (a.u.)
    -----------------------

    Doubly Occupied:

       1A    -20.590371     2A    -20.590228     3A    -15.836897
       4A    -11.297296     5A    -11.254347     6A    -11.237310
       7A     -1.636018     8A     -1.420240     9A     -1.134413
      10A     -1.027942    11A     -0.884057    12A     -0.834523
      13A     -0.761546    14A     -0.738523    15A     -0.727545
      16A     -0.673622    17A     -0.604170    18A     -0.588592
      19A     -0.551528    20A     -0.520547    21A     -0.515088
      22A     -0.486793    23A     -0.475219    24A     -0.452845

  @DF-RHF Final Energy:  -321.86154012948197

   => Energetics <=

    Nuclear Repulsion Energy =            248.0214925081743900
    One-Electron Energy =                -930.0867456340977242
    Two-Electron Energy =                 360.2037129964413680
    DFT Exchange-Correlation Energy =       0.0000000000000000
    Empirical Dispersion Energy =           0.0000000000000000
    PCM Polarization Energy =               0.0000000000000000
    EFP Energy =                            0.0000000000000000
    Total Energy =                       -321.8615401294820231
    Molecular point group: c1
  Basis Set: CC-PVTZ
  Basis Set:

  -Total Gradient:
     Atom            X                  Y                   Z
    ------   -----------------  -----------------  -----------------
       1        0.000005870120     0.000000188866     0.000000766973
       2        0.000010064078    -0.000000715385    -0.000008777997
       3        0.000002515745    -0.000005273447     0.000023735081
       4       -0.000004594441     0.000001755689    -0.000001904908
       5        0.000000183987     0.000000422654     0.000000401654
       6       -0.000017995604    -0.000040792819     0.000038660527
       7       -0.000002862093    -0.000002119175     0.000016307190
       8       -0.000002083580     0.000007550570    -0.000004854391
       9        0.000156579326    -0.000027838298    -0.000080141726
      10        0.000037409057     0.000001105675     0.000013207902
      11        0.000031310106    -0.000011615306    -0.000013896467
      12       -0.000146655324    -0.000181024997    -0.000055822241
      13       -0.000069741379     0.000258355977     0.000072318403

  **** Optimization is complete! (in 6 steps) ****
    Final optimized geometry and variables:
    Molecular point group: c1

    Geometry (in Angstrom), charge = 0, multiplicity = 1:

    H            3.455794287213     0.131174986973    -0.780934822499
    C            2.749585360257    -0.052616567443     0.018300814606
    C            1.320350056491     0.096906877616    -0.491268930350
    H            2.930345373740    -1.052115951928     0.397385105981
    H            2.959811040829     0.651702849267     0.815239983787
    C            0.311755736966    -0.158738168779     0.621918869458
    H            1.137014018930    -0.601691337993    -1.298145533538
    H            1.166380426170     1.095173395706    -0.882119651638
    N           -1.068811983820    -0.003283449342     0.090389834557
    H            0.376773584603    -1.166840409240     0.996303609542
    H            0.407598684667     0.557401970256     1.420878422990
    O           -1.554872458949     1.076156626196     0.147658001259
    O           -1.580164731578    -0.963148124016    -0.380668533828

  Mulliken Charges: (a.u.)
   Center  Symbol    Alpha    Beta     Spin     Total
       1     H     0.44166  0.44166  0.00000  0.11667
       2     C     3.15109  3.15109  0.00000 -0.30217
       3     C     3.09597  3.09597  0.00000 -0.19193
       4     H     0.45158  0.45158  0.00000  0.09683
       5     H     0.45158  0.45158  0.00000  0.09685
       6     C     3.03934  3.03934  0.00000 -0.07867
       7     H     0.43785  0.43785  0.00000  0.12430
       8     H     0.43814  0.43814  0.00000  0.12373
       9     N     3.27597  3.27597  0.00000  0.44806
      10     H     0.43464  0.43464  0.00000  0.13071
      11     H     0.43455  0.43455  0.00000  0.13090
      12     O     4.17371  4.17371  0.00000 -0.34742
      13     O     4.17393  4.17393  0.00000 -0.34785

   Total alpha = 24.00000, Total beta = 24.00000, Total charge = -0.00000

*** Psi4 exiting successfully. Buy a developer a beer!
