  ==> Input File <==

--------------------------------------------------------------------------
set {
	reference rhf
	basis cc-pvtz
}

set_num_threads( 4 )
memory 2 gb

molecule MOL {
0 1

H	 -2.071271	 -0.355711	 0.996010
O	 -2.041679	 -0.058866	 0.103463
C	 -0.959304	 0.780994	 -0.094939
C	 0.354905	 0.037902	 -0.006215
H	 -0.985899	 1.279578	 -1.057596
H	 -0.969809	 1.529522	 0.682889
F	 0.412060	 -0.931028	 -0.902708
F	 1.359641	 0.856111	 -0.239961
F	 0.545380	 -0.506387	 1.171682

	symmetry c1
}
set optking {
	frozen_dihedral = ("
		1 2 3 5
	")
}

ee = optimize('scf')
oeprop('DIPOLE', 'QUADRUPOLE', 'MULLIKEN_CHARGES')
f=open( 'psi4out.xyz', 'w' )
f.write( "9  " )
f.write( str(ee) + "\n" )
f.write( MOL.save_string_xyz() )
f.close()
--------------------------------------------------------------------------

    Molecular point group: c1
  Charge       = 0
  Multiplicity = 1
  Basis Set: CC-PVTZ
  Basis Set:
  @DF-RHF Final Energy:  -450.84526184598030
    Total Energy =                       -450.8452618459803034
    Molecular point group: c1
  Basis Set: CC-PVTZ
  Basis Set:
  Basis Set: CC-PVTZ
  Basis Set:
  @DF-RHF Final Energy:  -450.84692032039874
    Total Energy =                       -450.8469203203985103
  Basis Set: CC-PVTZ
  Basis Set:
  Basis Set: CC-PVTZ
  Basis Set:
  @DF-RHF Final Energy:  -450.84724113811643
    Total Energy =                       -450.8472411381165443
  Basis Set: CC-PVTZ
  Basis Set:
  Basis Set: CC-PVTZ
  Basis Set:
  @DF-RHF Final Energy:  -450.84725172674359
    Total Energy =                       -450.8472517267436501
  Basis Set: CC-PVTZ
  Basis Set:
  Charge       = 0
  Multiplicity = 1
  Basis Set: CC-PVTZ
  Basis Set:

    Orbital Energies (a.u.)
    -----------------------

    Doubly Occupied:

       1A    -26.339090     2A    -26.338947     3A    -26.335057
       4A    -20.583886     5A    -11.493112     6A    -11.310075
       7A     -1.747253     8A     -1.644351     9A     -1.642276
      10A     -1.407443    11A     -1.050410    12A     -0.929405
      13A     -0.837402    14A     -0.835770    15A     -0.810408
      16A     -0.732938    17A     -0.718334    18A     -0.704127
      19A     -0.671406    20A     -0.665169    21A     -0.648722
      22A     -0.633125    23A     -0.617703    24A     -0.534667
      25A     -0.484774

  @DF-RHF Final Energy:  -450.84725341854340

   => Energetics <=

    Nuclear Repulsion Energy =            277.6794942171002845
    One-Electron Energy =               -1177.6217959326299933
    Two-Electron Energy =                 449.0950482969863060
    DFT Exchange-Correlation Energy =       0.0000000000000000
    Empirical Dispersion Energy =           0.0000000000000000
    PCM Polarization Energy =               0.0000000000000000
    EFP Energy =                            0.0000000000000000
    Total Energy =                       -450.8472534185434597
    Molecular point group: c1
  Basis Set: CC-PVTZ
  Basis Set:

  -Total Gradient:
     Atom            X                  Y                   Z
    ------   -----------------  -----------------  -----------------
       1       -0.000194837661     0.000345047215     0.000045968265
       2        0.000296864471    -0.000292184841    -0.000066861436
       3        0.000073385619    -0.000304530424    -0.000100054601
       4       -0.000082521957    -0.000005547184     0.000174200858
       5       -0.000181419487     0.000253284595     0.000114205751
       6        0.000004861408    -0.000043390529     0.000000284499
       7        0.000046573198     0.000057491707     0.000077268863
       8        0.000104230850     0.000015445519    -0.000116537527
       9       -0.000067136438    -0.000025616058    -0.000128474673

  **** Optimization is complete! (in 5 steps) ****
    Final optimized geometry and variables:
    Molecular point group: c1

    Geometry (in Angstrom), charge = 0, multiplicity = 1:

    H           -2.081778024382    -0.342798375399     0.996134040202
    O           -2.040874039703    -0.065257716502     0.098105949622
    C           -0.961090362450     0.777285721085    -0.102389098742
    C            0.353435420688     0.032376025755    -0.037410854493
    H           -1.051004784700     1.209433621736    -1.087637221144
    H           -0.914899738431     1.580499528749     0.624591305008
    F            0.450812564957    -0.895041023984    -0.959492620177
    F            1.359990246009     0.866678724905    -0.197245531328
    F            0.505961423890    -0.557920290580     1.134164864701

  Mulliken Charges: (a.u.)
   Center  Symbol    Alpha    Beta     Spin     Total
       1     H     0.38645  0.38645  0.00000  0.22710
       2     O     4.19231  4.19231  0.00000 -0.38462
       3     C     2.99169  2.99169  0.00000  0.01661
       4     C     2.68353  2.68353  0.00000  0.63293
       5     H     0.44719  0.44719  0.00000  0.10562
       6     H     0.46166  0.46166  0.00000  0.07669
       7     F     4.60749  4.60749  0.00000 -0.21497
       8     F     4.61252  4.61252  0.00000 -0.22504
       9     F     4.61716  4.61716  0.00000 -0.23432

   Total alpha = 25.00000, Total beta = 25.00000, Total charge = -0.00000
