  ==> Input File <==

--------------------------------------------------------------------------
set {
	reference rhf
	basis 6-31G*
}

set_num_threads( 4 )
memory 2 gb

molecule MOL {
0 1

H	 2.390327	 0.594679	 -1.175823
O	 1.528553	 0.194013	 -1.235828
C	 1.050492	 0.053836	 0.000068
C	 -0.318135	 -0.576402	 0.000164
O	 1.663123	 0.397873	 0.957835
C	 -1.454360	 0.441875	 -0.000474
H	 -0.374042	 -1.230163	 -0.866135
H	 -0.374274	 -1.229227	 0.867154
C	 -2.826123	 -0.230780	 0.000056
H	 -1.357605	 1.085198	 -0.868380
H	 -1.357504	 1.086451	 0.866496
H	 -2.959731	 -0.858053	 -0.876869
H	 -3.619374	 0.509403	 -0.000080
H	 -2.959371	 -0.857318	 0.877556

	symmetry c1
}
set optking {
	frozen_dihedral = ("
		2 3 4 7
	")
}

ee = optimize('scf')
oeprop('DIPOLE', 'QUADRUPOLE', 'MULLIKEN_CHARGES')
f=open( 'psi4out.xyz', 'w' )
f.write( "14  " )
f.write( str(ee) + "\n" )
f.write( MOL.save_string_xyz() )
f.close()
--------------------------------------------------------------------------

    Molecular point group: c1
  Charge       = 0
  Multiplicity = 1
  Basis Set: 6-31G*
  Basis Set:
  @DF-RHF Final Energy:  -305.87844353127161
    Total Energy =                       -305.8784435312715573
    Molecular point group: c1
  Basis Set: 6-31G*
  Basis Set:
  Basis Set: 6-31G*
  Basis Set:
  @DF-RHF Final Energy:  -305.87873194435861
    Total Energy =                       -305.8787319443586057
  Basis Set: 6-31G*
  Basis Set:
  Basis Set: 6-31G*
  Basis Set:
  @DF-RHF Final Energy:  -305.87832275309296
    Total Energy =                       -305.8783227530932436
  Basis Set: 6-31G*
  Basis Set:
  Basis Set: 6-31G*
  Basis Set:
  @DF-RHF Final Energy:  -305.87920748727731
    Total Energy =                       -305.8792074872775402
  Basis Set: 6-31G*
  Basis Set:
  Basis Set: 6-31G*
  Basis Set:
  @DF-RHF Final Energy:  -305.87921084043205
    Total Energy =                       -305.8792108404320516
  Basis Set: 6-31G*
  Basis Set:
  Charge       = 0
  Multiplicity = 1
  Basis Set: 6-31G*
  Basis Set:

    Orbital Energies (a.u.)
    -----------------------

    Doubly Occupied:

       1A    -20.613903     2A    -20.549106     3A    -11.380130
       4A    -11.239323     5A    -11.236148     6A    -11.221308
       7A     -1.474280     8A     -1.364445     9A     -1.086495
      10A     -0.979731    11A     -0.852254    12A     -0.807738
      13A     -0.702114    14A     -0.685802    15A     -0.641638
      16A     -0.635821    17A     -0.593791    18A     -0.567862
      19A     -0.553517    20A     -0.516646    21A     -0.498781
      22A     -0.489156    23A     -0.471093    24A     -0.438720

  @DF-RHF Final Energy:  -305.87921099785342

   => Energetics <=

    Nuclear Repulsion Energy =            240.3575208124651681
    One-Electron Energy =                -893.2738616226548629
    Two-Electron Energy =                 347.0371298123362749
    DFT Exchange-Correlation Energy =       0.0000000000000000
    Empirical Dispersion Energy =           0.0000000000000000
    PCM Polarization Energy =               0.0000000000000000
    EFP Energy =                            0.0000000000000000
    Total Energy =                       -305.8792109978534199
    Molecular point group: c1
  Basis Set: 6-31G*
  Basis Set:

  -Total Gradient:
     Atom            X                  Y                   Z
    ------   -----------------  -----------------  -----------------
       1        0.000002592672     0.000004342605    -0.000004617604
       2        0.000173802086    -0.000348306870    -0.000000826478
       3       -0.000282827016     0.000555621829    -0.000023322365
       4        0.000270722886    -0.000544528985     0.000319784609
       5       -0.000002780601    -0.000011253572    -0.000019927625
       6        0.000009043601     0.000011542312    -0.000032510038
       7       -0.000169533099     0.000357102887    -0.000227143111
       8        0.000000547015    -0.000013890190    -0.000015546123
       9       -0.000006937558    -0.000009809162     0.000015934017
      10       -0.000003565794     0.000003113170    -0.000003102851
      11        0.000005406761    -0.000007970262    -0.000011514572
      12        0.000002591748     0.000006976886    -0.000000413138
      13       -0.000001525648     0.000003069945     0.000006584337
      14        0.000002462944    -0.000006010593    -0.000003379060

  **** Optimization is complete! (in 6 steps) ****
    Final optimized geometry and variables:
    Molecular point group: c1

    Geometry (in Angstrom), charge = 0, multiplicity = 1:

    H            2.385156632680     0.629809245646    -1.089474097965
    O            1.550077597197     0.178301563103    -1.166392073259
    C            1.070193064673    -0.015027703771     0.061109568988
    C           -0.282098625034    -0.677498914025     0.056306915317
    O            1.656352899410     0.338438843002     1.032648039713
    C           -1.403283427132     0.374434475939     0.046819461288
    H           -0.367133091889    -1.317692116794    -0.813516609690
    H           -0.351151968158    -1.285185914375     0.949976779274
    C           -2.789294254852    -0.266634947465     0.069179230225
    H           -1.302403891985     0.997518841172    -0.837118650476
    H           -1.283760346724     1.024100814832     0.908157367271
    H           -2.942314883251    -0.902252280334    -0.797938037963
    H           -3.565517048271     0.491437650427     0.065936194733
    H           -2.924655509729    -0.876536195448     0.957357412203

  Mulliken Charges: (a.u.)
   Center  Symbol    Alpha    Beta     Spin     Total
       1     H     0.26800  0.26800  0.00000  0.46399
       2     O     4.34739  4.34739  0.00000 -0.69478
       3     C     2.63315  2.63315  0.00000  0.73370
       4     C     3.19661  3.19661  0.00000 -0.39322
       5     O     4.27909  4.27909  0.00000 -0.55818
       6     C     3.16602  3.16602  0.00000 -0.33204
       7     H     0.40195  0.40195  0.00000  0.19610
       8     H     0.39859  0.39859  0.00000  0.20281
       9     C     3.24097  3.24097  0.00000 -0.48193
      10     H     0.41065  0.41065  0.00000  0.17869
      11     H     0.40679  0.40679  0.00000  0.18643
      12     H     0.41869  0.41869  0.00000  0.16262
      13     H     0.41430  0.41430  0.00000  0.17140
      14     H     0.41779  0.41779  0.00000  0.16441

   Total alpha = 24.00000, Total beta = 24.00000, Total charge = -0.00000
