  ==> Input File <==

--------------------------------------------------------------------------
set {
	reference rhf
	basis cc-pvtz
}

set_num_threads( 4 )
memory 2 gb

molecule MOL {
0 1

O	 -0.188430	 1.053609	 1.086410
C	 -0.392132	 0.004453	 0.578811
C	 -1.731251	 -0.671639	 0.505915
O	 0.550743	 -0.719877	 0.000412
H	 -1.996836	 -0.840204	 -0.529679
H	 -2.473990	 -0.054673	 0.984690
H	 -1.677349	 -1.636801	 0.992735
C	 1.863204	 -0.194033	 0.000410
H	 2.031502	 0.409177	 -0.879273
H	 2.524488	 -1.045142	 0.000793
H	 2.031291	 0.409823	 0.879686

	symmetry c1
}
set optking {
	frozen_dihedral = ("
		2 4 8 9
	")
}

ee = optimize('scf')
oeprop('DIPOLE', 'QUADRUPOLE', 'MULLIKEN_CHARGES')
f=open( 'psi4out.xyz', 'w' )
f.write( "11  " )
f.write( str(ee) + "\n" )
f.write( MOL.save_string_xyz() )
f.close()
--------------------------------------------------------------------------

    Molecular point group: c1
  Charge       = 0
  Multiplicity = 1
  Basis Set: CC-PVTZ
  Basis Set:
  @DF-RHF Final Energy:  -266.93794927348341
    Total Energy =                       -266.9379492734835821
    Molecular point group: c1
  Basis Set: CC-PVTZ
  Basis Set:
  Basis Set: CC-PVTZ
  Basis Set:
  @DF-RHF Final Energy:  -266.93806139900880
    Total Energy =                       -266.9380613990085749
  Basis Set: CC-PVTZ
  Basis Set:
  Basis Set: CC-PVTZ
  Basis Set:
  @DF-RHF Final Energy:  -266.93799808634833
    Total Energy =                       -266.9379980863484434
  Basis Set: CC-PVTZ
  Basis Set:
  Basis Set: CC-PVTZ
  Basis Set:
  @DF-RHF Final Energy:  -266.93818536905189
    Total Energy =                       -266.9381853690521211
  Basis Set: CC-PVTZ
  Basis Set:
  Charge       = 0
  Multiplicity = 1
  Basis Set: CC-PVTZ
  Basis Set:

    Orbital Energies (a.u.)
    -----------------------

    Doubly Occupied:

       1A    -20.598246     2A    -20.534870     3A    -11.369450
       4A    -11.279319     5A    -11.232920     6A     -1.472967
       7A     -1.367957     8A     -1.037020     9A     -0.954033
      10A     -0.779566    11A     -0.698812    12A     -0.683338
      13A     -0.681099    14A     -0.597079    15A     -0.593023
      16A     -0.561742    17A     -0.529024    18A     -0.522871
      19A     -0.460676    20A     -0.445743

  @DF-RHF Final Energy:  -266.93818763366443

   => Energetics <=

    Nuclear Repulsion Energy =            183.4589741614068998
    One-Electron Energy =                -727.9948082668943243
    Two-Electron Energy =                 277.5976464718231114
    DFT Exchange-Correlation Energy =       0.0000000000000000
    Empirical Dispersion Energy =           0.0000000000000000
    PCM Polarization Energy =               0.0000000000000000
    EFP Energy =                            0.0000000000000000
    Total Energy =                       -266.9381876336643131
    Molecular point group: c1
  Basis Set: CC-PVTZ
  Basis Set:

  -Total Gradient:
     Atom            X                  Y                   Z
    ------   -----------------  -----------------  -----------------
       1        0.000066678952    -0.000077424616    -0.000075195089
       2        0.000193582983    -0.000597552793     0.001294544875
       3        0.000012156900    -0.000028367175    -0.000013268271
       4       -0.000190688363     0.000723600108    -0.001976000244
       5       -0.000009926227    -0.000005554421    -0.000002174209
       6        0.000013222556     0.000006468234    -0.000003133726
       7       -0.000006732220    -0.000007873201    -0.000009507446
       8       -0.000487767626     0.001306374797     0.001636514292
       9        0.000438477416    -0.001320214070    -0.000843819607
      10        0.000006988738     0.000017055487    -0.000017428610
      11       -0.000035993111    -0.000016512349     0.000009468033

  **** Optimization is complete! (in 5 steps) ****
    Final optimized geometry and variables:
    Molecular point group: c1

    Geometry (in Angstrom), charge = 0, multiplicity = 1:

    O           -0.252293432433     1.170846646521     0.648575527874
    C           -0.437231503493     0.115492046719     0.147266305623
    C           -1.766682535267    -0.580275776255     0.077504563261
    O            0.512117883156    -0.602995782977    -0.429268555918
    H           -2.028430217635    -0.758500269348    -0.957455637512
    H           -2.518583215945     0.029215491653     0.551518615336
    H           -1.699645030839    -1.541768436157     0.569822891539
    C            1.835312549715    -0.102940357334    -0.422241426148
    H            2.002289234127     0.502535836055    -1.302385639955
    H            2.485212417037    -0.963248812968    -0.454558770162
    H            2.024429012931     0.479354349088     0.463745844090

  Mulliken Charges: (a.u.)
   Center  Symbol    Alpha    Beta     Spin     Total
       1     O     4.19702  4.19702  0.00000 -0.39403
       2     C     2.79982  2.79982  0.00000  0.40036
       3     C     3.13901  3.13901  0.00000 -0.27801
       4     O     4.14881  4.14881  0.00000 -0.29761
       5     H     0.44524  0.44524  0.00000  0.10952
       6     H     0.43792  0.43792  0.00000  0.12416
       7     H     0.44576  0.44576  0.00000  0.10847
       8     C     3.03435  3.03435  0.00000 -0.06870
       9     H     0.45648  0.45648  0.00000  0.08705
      10     H     0.44807  0.44807  0.00000  0.10387
      11     H     0.44754  0.44754  0.00000  0.10492

   Total alpha = 20.00000, Total beta = 20.00000, Total charge = -0.00000
