  ==> Input File <==

--------------------------------------------------------------------------
set {
	reference rhf
	basis 6-31G*
}

set_num_threads( 1 )
memory 2 gb

molecule MOL {
0 1

O	 1.547534	 1.816745	 0.478601
C	 0.816459	 1.661495	 1.403017
C	 -0.489220	 0.905080	 1.372918
O	 1.064699	 2.143811	 2.614167
C	 -0.823008	 0.326187	 0.001381
H	 -0.429395	 0.124065	 2.126012
H	 -1.265953	 1.584512	 1.713178
C	 -2.149452	 -0.435131	 -0.000098
H	 -0.019528	 -0.331874	 -0.314155
H	 -0.858073	 1.130080	 -0.727204
C	 -3.368779	 0.488503	 -0.000883
H	 -2.193746	 -1.087250	 -0.871175
H	 -2.195311	 -1.087803	 0.870418
C	 -4.693822	 -0.272754	 -0.001129
H	 -3.325798	 1.139422	 -0.871284
H	 -3.326423	 1.139959	 0.869145
H	 -4.781274	 -0.907928	 -0.878124
H	 -5.538651	 0.408946	 -0.001420
H	 -4.781694	 -0.907783	 0.875984
C	 2.265202	 2.875938	 2.780714
H	 3.121922	 2.257594	 2.554420
H	 2.285240	 3.178310	 3.816110
H	 2.273614	 3.743688	 2.136940

	symmetry c1
}
set optking {
	frozen_dihedral = ("
		15 11 8 12,
		1 2 3 6,
		9 5 3 6,
		1 2 4 20
	")
}

ee = energy('scf')
oeprop('DIPOLE', 'QUADRUPOLE', 'MULLIKEN_CHARGES')
f=open( 'psi4out.xyz', 'w' )
f.write( "23  " )
f.write( str(ee) + "\n" )
f.write( MOL.save_string_xyz() )
f.close()
--------------------------------------------------------------------------

    Molecular point group: c1

    Geometry (in Angstrom), charge = 0, multiplicity = 1:

       Center              X                  Y                   Z               Mass
    ------------   -----------------  -----------------  -----------------  -----------------
           O          2.168049382083     0.737525682810    -0.501625494764    15.994914619560
           C          1.436974382083     0.582275682810     0.422790505236    12.000000000000
           C          0.131295382083    -0.174139317190     0.392691505236    12.000000000000
           O          1.685214382083     1.064591682810     1.633940505236    15.994914619560
           C         -0.202492617917    -0.753032317190    -0.978845494764    12.000000000000
           H          0.191120382083    -0.955154317190     1.145785505236     1.007825032070
           H         -0.645437617917     0.505292682810     0.732951505236     1.007825032070
           C         -1.528936617917    -1.514350317190    -0.980324494764    12.000000000000
           H          0.600987382083    -1.411093317190    -1.294381494764     1.007825032070
           H         -0.237557617917     0.050860682810    -1.707430494764     1.007825032070
           C         -2.748263617917    -0.590716317190    -0.981109494764    12.000000000000
           H         -1.573230617917    -2.166469317190    -1.851401494764     1.007825032070
           H         -1.574795617917    -2.167022317190    -0.109808494764     1.007825032070
           C         -4.073306617917    -1.351973317190    -0.981355494764    12.000000000000
           H         -2.705282617917     0.060202682810    -1.851510494764     1.007825032070
           H         -2.705907617917     0.060739682810    -0.111081494764     1.007825032070
           H         -4.160758617917    -1.987147317190    -1.858350494764     1.007825032070
           H         -4.918135617917    -0.670273317190    -0.981646494764     1.007825032070
           H         -4.161178617917    -1.987002317190    -0.104242494764     1.007825032070
           C          2.885717382083     1.796718682810     1.800487505236    12.000000000000
           H          3.742437382083     1.178374682810     1.574193505236     1.007825032070
           H          2.905755382083     2.099090682810     2.835883505236     1.007825032070
           H          2.894129382083     2.664468682810     1.156713505236     1.007825032070

  Charge       = 0
  Multiplicity = 1
  Basis Set: 6-31G*
  Basis Set:

    Orbital Energies (a.u.)
    -----------------------

    Doubly Occupied:

       1A    -20.603573     2A    -20.545326     3A    -11.372160
       4A    -11.280802     5A    -11.235158     6A    -11.218915
       7A    -11.218241     8A    -11.217403     9A    -11.210775
      10A     -1.469249    11A     -1.362671    12A     -1.095268
      13A     -1.041920    14A     -0.987140    15A     -0.932641
      16A     -0.848761    17A     -0.793282    18A     -0.765487
      19A     -0.702007    20A     -0.682259    21A     -0.672451
      22A     -0.632608    23A     -0.626139    24A     -0.599128
      25A     -0.575710    26A     -0.557757    27A     -0.556247
      28A     -0.528239    29A     -0.520454    30A     -0.505875
      31A     -0.492604    32A     -0.470095    33A     -0.465351
      34A     -0.457620    35A     -0.451639    36A     -0.437068

  @DF-RHF Final Energy:  -422.97409740544038

   => Energetics <=

    Nuclear Repulsion Energy =            457.8146894218764373
    One-Electron Energy =               -1483.3134743965572397
    Two-Electron Energy =                 602.5246875692427011
    DFT Exchange-Correlation Energy =       0.0000000000000000
    Empirical Dispersion Energy =           0.0000000000000000
    PCM Polarization Energy =               0.0000000000000000
    EFP Energy =                            0.0000000000000000
    Total Energy =                       -422.9740974054381013

  Mulliken Charges: (a.u.)
   Center  Symbol    Alpha    Beta     Spin     Total
       1     O     4.28594  4.28594  0.00000 -0.57188
       2     C     2.60479  2.60479  0.00000  0.79043
       3     C     3.20970  3.20970  0.00000 -0.41939
       4     O     4.30727  4.30727  0.00000 -0.61454
       5     C     3.15452  3.15452  0.00000 -0.30904
       6     H     0.40060  0.40060  0.00000  0.19881
       7     H     0.39959  0.39959  0.00000  0.20083
       8     C     3.15640  3.15640  0.00000 -0.31280
       9     H     0.40950  0.40950  0.00000  0.18101
      10     H     0.41152  0.41152  0.00000  0.17697
      11     C     3.15402  3.15402  0.00000 -0.30805
      12     H     0.41792  0.41792  0.00000  0.16416
      13     H     0.42431  0.42431  0.00000  0.15138
      14     C     3.23899  3.23899  0.00000 -0.47799
      15     H     0.42075  0.42075  0.00000  0.15851
      16     H     0.42373  0.42373  0.00000  0.15255
      17     H     0.42088  0.42088  0.00000  0.15824
      18     H     0.41880  0.41880  0.00000  0.16241
      19     H     0.42174  0.42174  0.00000  0.15652
      20     C     3.09245  3.09245  0.00000 -0.18490
      21     H     0.40904  0.40904  0.00000  0.18192
      22     H     0.40847  0.40847  0.00000  0.18306
      23     H     0.40910  0.40910  0.00000  0.18180

   Total alpha = 36.00000, Total beta = 36.00000, Total charge =  0.00000
