  ==> Input File <==

--------------------------------------------------------------------------
set {
	reference rhf
	basis cc-pvtz
}

set_num_threads( 4 )
memory 2 gb

molecule MOL {
0 1

H	 -2.266619	 1.169943	 0.000098
O	 -1.438073	 1.611259	 0.000041
C	 -0.408657	 0.734701	 0.000005
C	 0.818255	 1.212260	 -0.421935
C	 -0.561224	 -0.587018	 0.402365
H	 0.895110	 2.238187	 -0.724422
C	 1.912064	 0.373278	 -0.447564
C	 0.554682	 -1.407374	 0.366358
C	 -1.900786	 -1.106628	 0.862563
H	 2.861386	 0.751014	 -0.776325
C	 1.786044	 -0.944500	 -0.052581
H	 0.453234	 -2.431546	 0.674170
H	 -2.653845	 -1.025447	 0.083698
H	 -1.832189	 -2.149810	 1.135524
H	 -2.264499	 -0.568210	 1.733278
H	 2.632535	 -1.602924	 -0.069887

	symmetry c1
}
set optking {
	frozen_dihedral = ("
		4 3 2 1
	")
}

ee = optimize('scf')
oeprop('DIPOLE', 'QUADRUPOLE', 'MULLIKEN_CHARGES')
f=open( 'psi4out.xyz', 'w' )
f.write( "16  " )
f.write( str(ee) + "\n" )
f.write( MOL.save_string_xyz() )
f.close()
--------------------------------------------------------------------------

    Molecular point group: c1
  Charge       = 0
  Multiplicity = 1
  Basis Set: CC-PVTZ
  Basis Set:
  @DF-RHF Final Energy:  -344.71890114515082
    Total Energy =                       -344.7189011451509941
    Molecular point group: c1
  Basis Set: CC-PVTZ
  Basis Set:
  Basis Set: CC-PVTZ
  Basis Set:
  @DF-RHF Final Energy:  -344.71894443704588
    Total Energy =                       -344.7189444370461615
  Basis Set: CC-PVTZ
  Basis Set:
  Basis Set: CC-PVTZ
  Basis Set:
  @DF-RHF Final Energy:  -344.71895330522631
    Total Energy =                       -344.7189533052260799
  Basis Set: CC-PVTZ
  Basis Set:
  Charge       = 0
  Multiplicity = 1
  Basis Set: CC-PVTZ
  Basis Set:

    Orbital Energies (a.u.)
    -----------------------

    Doubly Occupied:

       1A    -20.580456     2A    -11.290200     3A    -11.233637
       4A    -11.231534     5A    -11.228414     6A    -11.227257
       7A    -11.217965     8A    -11.217379     9A     -1.410480
      10A     -1.153492    11A     -1.051719    12A     -1.007864
      13A     -0.943472    14A     -0.828561    15A     -0.823074
      16A     -0.734237    17A     -0.680151    18A     -0.647899
      19A     -0.615511    20A     -0.602109    21A     -0.577361
      22A     -0.571676    23A     -0.557306    24A     -0.551891
      25A     -0.505293    26A     -0.486292    27A     -0.477448
      28A     -0.333734    29A     -0.310560

  @DF-RHF Final Energy:  -344.71895421901877

   => Energetics <=

    Nuclear Repulsion Energy =            351.0055277426101839
    One-Electron Energy =               -1163.2550090396321139
    Two-Electron Energy =                 467.5305270780030469
    DFT Exchange-Correlation Energy =       0.0000000000000000
    Empirical Dispersion Energy =           0.0000000000000000
    PCM Polarization Energy =               0.0000000000000000
    EFP Energy =                            0.0000000000000000
    Total Energy =                       -344.7189542190188831
    Molecular point group: c1
  Basis Set: CC-PVTZ
  Basis Set:

  -Total Gradient:
     Atom            X                  Y                   Z
    ------   -----------------  -----------------  -----------------
       1        0.000001790290    -0.000000590927    -0.001226590814
       2       -0.000075681103    -0.000064769737     0.001163860141
       3        0.000250034530     0.000240212175     0.000842335086
       4       -0.000129874285    -0.000223894700    -0.000774901086
       5       -0.000023794712     0.000069004477     0.000014441555
       6       -0.000008466890     0.000006603017    -0.000021037920
       7       -0.000033274825     0.000087163887    -0.000010007653
       8        0.000105230975    -0.000022855338     0.000040494185
       9        0.000040765953     0.000000595147     0.000087738476
      10       -0.000004943326    -0.000003397837     0.000004966261
      11       -0.000085252912    -0.000075774606    -0.000018458217
      12       -0.000007279976    -0.000002288727    -0.000016621641
      13       -0.000042582140    -0.000020760051    -0.000009705226
      14       -0.000012827716    -0.000010836506    -0.000050282593
      15        0.000017869550     0.000016191489    -0.000039300085
      16        0.000008286581     0.000005398236     0.000013069532

  **** Optimization is complete! (in 4 steps) ****
    Final optimized geometry and variables:
    Molecular point group: c1

    Geometry (in Angstrom), charge = 0, multiplicity = 1:

    H           -2.277904515366     1.155934367957    -0.083989727788
    O           -1.449859978098     1.599124256012    -0.082119244653
    C           -0.418995375217     0.720979717446    -0.099752542702
    C            0.807177660547     1.199248955040    -0.520334704628
    C           -0.572781369728    -0.601993416348     0.298374917457
    H            0.883525682486     2.225154139294    -0.823063263933
    C            1.902825984242     0.361444436285    -0.542288125031
    C            0.541767128576    -1.423440048378     0.258630900860
    C           -1.911869123132    -1.117909698731     0.762857488661
    H            2.853010366773     0.740024275892    -0.867469704363
    C            1.774584891262    -0.957755690352    -0.154513761445
    H            0.440028412746    -2.448768860742     0.562366919251
    H           -2.659664332974    -1.072927668608    -0.025234206831
    H           -1.837452468059    -2.151087714374     1.070551211404
    H           -2.287184257127    -0.547899506462     1.606393376599
    H            2.621229208676    -1.616100782892    -0.171675569657

  Mulliken Charges: (a.u.)
   Center  Symbol    Alpha    Beta     Spin     Total
       1     H     0.38636  0.38636  0.00000  0.22727
       2     O     4.17482  4.17482  0.00000 -0.34964
       3     C     2.87530  2.87530  0.00000  0.24940
       4     C     3.11171  3.11171  0.00000 -0.22341
       5     C     3.00942  3.00942  0.00000 -0.01884
       6     H     0.41967  0.41967  0.00000  0.16067
       7     C     3.06634  3.06634  0.00000 -0.13267
       8     C     3.08478  3.08478  0.00000 -0.16957
       9     C     3.16213  3.16213  0.00000 -0.32425
      10     H     0.42248  0.42248  0.00000  0.15505
      11     C     3.09053  3.09053  0.00000 -0.18106
      12     H     0.42555  0.42555  0.00000  0.14889
      13     H     0.45555  0.45555  0.00000  0.08890
      14     H     0.44616  0.44616  0.00000  0.10768
      15     H     0.44425  0.44425  0.00000  0.11149
      16     H     0.42495  0.42495  0.00000  0.15010

   Total alpha = 29.00000, Total beta = 29.00000, Total charge = -0.00000
