  ==> Input File <==

--------------------------------------------------------------------------
set {
	reference rhf
	basis 6-31G*
}

set_num_threads( 1 )
memory 2 gb

molecule MOL {
0 1

O	 2.832563	 1.403548	 0.449503
C	 2.797388	 0.236238	 0.692212
C	 1.500876	 -0.553653	 0.684066
C	 4.055636	 -0.538323	 1.026908
C	 0.268195	 0.278095	 0.342120
H	 1.616870	 -1.377155	 -0.019338
H	 1.390114	 -1.022463	 1.660975
C	 -1.017287	 -0.550939	 0.343432
H	 0.408954	 0.739566	 -0.630177
H	 0.181755	 1.094532	 1.052124
C	 -2.259874	 0.272531	 0.000494
H	 -0.922413	 -1.369882	 -0.368170
H	 -1.151450	 -1.012154	 1.320851
C	 -3.549786	 -0.549746	 -0.000374
H	 -2.127161	 0.733485	 -0.976710
H	 -2.356211	 1.090980	 0.711730
C	 -4.809590	 0.315458	 -0.000369
H	 -3.560515	 -1.202009	 -0.871156
H	 -3.561123	 -1.202955	 0.869711
H	 -4.844746	 0.956611	 -0.876632
H	 -5.706986	 -0.295590	 -0.001609
H	 -4.845960	 0.954827	 0.877144
H	 4.202294	 -1.347801	 0.317785
H	 4.909696	 0.124027	 1.000307
H	 3.974073	 -0.985135	 2.013488

	symmetry c1
}
set optking {
	frozen_dihedral = ("
		9 5 8 12,
		15 11 8 12,
		1 2 3 6,
		9 5 3 6
	")
}

ee = energy('scf')
oeprop('DIPOLE', 'QUADRUPOLE', 'MULLIKEN_CHARGES')
f=open( 'psi4out.xyz', 'w' )
f.write( "25  " )
f.write( str(ee) + "\n" )
f.write( MOL.save_string_xyz() )
f.close()
--------------------------------------------------------------------------

    Molecular point group: c1

    Geometry (in Angstrom), charge = 0, multiplicity = 1:

       Center              X                  Y                   Z               Mass
    ------------   -----------------  -----------------  -----------------  -----------------
           O          2.858760945458     1.362865874838     0.056281906056    15.994914619560
           C          2.823585945458     0.195555874838     0.298990906056    12.000000000000
           C          1.527073945458    -0.594335125162     0.290844906056    12.000000000000
           C          4.081833945458    -0.579005125162     0.633686906056    12.000000000000
           C          0.294392945458     0.237412874838    -0.051101093944    12.000000000000
           H          1.643067945458    -1.417837125162    -0.412559093944     1.007825032070
           H          1.416311945458    -1.063145125162     1.267753906056     1.007825032070
           C         -0.991089054542    -0.591621125162    -0.049789093944    12.000000000000
           H          0.435151945458     0.698883874838    -1.023398093944     1.007825032070
           H          0.207952945458     1.053849874838     0.658902906056     1.007825032070
           C         -2.233676054542     0.231848874838    -0.392727093944    12.000000000000
           H         -0.896215054542    -1.410564125162    -0.761391093944     1.007825032070
           H         -1.125252054542    -1.052836125162     0.927629906056     1.007825032070
           C         -3.523588054542    -0.590428125162    -0.393595093944    12.000000000000
           H         -2.100963054542     0.692802874838    -1.369931093944     1.007825032070
           H         -2.330013054542     1.050297874838     0.318508906056     1.007825032070
           C         -4.783392054542     0.274775874838    -0.393590093944    12.000000000000
           H         -3.534317054542    -1.242691125162    -1.264377093944     1.007825032070
           H         -3.534925054542    -1.243637125162     0.476489906056     1.007825032070
           H         -4.818548054542     0.915928874838    -1.269853093944     1.007825032070
           H         -5.680788054542    -0.336272125162    -0.394830093944     1.007825032070
           H         -4.819762054542     0.914144874838     0.483922906056     1.007825032070
           H          4.228491945458    -1.388483125162    -0.075436093944     1.007825032070
           H          4.935893945458     0.083344874838     0.607085906056     1.007825032070
           H          4.000270945458    -1.025817125162     1.620266906056     1.007825032070

  Charge       = 0
  Multiplicity = 1
  Basis Set: 6-31G*
  Basis Set:

    Orbital Energies (a.u.)
    -----------------------

    Doubly Occupied:

       1A    -20.550479     2A    -11.326291     3A    -11.231872
       4A    -11.228341     5A    -11.217121     6A    -11.216504
       7A    -11.215140     8A    -11.213303     9A    -11.208345
      10A     -1.395771    11A     -1.093626    12A     -1.056312
      13A     -1.014488    14A     -0.969204    15A     -0.890736
      16A     -0.814206    17A     -0.790782    18A     -0.729910
      19A     -0.661332    20A     -0.651992    21A     -0.631512
      22A     -0.624078    23A     -0.596236    24A     -0.584503
      25A     -0.566889    26A     -0.559649    27A     -0.539724
      28A     -0.526451    29A     -0.512948    30A     -0.489931
      31A     -0.487503    32A     -0.473640    33A     -0.463660
      34A     -0.461530    35A     -0.450568    36A     -0.399408

  @DF-RHF Final Energy:  -387.13578480697032

   => Energetics <=

    Nuclear Repulsion Energy =            438.4234538393107528
    One-Electron Energy =               -1393.4303016859494164
    Two-Electron Energy =                 567.8710630396687975
    DFT Exchange-Correlation Energy =       0.0000000000000000
    Empirical Dispersion Energy =           0.0000000000000000
    PCM Polarization Energy =               0.0000000000000000
    EFP Energy =                            0.0000000000000000
    Total Energy =                       -387.1357848069699230

  Mulliken Charges: (a.u.)
   Center  Symbol    Alpha    Beta     Spin     Total
       1     O     4.26115  4.26115  0.00000 -0.52231
       2     C     2.73570  2.73570  0.00000  0.52861
       3     C     3.21087  3.21087  0.00000 -0.42173
       4     C     3.28663  3.28663  0.00000 -0.57326
       5     C     3.14811  3.14811  0.00000 -0.29622
       6     H     0.40998  0.40998  0.00000  0.18005
       7     H     0.41004  0.41004  0.00000  0.17992
       8     C     3.15426  3.15426  0.00000 -0.30852
       9     H     0.41216  0.41216  0.00000  0.17568
      10     H     0.41214  0.41214  0.00000  0.17573
      11     C     3.15114  3.15114  0.00000 -0.30228
      12     H     0.42486  0.42486  0.00000  0.15027
      13     H     0.42474  0.42474  0.00000  0.15053
      14     C     3.15179  3.15179  0.00000 -0.30357
      15     H     0.42169  0.42169  0.00000  0.15663
      16     H     0.42253  0.42253  0.00000  0.15493
      17     C     3.23949  3.23949  0.00000 -0.47897
      18     H     0.42269  0.42269  0.00000  0.15463
      19     H     0.42374  0.42374  0.00000  0.15251
      20     H     0.42129  0.42129  0.00000  0.15741
      21     H     0.41972  0.41972  0.00000  0.16057
      22     H     0.42141  0.42141  0.00000  0.15718
      23     H     0.40874  0.40874  0.00000  0.18253
      24     H     0.39646  0.39646  0.00000  0.20708
      25     H     0.40870  0.40870  0.00000  0.18260

   Total alpha = 36.00000, Total beta = 36.00000, Total charge =  0.00000
