  ==> Input File <==

--------------------------------------------------------------------------
set {
	reference rhf
	basis cc-pvtz
}

set_num_threads( 4 )
memory 2 gb

molecule MOL {
0 1

O	 1.013711	 1.625302	 -0.479688
C	 0.535483	 1.053351	 -1.399053
C	 -0.742180	 0.254695	 -1.364594
O	 1.076642	 1.042496	 -2.606284
C	 -1.413045	 0.229353	 0.001137
H	 -1.401557	 0.671833	 -2.118715
H	 -0.502942	 -0.747937	 -1.703648
C	 -2.702562	 -0.586401	 0.000228
H	 -1.621520	 1.245489	 0.316646
H	 -0.722416	 -0.176173	 0.731977
C	 -3.953810	 0.284959	 -0.000782
H	 -2.717793	 -1.238567	 -0.869075
H	 -2.719108	 -1.238472	 0.869576
H	 -3.983727	 0.924403	 -0.876454
H	 -4.852989	 -0.320147	 -0.001515
H	 -3.985140	 0.924399	 0.874841
C	 2.284190	 1.755295	 -2.782533
H	 2.144088	 2.803191	 -2.562274
H	 2.557925	 1.625854	 -3.817029
H	 3.057291	 1.360523	 -2.140121

	symmetry c1
}
set optking {
	frozen_dihedral = ("
		9 5 8 12
	")
}

ee = optimize('scf')
oeprop('DIPOLE', 'QUADRUPOLE', 'MULLIKEN_CHARGES')
f=open( 'psi4out.xyz', 'w' )
f.write( "20  " )
f.write( str(ee) + "\n" )
f.write( MOL.save_string_xyz() )
f.close()
--------------------------------------------------------------------------

    Molecular point group: c1
  Charge       = 0
  Multiplicity = 1
  Basis Set: CC-PVTZ
  Basis Set:
  @DF-RHF Final Energy:  -384.07801701234132
    Total Energy =                       -384.0780170123420021
    Molecular point group: c1
  Basis Set: CC-PVTZ
  Basis Set:
  Basis Set: CC-PVTZ
  Basis Set:
  @DF-RHF Final Energy:  -384.07832779143831
    Total Energy =                       -384.0783277914380278
  Basis Set: CC-PVTZ
  Basis Set:
  Basis Set: CC-PVTZ
  Basis Set:
  @DF-RHF Final Energy:  -384.07820597743495
    Total Energy =                       -384.0782059774354593
  Basis Set: CC-PVTZ
  Basis Set:
  Basis Set: CC-PVTZ
  Basis Set:
  @DF-RHF Final Energy:  -384.07840726062011
    Total Energy =                       -384.0784072606195423
  Basis Set: CC-PVTZ
  Basis Set:
  Charge       = 0
  Multiplicity = 1
  Basis Set: CC-PVTZ
  Basis Set:

    Orbital Energies (a.u.)
    -----------------------

    Doubly Occupied:

       1A    -20.596377     2A    -20.534294     3A    -11.364519
       4A    -11.278550     5A    -11.234266     6A    -11.218361
       7A    -11.217304     8A    -11.210174     9A     -1.472270
      10A     -1.365862    11A     -1.088661    12A     -1.024119
      13A     -0.969340    14A     -0.888729    15A     -0.804000
      16A     -0.768889    17A     -0.702604    18A     -0.685930
      19A     -0.676363    20A     -0.634323    21A     -0.610640
      22A     -0.597019    23A     -0.574305    24A     -0.546686
      25A     -0.526094    26A     -0.524253    27A     -0.514965
      28A     -0.475320    29A     -0.474115    30A     -0.467495
      31A     -0.458713    32A     -0.439710

  @DF-RHF Final Energy:  -384.07840821951646

   => Energetics <=

    Nuclear Repulsion Energy =            383.7234604507964946
    One-Electron Energy =               -1283.7152356525975847
    Two-Electron Energy =                 515.9133669822845150
    DFT Exchange-Correlation Energy =       0.0000000000000000
    Empirical Dispersion Energy =           0.0000000000000000
    PCM Polarization Energy =               0.0000000000000000
    EFP Energy =                            0.0000000000000000
    Total Energy =                       -384.0784082195166320
    Molecular point group: c1
  Basis Set: CC-PVTZ
  Basis Set:

  -Total Gradient:
     Atom            X                  Y                   Z
    ------   -----------------  -----------------  -----------------
       1        0.000019788963     0.000002811201    -0.000032420767
       2        0.000008180232    -0.000025248566     0.000013797305
       3       -0.000055513946     0.000016200465     0.000064271488
       4        0.000010609692     0.000027758926     0.000018235691
       5        0.000276587254    -0.000460344073     0.003285615537
       6       -0.000001885642    -0.000013223632    -0.000005766338
       7       -0.000000192070    -0.000005376243    -0.000012998728
       8        0.001509553042    -0.002630225545     0.001380663733
       9       -0.000468108961     0.000837921296    -0.002987425254
      10       -0.000002448538     0.000004513837    -0.000004521583
      11        0.000044511974    -0.000037155026     0.000006638591
      12       -0.001346068448     0.002267244290    -0.001694787861
      13       -0.000012898855     0.000003541034    -0.000015438058
      14        0.000001056211    -0.000002249325    -0.000000602577
      15       -0.000005920599    -0.000006596046     0.000006342323
      16        0.000006333460     0.000018170637    -0.000007874224
      17        0.000010505025    -0.000003214255    -0.000012823531
      18       -0.000001357089    -0.000000543984     0.000000229633
      19        0.000006934329     0.000005076568    -0.000000733433
      20        0.000000333965     0.000000938440    -0.000000401945

  **** Optimization is complete! (in 5 steps) ****
    Final optimized geometry and variables:
    Molecular point group: c1

    Geometry (in Angstrom), charge = 0, multiplicity = 1:

    O            1.468219477814     0.909443363933     0.612838133322
    C            0.994210961651     0.324429155988    -0.300547047530
    C           -0.269235685207    -0.496280624295    -0.253900782784
    O            1.528521654481     0.316174425657    -1.510942310901
    C           -0.929377463224    -0.532286529830     1.119862889536
    H           -0.941920847533    -0.091327971577    -1.003201240004
    H           -0.015788739889    -1.494859088089    -0.593668140824
    C           -2.252692698355    -1.319744546942     1.111630090520
    H           -1.110160619259     0.489376533525     1.430395243773
    H           -0.233720522114    -0.954697526165     1.832729214993
    C           -3.484837348545    -0.417956549402     1.067544280278
    H           -2.284770558002    -1.975241552007     0.246594704556
    H           -2.310995185046    -1.955396578409     1.987198660393
    H           -3.466476694637     0.230909951134     0.197603880216
    H           -4.397389037776    -1.001504149344     1.023234622456
    H           -3.536167464077     0.214319873868     1.947046511057
    C            2.722883559735     1.048084640109    -1.698134487926
    H            2.566533855790     2.094692583169    -1.482707302836
    H            2.992861751605     0.917607094311    -2.733495402929
    H            3.506198695118     0.669872615220    -1.058125435246

  Mulliken Charges: (a.u.)
   Center  Symbol    Alpha    Beta     Spin     Total
       1     O     4.19671  4.19671  0.00000 -0.39343
       2     C     2.80751  2.80751  0.00000  0.38497
       3     C     3.09943  3.09943  0.00000 -0.19886
       4     O     4.14710  4.14710  0.00000 -0.29419
       5     C     3.08959  3.08959  0.00000 -0.17917
       6     H     0.44004  0.44004  0.00000  0.11992
       7     H     0.43953  0.43953  0.00000  0.12094
       8     C     3.09279  3.09279  0.00000 -0.18559
       9     H     0.44718  0.44718  0.00000  0.10563
      10     H     0.44086  0.44086  0.00000  0.11827
      11     C     3.14695  3.14695  0.00000 -0.29391
      12     H     0.45683  0.45683  0.00000  0.08634
      13     H     0.44577  0.44577  0.00000  0.10845
      14     H     0.45630  0.45630  0.00000  0.08740
      15     H     0.44891  0.44891  0.00000  0.10218
      16     H     0.45285  0.45285  0.00000  0.09431
      17     C     3.03771  3.03771  0.00000 -0.07542
      18     H     0.45431  0.45431  0.00000  0.09138
      19     H     0.44529  0.44529  0.00000  0.10943
      20     H     0.45433  0.45433  0.00000  0.09135

   Total alpha = 32.00000, Total beta = 32.00000, Total charge =  0.00000
