  ==> Input File <==

--------------------------------------------------------------------------
set {
	reference rhf
	basis 6-31G*
}

set_num_threads( 4 )
memory 2 gb

molecule MOL {
0 1

H	 2.343737	 -1.771508	 0.669311
O	 2.826016	 -1.159218	 0.122261
C	 2.077727	 -0.067559	 -0.035091
C	 0.624473	 -0.343591	 0.253101
O	 2.542965	 0.974826	 -0.363729
C	 -0.265902	 0.883932	 0.072916
H	 0.324016	 -1.163849	 -0.390541
H	 0.565024	 -0.726111	 1.268924
C	 -1.728698	 0.646073	 0.462102
H	 -0.209144	 1.219470	 -0.958188
H	 0.135059	 1.692851	 0.673903
C	 -2.482460	 -0.343073	 -0.431425
H	 -2.245265	 1.602650	 0.432430
H	 -1.779332	 0.308348	 1.496285
C	 -3.960546	 -0.461025	 -0.060175
H	 -2.395034	 -0.026811	 -1.468912
H	 -2.024850	 -1.327147	 -0.371646
H	 -4.472726	 -1.168004	 -0.705284
H	 -4.465146	 0.496508	 -0.151489
H	 -4.081218	 -0.800940	 0.964585

	symmetry c1
}
set optking {
	frozen_dihedral = ("
		1 2 3 5
	")
}

ee = optimize('scf')
oeprop('DIPOLE', 'QUADRUPOLE', 'MULLIKEN_CHARGES')
f=open( 'psi4out.xyz', 'w' )
f.write( "20  " )
f.write( str(ee) + "\n" )
f.write( MOL.save_string_xyz() )
f.close()
--------------------------------------------------------------------------

    Molecular point group: c1
  Charge       = 0
  Multiplicity = 1
  Basis Set: 6-31G*
  Basis Set:
  @DF-RHF Final Energy:  -383.93475934475362
    Total Energy =                       -383.9347593447537292
    Molecular point group: c1
  Basis Set: 6-31G*
  Basis Set:
  Basis Set: 6-31G*
  Basis Set:
  @DF-RHF Final Energy:  -383.93615144222122
    Total Energy =                       -383.9361514422212167
  Basis Set: 6-31G*
  Basis Set:
  Basis Set: 6-31G*
  Basis Set:
  @DF-RHF Final Energy:  -383.93632924763261
    Total Energy =                       -383.9363292476328979
  Basis Set: 6-31G*
  Basis Set:
  Basis Set: 6-31G*
  Basis Set:
  @DF-RHF Final Energy:  -383.93622501257039
    Total Energy =                       -383.9362250125703326
  Basis Set: 6-31G*
  Basis Set:
  Basis Set: 6-31G*
  Basis Set:
  @DF-RHF Final Energy:  -383.93634133106849
    Total Energy =                       -383.9363413310683768
  Basis Set: 6-31G*
  Basis Set:
  Charge       = 0
  Multiplicity = 1
  Basis Set: 6-31G*
  Basis Set:

    Orbital Energies (a.u.)
    -----------------------

    Doubly Occupied:

       1A    -20.610554     2A    -20.548650     3A    -11.380348
       4A    -11.251642     5A    -11.228597     6A    -11.225750
       7A    -11.225148     8A    -11.216467     9A     -1.467004
      10A     -1.369745    11A     -1.101286    12A     -1.044209
      13A     -0.960805    14A     -0.866278    15A     -0.829703
      16A     -0.793239    17A     -0.720266    18A     -0.669101
      19A     -0.658485    20A     -0.635798    21A     -0.614547
      22A     -0.598367    23A     -0.567834    24A     -0.563207
      25A     -0.548075    26A     -0.516391    27A     -0.501474
      28A     -0.478029    29A     -0.473492    30A     -0.472284
      31A     -0.462566    32A     -0.439842

  @DF-RHF Final Energy:  -383.93634056329773

   => Energetics <=

    Nuclear Repulsion Energy =            375.8204893848390498
    One-Electron Energy =               -1267.4352910437760329
    Two-Electron Energy =                 507.6784610956395341
    DFT Exchange-Correlation Energy =       0.0000000000000000
    Empirical Dispersion Energy =           0.0000000000000000
    PCM Polarization Energy =               0.0000000000000000
    EFP Energy =                            0.0000000000000000
    Total Energy =                       -383.9363405632975059
    Molecular point group: c1
  Basis Set: 6-31G*
  Basis Set:

  -Total Gradient:
     Atom            X                  Y                   Z
    ------   -----------------  -----------------  -----------------
       1        0.001858920647     0.001962342728     0.003772280986
       2       -0.002116083279    -0.002010569537    -0.003038158185
       3       -0.000336256492    -0.000973371135    -0.004627943494
       4        0.000034418823     0.000007406664     0.000017763132
       5        0.000600679727     0.001024275640     0.003870576168
       6       -0.000011257921    -0.000013370102    -0.000032119948
       7        0.000037420473     0.000032169308     0.000024184962
       8       -0.000009440469    -0.000004767970     0.000007012050
       9       -0.000001824298    -0.000022954858     0.000017036738
      10        0.000003432492    -0.000027619025    -0.000004672648
      11       -0.000015305388     0.000010533644    -0.000014121516
      12       -0.000018727482     0.000007818881     0.000008786433
      13       -0.000004317546     0.000005431016     0.000023049598
      14        0.000016206351    -0.000027393618    -0.000007210315
      15       -0.000001243072     0.000018557875    -0.000013092414
      16        0.000009242306    -0.000007587098    -0.000013354658
      17       -0.000046198050     0.000016918966     0.000012321982
      18       -0.000000831826     0.000003602469    -0.000003617309
      19       -0.000003476617    -0.000000013661     0.000004153894
      20        0.000004641609    -0.000001410187    -0.000002875452

  **** Optimization is complete! (in 6 steps) ****
    Final optimized geometry and variables:
    Molecular point group: c1

    Geometry (in Angstrom), charge = 0, multiplicity = 1:

    H            2.513700388006    -1.799074568409     0.654011107045
    O            2.902767883778    -1.127144176470     0.110168409953
    C            2.090640618137    -0.070572284129    -0.037488223768
    C            0.628898361369    -0.345130647364     0.254468920976
    O            2.527708843665     0.975047984997    -0.370240932837
    C           -0.261487410481     0.881694455841     0.067976002615
    H            0.319681175171    -1.165708258841    -0.386961841258
    H            0.553525221990    -0.714320346647     1.277305097763
    C           -1.725212140709     0.648954186175     0.456227998864
    H           -0.199916604016     1.209378812786    -0.964788122028
    H            0.142641836811     1.691690500034     0.664543976809
    C           -2.483671345544    -0.335812909681    -0.438242559816
    H           -2.236747416436     1.608014847264     0.426278473882
    H           -1.778964233431     0.312038032532     1.490691162526
    C           -3.963908494196    -0.441374174633    -0.072011602373
    H           -2.389829045885    -0.022327890056    -1.475858167195
    H           -2.034524980093    -1.323922881751    -0.375461866785
    H           -4.479298320245    -1.145319475677    -0.717751211115
    H           -4.460229146012     0.519980137322    -0.167108516945
    H           -4.091210289638    -0.778186075109     0.952989239565

  Mulliken Charges: (a.u.)
   Center  Symbol    Alpha    Beta     Spin     Total
       1     H     0.26916  0.26916  0.00000  0.46168
       2     O     4.35385  4.35385  0.00000 -0.70769
       3     C     2.60726  2.60726  0.00000  0.78547
       4     C     3.23729  3.23729  0.00000 -0.47458
       5     O     4.26155  4.26155  0.00000 -0.52311
       6     C     3.15232  3.15232  0.00000 -0.30463
       7     H     0.39925  0.39925  0.00000  0.20150
       8     H     0.40966  0.40966  0.00000  0.18068
       9     C     3.15645  3.15645  0.00000 -0.31290
      10     H     0.40894  0.40894  0.00000  0.18212
      11     H     0.40547  0.40547  0.00000  0.18906
      12     C     3.15467  3.15467  0.00000 -0.30933
      13     H     0.41620  0.41620  0.00000  0.16760
      14     H     0.42446  0.42446  0.00000  0.15108
      15     C     3.23933  3.23933  0.00000 -0.47867
      16     H     0.42007  0.42007  0.00000  0.15986
      17     H     0.42512  0.42512  0.00000  0.14977
      18     H     0.41776  0.41776  0.00000  0.16448
      19     H     0.41967  0.41967  0.00000  0.16065
      20     H     0.42152  0.42152  0.00000  0.15695

   Total alpha = 32.00000, Total beta = 32.00000, Total charge = -0.00000
