  ==> Input File <==

--------------------------------------------------------------------------
set {
	reference rhf
	basis cc-pvtz
}

set_num_threads( 4 )
memory 2 gb

molecule MOL {
0 1

H	 -3.034039	 -0.667848	 0.004703
O	 -2.240597	 -1.171748	 0.000934
C	 -1.159675	 -0.364500	 0.000370
C	 -0.325771	 -0.243328	 1.093227
C	 -0.906582	 0.356615	 -1.156346
H	 -0.521228	 -0.799892	 1.991610
C	 0.762993	 0.608085	 1.016317
H	 -1.575480	 0.241397	 -1.987150
C	 0.180913	 1.203368	 -1.232126
H	 1.412366	 0.707297	 1.865578
C	 1.019812	 1.327193	 -0.128992
C	 0.469714	 1.969559	 -2.498297
H	 1.867057	 1.985122	 -0.171027
H	 0.749087	 2.992522	 -2.278479
H	 -0.390722	 1.987109	 -3.153345
H	 1.291896	 1.515108	 -3.040638

	symmetry c1
}
set optking {
	frozen_dihedral = ("
		5 3 2 1
	")
}

ee = optimize('scf')
oeprop('DIPOLE', 'QUADRUPOLE', 'MULLIKEN_CHARGES')
f=open( 'psi4out.xyz', 'w' )
f.write( "16  " )
f.write( str(ee) + "\n" )
f.write( MOL.save_string_xyz() )
f.close()
--------------------------------------------------------------------------

    Molecular point group: c1
  Charge       = 0
  Multiplicity = 1
  Basis Set: CC-PVTZ
  Basis Set:
  @DF-RHF Final Energy:  -344.71547691954538
    Total Energy =                       -344.7154769195454378
    Molecular point group: c1
  Basis Set: CC-PVTZ
  Basis Set:
  Basis Set: CC-PVTZ
  Basis Set:
  @DF-RHF Final Energy:  -344.71662715294235
    Total Energy =                       -344.7166271529424648
  Basis Set: CC-PVTZ
  Basis Set:
  Basis Set: CC-PVTZ
  Basis Set:
  @DF-RHF Final Energy:  -344.71670013595661
    Total Energy =                       -344.7167001359566711
  Basis Set: CC-PVTZ
  Basis Set:
  Basis Set: CC-PVTZ
  Basis Set:
  @DF-RHF Final Energy:  -344.71670778137525
    Total Energy =                       -344.7167077813753053
  Basis Set: CC-PVTZ
  Basis Set:
  Basis Set: CC-PVTZ
  Basis Set:
  @DF-RHF Final Energy:  -344.71670918876691
    Total Energy =                       -344.7167091887666857
  Basis Set: CC-PVTZ
  Basis Set:
  Charge       = 0
  Multiplicity = 1
  Basis Set: CC-PVTZ
  Basis Set:

    Orbital Energies (a.u.)
    -----------------------

    Doubly Occupied:

       1A    -20.570599     2A    -11.287348     3A    -11.240930
       4A    -11.230759     5A    -11.221378     6A    -11.219588
       7A    -11.218343     8A    -11.217888     9A     -1.397690
      10A     -1.155006    11A     -1.047148    12A     -1.007118
      13A     -0.939771    14A     -0.835084    15A     -0.806527
      16A     -0.724647    17A     -0.680483    18A     -0.656932
      19A     -0.620596    20A     -0.594062    21A     -0.578799
      22A     -0.570249    23A     -0.553974    24A     -0.518659
      25A     -0.505170    26A     -0.485029    27A     -0.467858
      28A     -0.334072    29A     -0.320975

  @DF-RHF Final Energy:  -344.71670949505750

   => Energetics <=

    Nuclear Repulsion Energy =            345.8857116727206744
    One-Electron Energy =               -1153.1914795601860533
    Two-Electron Energy =                 462.5890583924078214
    DFT Exchange-Correlation Energy =       0.0000000000000000
    Empirical Dispersion Energy =           0.0000000000000000
    PCM Polarization Energy =               0.0000000000000000
    EFP Energy =                            0.0000000000000000
    Total Energy =                       -344.7167094950576143
    Molecular point group: c1
  Basis Set: CC-PVTZ
  Basis Set:

  -Total Gradient:
     Atom            X                  Y                   Z
    ------   -----------------  -----------------  -----------------
       1        0.000037711601     0.000070416505     0.001666482474
       2        0.000259645215    -0.000595722098    -0.002282067288
       3       -0.000987360619     0.001423075610     0.001083967213
       4       -0.000017172591    -0.000008097523    -0.000009374701
       5        0.000686984943    -0.000885115617    -0.000449018161
       6       -0.000007216527    -0.000005220538    -0.000004091734
       7        0.000003510581     0.000018929426    -0.000024048534
       8        0.000016709911    -0.000000286747     0.000016812238
       9        0.000000651894    -0.000019617815    -0.000027378762
      10       -0.000002321315    -0.000000042691    -0.000000034307
      11        0.000010823664    -0.000014372404     0.000031428022
      12        0.000005929846     0.000006783852     0.000008647744
      13       -0.000004922279     0.000002234054    -0.000011061229
      14       -0.000005724155     0.000005761179     0.000000749585
      15       -0.000000626111    -0.000001724283    -0.000009269867
      16        0.000003375943     0.000002999093     0.000008257305

  **** Optimization is complete! (in 6 steps) ****
    Final optimized geometry and variables:
    Molecular point group: c1

    Geometry (in Angstrom), charge = 0, multiplicity = 1:

    H           -2.714875216096    -1.171039613506     0.428292588509
    O           -1.901888188303    -1.644562275072     0.433442911481
    C           -0.843753334258    -0.782510183912     0.379679902844
    C           -0.008468742413    -0.675972138003     1.470188152801
    C           -0.580742116829    -0.071047951250    -0.778111753396
    H           -0.220359758395    -1.243648014714     2.354649217537
    C            1.089461822008     0.161914237412     1.394494630292
    H           -1.236272405258    -0.191839595902    -1.620230054847
    C            0.512491448899     0.773421476723    -0.855758033221
    H            1.744492910117     0.253082182699     2.240169255262
    C            1.347201405006     0.884361928800     0.248365950637
    C            0.812334123020     1.534903567817    -2.122672725018
    H            2.201476215572     1.533950160477     0.207677741224
    H            1.099516607024     2.556122783479    -1.904497599288
    H           -0.046296819956     1.559716145230    -2.780258674281
    H            1.631320618944     1.073245697642    -2.663669406354

  Mulliken Charges: (a.u.)
   Center  Symbol    Alpha    Beta     Spin     Total
       1     H     0.38757  0.38757  0.00000  0.22486
       2     O     4.19067  4.19067  0.00000 -0.38135
       3     C     2.85636  2.85636  0.00000  0.28728
       4     C     3.12203  3.12203  0.00000 -0.24406
       5     C     3.14877  3.14877  0.00000 -0.29755
       6     H     0.41676  0.41676  0.00000  0.16648
       7     C     3.05826  3.05826  0.00000 -0.11652
       8     H     0.42283  0.42283  0.00000  0.15434
       9     C     2.94601  2.94601  0.00000  0.10799
      10     H     0.42233  0.42233  0.00000  0.15534
      11     C     3.10913  3.10913  0.00000 -0.21825
      12     C     3.14643  3.14643  0.00000 -0.29286
      13     H     0.42707  0.42707  0.00000  0.14587
      14     H     0.44804  0.44804  0.00000  0.10391
      15     H     0.45144  0.45144  0.00000  0.09712
      16     H     0.44630  0.44630  0.00000  0.10739

   Total alpha = 29.00000, Total beta = 29.00000, Total charge = -0.00000
