                              Psi4 1.0.54 Driver

  ==> Input File <==

--------------------------------------------------------------------------
set {
	reference rhf
	basis cc-pvtz
}

set_num_threads( 4 )
memory 2 gb

molecule MOL {
0 1

H	 -3.794193	 0.408671	 -0.994430
O	 -3.515113	 -0.019339	 -0.206321
C	 -2.302264	 0.528872	 0.237390
C	 -1.175688	 -0.398187	 -0.171891
H	 -2.148018	 1.514076	 -0.197759
H	 -2.310727	 0.646384	 1.319032
C	 0.196029	 0.106276	 0.266738
H	 -1.201873	 -0.515469	 -1.250677
H	 -1.365975	 -1.378728	 0.252664
C	 1.330220	 -0.826136	 -0.155230
H	 0.359542	 1.097229	 -0.145561
H	 0.212134	 0.218135	 1.348778
C	 2.719700	 -0.407669	 0.328325
H	 1.339388	 -0.911200	 -1.239363
H	 1.119001	 -1.821953	 0.224128
C	 3.241564	 0.893452	 -0.276737
H	 3.418299	 -1.204729	 0.093035
H	 2.711776	 -0.323368	 1.411960
H	 3.254204	 0.841071	 -1.360784
H	 2.634460	 1.745075	 0.005842
H	 4.254264	 1.092401	 0.054971

	symmetry c1
}
set optking {
	frozen_dihedral = ("
		1 2 3 5
	")
}

ee,wfn = optimize('scf', return_wfn=True)
oeprop( wfn, 'DIPOLE', 'QUADRUPOLE', 'MULLIKEN_CHARGES')
f=open( 'psi4out.xyz', 'w' )
f.write( "21  " )
f.write( str(ee) + "\n" )
f.write( MOL.save_string_xyz() )
f.close()
--------------------------------------------------------------------------

    Molecular point group: c1
  Charge       = 0
  Multiplicity = 1
  Basis Set: CC-PVTZ
  Basis Set:
  @DF-RHF Final Energy:  -310.33070597440519
    Total Energy =                       -310.3307059744055323
    Molecular point group: c1
  Basis Set: CC-PVTZ
  Basis Set:
  Basis Set: CC-PVTZ
  Basis Set:
  @DF-RHF Final Energy:  -310.33069520388659
    Total Energy =                       -310.3306952038867621
  Basis Set: CC-PVTZ
  Basis Set:
  Basis Set: CC-PVTZ
  Basis Set:
  @DF-RHF Final Energy:  -310.33158743283184
    Total Energy =                       -310.3315874328319524
  Basis Set: CC-PVTZ
  Basis Set:
  Basis Set: CC-PVTZ
  Basis Set:
  @DF-RHF Final Energy:  -310.33160279797033
    Total Energy =                       -310.3316027979706178
  Basis Set: CC-PVTZ
  Basis Set:
  Basis Set: CC-PVTZ
  Basis Set:
  @DF-RHF Final Energy:  -310.33160135364199
    Total Energy =                       -310.3316013536421565
  Basis Set: CC-PVTZ
  Basis Set:
  Basis Set: CC-PVTZ
  Basis Set:
  @DF-RHF Final Energy:  -310.33160431513079
    Total Energy =                       -310.3316043151304484
  Basis Set: CC-PVTZ
  Basis Set:
  Charge       = 0
  Multiplicity = 1
  Basis Set: CC-PVTZ
  Basis Set:

    Orbital Energies (a.u.)
    -----------------------

    Doubly Occupied:

       1A    -20.544542     2A    -11.265394     3A    -11.214186
       4A    -11.213972     5A    -11.212493     6A    -11.209664
       7A    -11.207061     8A     -1.362157     9A     -1.088231
      10A     -1.034707    11A     -0.955826    12A     -0.878456
      13A     -0.812838    14A     -0.779682    15A     -0.703243
      16A     -0.646967    17A     -0.624481    18A     -0.604677
      19A     -0.594423    20A     -0.571503    21A     -0.545192
      22A     -0.522095    23A     -0.508788    24A     -0.494030
      25A     -0.472487    26A     -0.468092    27A     -0.460882
      28A     -0.456496    29A     -0.422565

  @DF-RHF Final Energy:  -310.33160437836955

   => Energetics <=

    Nuclear Repulsion Energy =            312.5728531890284785
    One-Electron Energy =               -1040.0586563012623174
    Two-Electron Energy =                 417.1541987338642912
    DFT Exchange-Correlation Energy =       0.0000000000000000
    Empirical Dispersion Energy =           0.0000000000000000
    PCM Polarization Energy =               0.0000000000000000
    EFP Energy =                            0.0000000000000000
    Total Energy =                       -310.3316043783695477
    Molecular point group: c1
  Basis Set: CC-PVTZ
  Basis Set:

  -Total Gradient:
     Atom            X                  Y                   Z
    ------   -----------------  -----------------  -----------------
       1       -0.000447038291     0.000724221594     0.000750977492
       2        0.000640295997    -0.000992500118    -0.001149745566
       3       -0.000543453131     0.000615687986     0.001238842382
       4        0.000003628739     0.000001047758     0.000006682014
       5        0.000350113789    -0.000352646910    -0.000842603194
       6       -0.000004792832    -0.000001711737    -0.000004282054
       7       -0.000001122078    -0.000006938975     0.000000066824
       8       -0.000000812546    -0.000000898753     0.000000286817
       9       -0.000007139470     0.000005212020     0.000001655877
      10        0.000008096537     0.000003285322    -0.000002041427
      11        0.000005206336    -0.000004074827     0.000000240955
      12       -0.000000011739    -0.000001395216     0.000002722980
      13       -0.000007486981     0.000009900069    -0.000003512238
      14       -0.000000134577     0.000002118109     0.000000121760
      15       -0.000004080809     0.000002183214     0.000001570860
      16        0.000008104894    -0.000003571720     0.000000661264
      17        0.000000611965     0.000001546310     0.000000248340
      18       -0.000003936922     0.000002420859    -0.000001236108
      19       -0.000002708007     0.000000238228    -0.000000040695
      20        0.000002295864    -0.000006087870     0.000001235647
      21        0.000004363268     0.000001964656    -0.000001851931

  **** Optimization is complete! (in 7 steps) ****
    Final optimized geometry and variables:
    Molecular point group: c1

    Geometry (in Angstrom), charge = 0, multiplicity = 1:

    H           -3.910020546258     0.616311235579    -0.643408655425
    O           -3.557509454926     0.106280770114     0.060250654198
    C           -2.271486908311     0.559923230474     0.400209064667
    C           -1.191262841972    -0.352057679044    -0.156877206189
    H           -2.116854675729     1.574696381736     0.043513666420
    H           -2.212845680833     0.586481002054     1.482223883035
    C            0.215215483637     0.073722030779     0.254486849099
    H           -1.270227852870    -0.368931195457    -1.240841559577
    H           -1.389582902040    -1.363568235148     0.183018447049
    C            1.300467717531    -0.844184406017    -0.305299672332
    H            0.389066474970     1.094327431393    -0.073325003772
    H            0.284831126979     0.085546583399     1.340030348376
    C            2.722467732847    -0.509512755740     0.147972747254
    H            1.258481878100    -0.827711988875    -1.391964450519
    H            1.076023830158    -1.865124016236    -0.009736356836
    C            3.256275725972     0.828228567723    -0.358616107685
    H            3.384997232699    -1.299129763732    -0.192910129576
    H            2.765792790535    -0.526797326324     1.233819412619
    H            3.217362155364     0.877708335299    -1.442204172556
    H            2.689861315901     1.665422458480     0.031145822126
    H            4.288885251853     0.967865577082    -0.059779621308

  Mulliken Charges: (a.u.)
   Center  Symbol    Alpha    Beta     Spin     Total
       1     H     0.39293  0.39293  0.00000  0.21415
       2     O     4.20377  4.20377  0.00000 -0.40755
       3     C     2.97272  2.97272  0.00000  0.05457
       4     C     3.08178  3.08178  0.00000 -0.16356
       5     H     0.47221  0.47221  0.00000  0.05558
       6     H     0.45808  0.45808  0.00000  0.08384
       7     C     3.10386  3.10386  0.00000 -0.20771
       8     H     0.45974  0.45974  0.00000  0.08052
       9     H     0.45000  0.45000  0.00000  0.10000
      10     C     3.09399  3.09399  0.00000 -0.18798
      11     H     0.45409  0.45409  0.00000  0.09182
      12     H     0.45401  0.45401  0.00000  0.09198
      13     C     3.08993  3.08993  0.00000 -0.17986
      14     H     0.45375  0.45375  0.00000  0.09251
      15     H     0.44840  0.44840  0.00000  0.10319
      16     C     3.15253  3.15253  0.00000 -0.30506
      17     H     0.44833  0.44833  0.00000  0.10334
      18     H     0.45455  0.45455  0.00000  0.09090
      19     H     0.45502  0.45502  0.00000  0.08996
      20     H     0.45415  0.45415  0.00000  0.09171
      21     H     0.44617  0.44617  0.00000  0.10766

   Total alpha = 29.00000, Total beta = 29.00000, Total charge = -0.00000

*** Psi4 exiting successfully. Buy a developer a beer!
