                              Psi4 1.0.54 Driver

  ==> Input File <==

--------------------------------------------------------------------------
set {
	reference rhf
	basis cc-pvtz
}

set_num_threads( 4 )
memory 2 gb

molecule MOL {
0 1

H	 3.756189	 -0.229769	 0.742707
O	 2.860173	 -0.418738	 0.977533
C	 2.076458	 -0.067370	 -0.038225
C	 0.626018	 -0.337582	 0.258241
O	 2.510558	 0.397550	 -1.034843
C	 -0.267326	 0.883135	 0.076490
H	 0.325620	 -1.161483	 -0.378003
H	 0.574537	 -0.713685	 1.275261
C	 -1.726822	 0.642622	 0.463839
H	 -0.210803	 1.217591	 -0.953497
H	 0.129920	 1.693110	 0.675679
C	 -2.480891	 -0.340606	 -0.429852
H	 -2.243098	 1.597649	 0.438609
H	 -1.776542	 0.301208	 1.495542
C	 -3.955933	 -0.460128	 -0.060472
H	 -2.393755	 -0.020485	 -1.464726
H	 -2.024244	 -1.323637	 -0.374360
H	 -4.467673	 -1.160944	 -0.709827
H	 -4.458917	 0.497287	 -0.144505
H	 -4.076458	 -0.806900	 0.960497

	symmetry c1
}
set optking {
	frozen_dihedral = ("
		5 3 4 7
	")
}

ee,wfn = optimize('scf', return_wfn=True)
oeprop( wfn, 'DIPOLE', 'QUADRUPOLE', 'MULLIKEN_CHARGES')
f=open( 'psi4out.xyz', 'w' )
f.write( "20  " )
f.write( str(ee) + "\n" )
f.write( MOL.save_string_xyz() )
f.close()
--------------------------------------------------------------------------

    Molecular point group: c1
  Charge       = 0
  Multiplicity = 1
  Basis Set: CC-PVTZ
  Basis Set:
  @DF-RHF Final Energy:  -384.09287191072758
    Total Energy =                       -384.0928719107279221
    Molecular point group: c1
  Basis Set: CC-PVTZ
  Basis Set:
  Basis Set: CC-PVTZ
  Basis Set:
  @DF-RHF Final Energy:  -384.09338130773068
    Total Energy =                       -384.0933813077307946
  Basis Set: CC-PVTZ
  Basis Set:
  Basis Set: CC-PVTZ
  Basis Set:
  @DF-RHF Final Energy:  -384.09280886935517
    Total Energy =                       -384.0928088693548261
  Basis Set: CC-PVTZ
  Basis Set:
  Basis Set: CC-PVTZ
  Basis Set:
  @DF-RHF Final Energy:  -384.09354400101438
    Total Energy =                       -384.0935440010142656
  Basis Set: CC-PVTZ
  Basis Set:
  Basis Set: CC-PVTZ
  Basis Set:
  @DF-RHF Final Energy:  -384.09355892229996
    Total Energy =                       -384.0935589222998487
  Basis Set: CC-PVTZ
  Basis Set:
  Basis Set: CC-PVTZ
  Basis Set:
  @DF-RHF Final Energy:  -384.09355540271139
    Total Energy =                       -384.0935554027114449
  Basis Set: CC-PVTZ
  Basis Set:
  Basis Set: CC-PVTZ
  Basis Set:
  @DF-RHF Final Energy:  -384.09356377596896
    Total Energy =                       -384.0935637759687324
  Basis Set: CC-PVTZ
  Basis Set:
  Charge       = 0
  Multiplicity = 1
  Basis Set: CC-PVTZ
  Basis Set:

    Orbital Energies (a.u.)
    -----------------------

    Doubly Occupied:

       1A    -20.605916     2A    -20.537593     3A    -11.373081
       4A    -11.237431     5A    -11.226093     6A    -11.220143
       7A    -11.218754     8A    -11.210884     9A     -1.477829
      10A     -1.367897    11A     -1.098533    12A     -1.042098
      13A     -0.961862    14A     -0.868931    15A     -0.821465
      16A     -0.782477    17A     -0.705096    18A     -0.691857
      19A     -0.657820    20A     -0.633732    21A     -0.615134
      22A     -0.596445    23A     -0.578125    24A     -0.557444
      25A     -0.539840    26A     -0.517346    27A     -0.496538
      28A     -0.485735    29A     -0.471461    30A     -0.469215
      31A     -0.459819    32A     -0.441646

  @DF-RHF Final Energy:  -384.09356381310164

   => Energetics <=

    Nuclear Repulsion Energy =            376.6958723757895200
    One-Electron Energy =               -1269.6423920189158707
    Two-Electron Energy =                 508.8529558300243707
    DFT Exchange-Correlation Energy =       0.0000000000000000
    Empirical Dispersion Energy =           0.0000000000000000
    PCM Polarization Energy =               0.0000000000000000
    EFP Energy =                            0.0000000000000000
    Total Energy =                       -384.0935638131019232
    Molecular point group: c1
  Basis Set: CC-PVTZ
  Basis Set:

  -Total Gradient:
     Atom            X                  Y                   Z
    ------   -----------------  -----------------  -----------------
       1        0.000003689650    -0.000002533609     0.000002825674
       2        0.000008996895     0.000002281736    -0.000001273556
       3       -0.000119561497     0.001053553457     0.000312144464
       4        0.000263209391    -0.000834226249     0.000425683840
       5        0.000058119652    -0.000664901689    -0.000273544811
       6       -0.000008790419    -0.000001376602    -0.000009398032
       7       -0.000205126034     0.000450469359    -0.000459272472
       8       -0.000001119295    -0.000001080477     0.000000163467
       9        0.000002582902    -0.000003600138     0.000009085719
      10        0.000000309920    -0.000000573514    -0.000003426393
      11       -0.000000593384    -0.000003079773     0.000001050021
      12       -0.000001763308     0.000005039023    -0.000008313587
      13        0.000003970585     0.000001457049    -0.000000021550
      14       -0.000003004423     0.000000078540     0.000002702155
      15        0.000001872520    -0.000002374363     0.000003724443
      16       -0.000001319552     0.000000986437    -0.000004902333
      17       -0.000003062482     0.000000858807     0.000001011063
      18        0.000002160564    -0.000000995149     0.000000699161
      19        0.000001060877    -0.000000201428    -0.000001524584
      20       -0.000001632552     0.000000218582     0.000002587306

  **** Optimization is complete! (in 8 steps) ****
    Final optimized geometry and variables:
    Molecular point group: c1

    Geometry (in Angstrom), charge = 0, multiplicity = 1:

    H            3.795961723738    -0.284998041125     0.583866046729
    O            2.918611510315    -0.472905674862     0.883167356024
    C            2.065044508365    -0.092172393546    -0.060705387250
    C            0.628601325488    -0.375890120633     0.293693394995
    O            2.427454234938     0.399563888691    -1.074165905832
    C           -0.262898346206     0.849327795099     0.076462463718
    H            0.316817812000    -1.186891064581    -0.353972441941
    H            0.571193471371    -0.725245636527     1.315087724126
    C           -1.730419969797     0.616775065429     0.436423153353
    H           -0.178672087418     1.166279189138    -0.955725314260
    H            0.117849767072     1.666270433854     0.681350795268
    C           -2.467221997365    -0.372927892499    -0.464321932051
    H           -2.242372061274     1.573466645743     0.390123655061
    H           -1.802845305430     0.286330629610     1.470091815964
    C           -3.949401206932    -0.487671372627    -0.122549957451
    H           -2.358757410583    -0.062033816139    -1.499782667962
    H           -2.013124203273    -1.355834414620    -0.391054921607
    H           -4.448043881032    -1.196398634737    -0.773418118193
    H           -4.450556452116     0.468538782972    -0.228460342855
    H           -4.090440850653    -0.821984112451     0.899972936561

  Mulliken Charges: (a.u.)
   Center  Symbol    Alpha    Beta     Spin     Total
       1     H     0.38085  0.38085  0.00000  0.23830
       2     O     4.15721  4.15721  0.00000 -0.31442
       3     C     2.80917  2.80917  0.00000  0.38166
       4     C     3.09475  3.09475  0.00000 -0.18949
       5     O     4.19808  4.19808  0.00000 -0.39616
       6     C     3.10228  3.10228  0.00000 -0.20456
       7     H     0.44230  0.44230  0.00000  0.11541
       8     H     0.43726  0.43726  0.00000  0.12548
       9     C     3.09766  3.09766  0.00000 -0.19533
      10     H     0.43868  0.43868  0.00000  0.12264
      11     H     0.44447  0.44447  0.00000  0.11105
      12     C     3.08710  3.08710  0.00000 -0.17419
      13     H     0.44610  0.44610  0.00000  0.10781
      14     H     0.45335  0.45335  0.00000  0.09330
      15     C     3.14958  3.14958  0.00000 -0.29915
      16     H     0.45074  0.45074  0.00000  0.09852
      17     H     0.45441  0.45441  0.00000  0.09118
      18     H     0.44742  0.44742  0.00000  0.10516
      19     H     0.45372  0.45372  0.00000  0.09256
      20     H     0.45489  0.45489  0.00000  0.09023

   Total alpha = 32.00000, Total beta = 32.00000, Total charge = -0.00000

*** Psi4 exiting successfully. Buy a developer a beer!
