  ==> Input File <==

--------------------------------------------------------------------------
set {
	reference rhf
	basis 6-31G*
}

set_num_threads( 4 )
memory 2 gb

molecule MOL {
0 1

H	 2.230844	 -1.300108	 -0.131591
O	 1.654024	 -0.625927	 -0.460906
C	 1.135793	 0.118896	 0.612333
C	 0.031547	 1.023609	 0.088541
H	 1.915668	 0.729681	 1.063582
H	 0.754543	 -0.542641	 1.387006
C	 -1.134819	 0.293262	 -0.585751
H	 0.474374	 1.714721	 -0.623187
H	 -0.338529	 1.620940	 0.920081
C	 -1.917817	 -0.639439	 0.339494
H	 -0.758119	 -0.268455	 -1.433105
H	 -1.813832	 1.041889	 -0.986690
H	 -2.777680	 -1.057197	 -0.174994
H	 -1.310268	 -1.471279	 0.680599
H	 -2.283753	 -0.111424	 1.216626

	symmetry c1
}
set optking {
	frozen_dihedral = ("
		1 2 3 4
	")
}

ee = optimize('scf')
oeprop('DIPOLE', 'QUADRUPOLE', 'MULLIKEN_CHARGES')
f=open( 'psi4out.xyz', 'w' )
f.write( "15  " )
f.write( str(ee) + "\n" )
f.write( MOL.save_string_xyz() )
f.close()
--------------------------------------------------------------------------

    Molecular point group: c1
  Charge       = 0
  Multiplicity = 1
  Basis Set: 6-31G*
  Basis Set:
  @DF-RHF Final Energy:  -232.14378702524297
    Total Energy =                       -232.1437870252427729
    Molecular point group: c1
  Basis Set: 6-31G*
  Basis Set:
  Basis Set: 6-31G*
  Basis Set:
  @DF-RHF Final Energy:  -232.14378958649280
    Total Energy =                       -232.1437895864926872
  Basis Set: 6-31G*
  Basis Set:
  Basis Set: 6-31G*
  Basis Set:
  @DF-RHF Final Energy:  -232.14378793349300
    Total Energy =                       -232.1437879334929448
  Basis Set: 6-31G*
  Basis Set:
  Basis Set: 6-31G*
  Basis Set:
  @DF-RHF Final Energy:  -232.14379167242276
    Total Energy =                       -232.1437916724228785
  Basis Set: 6-31G*
  Basis Set:
  Charge       = 0
  Multiplicity = 1
  Basis Set: 6-31G*
  Basis Set:

    Orbital Energies (a.u.)
    -----------------------

    Doubly Occupied:

       1A    -20.553366     2A    -11.267517     3A    -11.212405
       4A    -11.208775     5A    -11.205348     6A     -1.359912
       7A     -1.063835     8A     -0.970301     9A     -0.868686
      10A     -0.774217    11A     -0.704328    12A     -0.648563
      13A     -0.607268    14A     -0.573733    15A     -0.563082
      16A     -0.532522    17A     -0.509256    18A     -0.473657
      19A     -0.466836    20A     -0.452608    21A     -0.430565

  @DF-RHF Final Energy:  -232.14379168732668

   => Energetics <=

    Nuclear Repulsion Energy =            191.8295041727861019
    One-Electron Energy =                -695.0530364676003501
    Two-Electron Energy =                 271.0797406074875084
    DFT Exchange-Correlation Energy =       0.0000000000000000
    Empirical Dispersion Energy =           0.0000000000000000
    PCM Polarization Energy =               0.0000000000000000
    EFP Energy =                            0.0000000000000000
    Total Energy =                       -232.1437916873267682
    Molecular point group: c1
  Basis Set: 6-31G*
  Basis Set:

  -Total Gradient:
     Atom            X                  Y                   Z
    ------   -----------------  -----------------  -----------------
       1       -0.000622129375    -0.000513589515     0.000043797765
       2        0.000649538363     0.000511458475    -0.000017942577
       3        0.000303997649     0.000356622931    -0.000105081409
       4       -0.000331560942    -0.000353973522     0.000080812763
       5       -0.000002537802     0.000000904762    -0.000003116743
       6        0.000003137873    -0.000003141803     0.000004543607
       7       -0.000001229472    -0.000002941181    -0.000001217160
       8       -0.000002177396     0.000001355362    -0.000002694075
       9       -0.000000480455     0.000001882430    -0.000000778740
      10        0.000000558062     0.000001901988     0.000002153728
      11        0.000000998999     0.000001547997     0.000000388645
      12        0.000000703756    -0.000001241756     0.000001701260
      13       -0.000001185528     0.000001379691     0.000000386418
      14       -0.000001020516    -0.000001428208    -0.000001980035
      15        0.000003386785    -0.000000737651    -0.000000973446

  **** Optimization is complete! (in 5 steps) ****
    Final optimized geometry and variables:
    Molecular point group: c1

    Geometry (in Angstrom), charge = 0, multiplicity = 1:

    H            2.245761967931    -1.289276675350    -0.140285157751
    O            1.666701858945    -0.615369989721    -0.465903403880
    C            1.137490601190     0.116924577029     0.610908685451
    C            0.030648367568     1.020224602601     0.089884669905
    H            1.912429330430     0.725362219824     1.073501911660
    H            0.753415312747    -0.553472671235     1.376334085419
    C           -1.135076605737     0.289213306588    -0.584510858025
    H            0.471456732226     1.713421601374    -0.621164946297
    H           -0.339123411034     1.616209813277     0.922584946701
    C           -1.925182330007    -0.635433687548     0.342963970186
    H           -0.756390002234    -0.278434919860    -1.427152197965
    H           -1.810512295426     1.037188438266    -0.992496044494
    H           -2.783916970747    -1.053873353907    -0.172881443832
    H           -1.322343642226    -1.467326405625     0.692536151582
    H           -2.293396722956    -0.100883453653     1.215078799988

  Mulliken Charges: (a.u.)
   Center  Symbol    Alpha    Beta     Spin     Total
       1     H     0.28052  0.28052  0.00000  0.43897
       2     O     4.36984  4.36984  0.00000 -0.73968
       3     C     2.99894  2.99894  0.00000  0.00212
       4     C     3.16124  3.16124  0.00000 -0.32248
       5     H     0.42848  0.42848  0.00000  0.14303
       6     H     0.43111  0.43111  0.00000  0.13778
       7     C     3.15365  3.15365  0.00000 -0.30730
       8     H     0.41401  0.41401  0.00000  0.17198
       9     H     0.42466  0.42466  0.00000  0.15068
      10     C     3.24300  3.24300  0.00000 -0.48600
      11     H     0.40752  0.40752  0.00000  0.18497
      12     H     0.42274  0.42274  0.00000  0.15451
      13     H     0.41890  0.41890  0.00000  0.16221
      14     H     0.42075  0.42075  0.00000  0.15849
      15     H     0.42464  0.42464  0.00000  0.15071

   Total alpha = 21.00000, Total beta = 21.00000, Total charge =  0.00000
