                              Psi4 1.0.54 Driver

  ==> Input File <==

--------------------------------------------------------------------------
set {
	reference rhf
	basis cc-pvtz
}

set_num_threads( 4 )
memory 2 gb

molecule MOL {
0 1

H	 -2.925438	 -0.898480	 1.776060
O	 -2.347955	 -1.137560	 1.066784
C	 -1.282566	 -0.342309	 1.104940
C	 -0.310616	 -0.658853	 0.000791
O	 -1.156542	 0.501534	 1.923485
C	 0.926581	 0.227233	 0.000178
H	 -0.853882	 -0.578949	 -0.935267
H	 -0.045747	 -1.706621	 0.099506
C	 2.220156	 -0.582071	 -0.000088
H	 0.899945	 0.878221	 -0.866390
H	 0.900542	 0.878581	 0.866486
C	 3.466689	 0.296012	 -0.000457
H	 2.239073	 -1.234095	 -0.869382
H	 2.239505	 -1.233985	 0.869270
H	 3.493549	 0.935857	 -0.875887
H	 4.368821	 -0.304526	 -0.001199
H	 3.494559	 0.935166	 0.875458

	symmetry c1
}
set optking {
	frozen_dihedral = ("
		7 4 6 10
	")
}

ee,wfn = optimize('scf', return_wfn=True)
oeprop( wfn, 'DIPOLE', 'QUADRUPOLE', 'MULLIKEN_CHARGES')
f=open( 'psi4out.xyz', 'w' )
f.write( "17  " )
f.write( str(ee) + "\n" )
f.write( MOL.save_string_xyz() )
f.close()
--------------------------------------------------------------------------

    Molecular point group: c1
  Charge       = 0
  Multiplicity = 1
  Basis Set: CC-PVTZ
  Basis Set:
  @DF-RHF Final Energy:  -345.04418311252579
    Total Energy =                       -345.0441831125262411
    Molecular point group: c1
  Basis Set: CC-PVTZ
  Basis Set:
  Basis Set: CC-PVTZ
  Basis Set:
  @DF-RHF Final Energy:  -345.04440129509197
    Total Energy =                       -345.0444012950920865
  Basis Set: CC-PVTZ
  Basis Set:
  Basis Set: CC-PVTZ
  Basis Set:
  @DF-RHF Final Energy:  -345.04432833369515
    Total Energy =                       -345.0443283336950344
  Basis Set: CC-PVTZ
  Basis Set:
  Basis Set: CC-PVTZ
  Basis Set:
  @DF-RHF Final Energy:  -345.04455091449353
    Total Energy =                       -345.0445509144938114
  Basis Set: CC-PVTZ
  Basis Set:
  Basis Set: CC-PVTZ
  Basis Set:
  @DF-RHF Final Energy:  -345.04455614407624
    Total Energy =                       -345.0445561440762958
  Basis Set: CC-PVTZ
  Basis Set:
  Basis Set: CC-PVTZ
  Basis Set:
  @DF-RHF Final Energy:  -345.04455717804649
    Total Energy =                       -345.0445571780466025
  Basis Set: CC-PVTZ
  Basis Set:
  Charge       = 0
  Multiplicity = 1
  Basis Set: CC-PVTZ
  Basis Set:

    Orbital Energies (a.u.)
    -----------------------

    Doubly Occupied:

       1A    -20.604353     2A    -20.541569     3A    -11.374573
       4A    -11.239456     5A    -11.220075     6A    -11.219288
       7A    -11.209571     8A     -1.478318     9A     -1.369803
      10A     -1.090071    11A     -1.018862    12A     -0.914926
      13A     -0.825458    14A     -0.789781    15A     -0.705220
      16A     -0.694243    17A     -0.661950    18A     -0.630940
      19A     -0.590870    20A     -0.584970    21A     -0.580863
      22A     -0.529654    23A     -0.516928    24A     -0.485639
      25A     -0.482323    26A     -0.473003    27A     -0.468080
      28A     -0.448597

  @DF-RHF Final Energy:  -345.04455797094334

   => Energetics <=

    Nuclear Repulsion Energy =            305.6261086833634977
    One-Electron Energy =               -1075.8425661652629515
    Two-Electron Energy =                 425.1718995109562229
    DFT Exchange-Correlation Energy =       0.0000000000000000
    Empirical Dispersion Energy =           0.0000000000000000
    PCM Polarization Energy =               0.0000000000000000
    EFP Energy =                            0.0000000000000000
    Total Energy =                       -345.0445579709431740
    Molecular point group: c1
  Basis Set: CC-PVTZ
  Basis Set:

  -Total Gradient:
     Atom            X                  Y                   Z
    ------   -----------------  -----------------  -----------------
       1       -0.000022249338    -0.000027152316    -0.000019459046
       2       -0.000130468639    -0.000056842942    -0.000001927751
       3        0.000033422593     0.000125790509     0.000226322900
       4        0.001007694213    -0.001332228374    -0.000712459789
       5        0.000032545172    -0.000029136623    -0.000120194199
       6       -0.000936925430     0.001253249752     0.000792984087
       7       -0.000599892114     0.000907901032     0.000404876315
       8        0.000017578551     0.000003085195    -0.000003104915
       9       -0.000004664418    -0.000032877667    -0.000026070626
      10        0.000563025520    -0.000822373563    -0.000557216986
      11        0.000003984130    -0.000000232570     0.000001117518
      12        0.000014386687    -0.000004853175     0.000017912211
      13       -0.000011609137     0.000008625010     0.000003723837
      14        0.000003704706    -0.000007492069    -0.000010998633
      15       -0.000001714238    -0.000006285086     0.000002008937
      16        0.000027780870     0.000015191258     0.000004852351
      17        0.000003400870     0.000005631630    -0.000002366211

  **** Optimization is complete! (in 7 steps) ****
    Final optimized geometry and variables:
    Molecular point group: c1

    Geometry (in Angstrom), charge = 0, multiplicity = 1:

    H           -3.154445856573    -0.621923605341     1.095449400808
    O           -2.560488264039    -0.854321308934     0.397736275796
    C           -1.479387946160    -0.084748222780     0.491460293428
    C           -0.481220521436    -0.409542099840    -0.590989413609
    O           -1.363875822313     0.732476551066     1.337878991906
    C            0.777317201933     0.467142974314    -0.588033942328
    H           -1.020175578230    -0.340637788667    -1.528403409800
    H           -0.237504123421    -1.459513395471    -0.470304090639
    C            2.070774471687    -0.345869812283    -0.588713993773
    H            0.768960269775     1.108841179977    -1.462270918808
    H            0.758486439068     1.116045087278     0.276306208398
    C            3.318527586165     0.529277320116    -0.609561336607
    H            2.081874223721    -1.011121743584    -1.448207877291
    H            2.091322028931    -0.983006925106     0.291315274139
    H            3.343782202937     1.153423459286    -1.496630039356
    H            4.219819281398    -0.072578550264    -0.603176787346
    H            3.350137059276     1.183674060240     0.254803105767

  Mulliken Charges: (a.u.)
   Center  Symbol    Alpha    Beta     Spin     Total
       1     H     0.38264  0.38264  0.00000  0.23472
       2     O     4.15994  4.15994  0.00000 -0.31988
       3     C     2.79994  2.79994  0.00000  0.40013
       4     C     3.11853  3.11853  0.00000 -0.23707
       5     O     4.19052  4.19052  0.00000 -0.38105
       6     C     3.09403  3.09403  0.00000 -0.18807
       7     H     0.43201  0.43201  0.00000  0.13598
       8     H     0.43687  0.43687  0.00000  0.12627
       9     C     3.08692  3.08692  0.00000 -0.17384
      10     H     0.45118  0.45118  0.00000  0.09764
      11     H     0.43479  0.43479  0.00000  0.13043
      12     C     3.14993  3.14993  0.00000 -0.29985
      13     H     0.45400  0.45400  0.00000  0.09200
      14     H     0.45310  0.45310  0.00000  0.09380
      15     H     0.45514  0.45514  0.00000  0.08972
      16     H     0.44813  0.44813  0.00000  0.10375
      17     H     0.45234  0.45234  0.00000  0.09532

   Total alpha = 28.00000, Total beta = 28.00000, Total charge = -0.00000

*** Psi4 exiting successfully. Buy a developer a beer!
