  ==> Input File <==

--------------------------------------------------------------------------
set {
	reference rhf
	basis 6-31G*
}

set_num_threads( 4 )
memory 2 gb

molecule MOL {
0 1

H	 2.060325	 -0.324806	 -1.028437
O	 2.064459	 -0.086912	 -0.111827
C	 0.745630	 0.005118	 0.354752
H	 0.739005	 0.037656	 1.444976
C	 -0.064159	 -1.194875	 -0.122754
C	 -0.046302	 1.193543	 -0.190431
H	 0.197384	 -1.376065	 -1.160690
H	 0.162855	 -2.097978	 0.431858
C	 -1.535782	 -0.752177	 0.006642
H	 0.154512	 1.271315	 -1.255561
H	 0.226209	 2.140461	 0.267302
C	 -1.509193	 0.801505	 0.065617
H	 -2.127797	 -1.112194	 -0.826847
H	 -1.986849	 -1.158408	 0.905561
H	 -2.183670	 1.254107	 -0.651985
H	 -1.821727	 1.144320	 1.047089

	symmetry c1
}
set optking {
	frozen_dihedral = ("
		1 2 3 6
	")
}

ee = optimize('scf')
oeprop('DIPOLE', 'QUADRUPOLE', 'MULLIKEN_CHARGES')
f=open( 'psi4out.xyz', 'w' )
f.write( "16  " )
f.write( str(ee) + "\n" )
f.write( MOL.save_string_xyz() )
f.close()
--------------------------------------------------------------------------

    Molecular point group: c1
  Charge       = 0
  Multiplicity = 1
  Basis Set: 6-31G*
  Basis Set:
  @DF-RHF Final Energy:  -270.01176822790933
    Total Energy =                       -270.0117682279091014
    Molecular point group: c1
  Basis Set: 6-31G*
  Basis Set:
  Basis Set: 6-31G*
  Basis Set:
  @DF-RHF Final Energy:  -270.01382121114136
    Total Energy =                       -270.0138212111411349
  Basis Set: 6-31G*
  Basis Set:
  Basis Set: 6-31G*
  Basis Set:
  @DF-RHF Final Energy:  -270.01411378369517
    Total Energy =                       -270.0141137836949952
  Basis Set: 6-31G*
  Basis Set:
  Basis Set: 6-31G*
  Basis Set:
  @DF-RHF Final Energy:  -270.01412093316571
    Total Energy =                       -270.0141209331656000
  Basis Set: 6-31G*
  Basis Set:
  Charge       = 0
  Multiplicity = 1
  Basis Set: 6-31G*
  Basis Set:

    Orbital Energies (a.u.)
    -----------------------

    Doubly Occupied:

       1A    -20.552306     2A    -11.268886     3A    -11.219549
       4A    -11.218362     5A    -11.216172     6A    -11.212332
       7A     -1.361965     8A     -1.115210     9A     -0.969096
      10A     -0.948800    11A     -0.803476    12A     -0.783378
      13A     -0.681241    14A     -0.661878    15A     -0.607362
      16A     -0.585997    17A     -0.578663    18A     -0.547351
      19A     -0.504621    20A     -0.485058    21A     -0.473474
      22A     -0.460064    23A     -0.454708    24A     -0.411444

  @DF-RHF Final Energy:  -270.01412192325461

   => Energetics <=

    Nuclear Repulsion Energy =            254.9803471790826563
    One-Electron Energy =                -871.7461570344084976
    Two-Electron Energy =                 346.7516879320712633
    DFT Exchange-Correlation Energy =       0.0000000000000000
    Empirical Dispersion Energy =           0.0000000000000000
    PCM Polarization Energy =               0.0000000000000000
    EFP Energy =                            0.0000000000000000
    Total Energy =                       -270.0141219232546064
    Molecular point group: c1
  Basis Set: 6-31G*
  Basis Set:

  -Total Gradient:
     Atom            X                  Y                   Z
    ------   -----------------  -----------------  -----------------
       1       -0.000020099225    -0.000994843878     0.000219502822
       2        0.000020674597     0.001363310016     0.000016610936
       3       -0.000199289651    -0.000694144854    -0.000760106068
       4       -0.000001010512     0.000012200044     0.000018136960
       5        0.000076058639     0.000053674591    -0.000070864234
       6        0.000180750187     0.000306143122     0.000499052731
       7       -0.000004295641    -0.000018123842     0.000018289089
       8        0.000009494130     0.000026560435     0.000010525215
       9       -0.000058562562     0.000016938309     0.000044031309
      10        0.000023585357    -0.000004903934    -0.000000553333
      11        0.000021006081    -0.000007321403     0.000001247781
      12        0.000001915946    -0.000034143325     0.000007385215
      13       -0.000010463718     0.000007128269    -0.000019693112
      14       -0.000025037017    -0.000005155318    -0.000020716619
      15       -0.000009481206    -0.000018336331     0.000020447002
      16       -0.000005245408    -0.000008981902     0.000016704309

  **** Optimization is complete! (in 5 steps) ****
    Final optimized geometry and variables:
    Molecular point group: c1

    Geometry (in Angstrom), charge = 0, multiplicity = 1:

    H            2.162630403717    -0.222615510285    -0.965447804046
    O            2.098412458485    -0.036236495495    -0.038448804474
    C            0.749919414117    -0.002883321928     0.335604183099
    H            0.758419049313     0.033415946183     1.419718624261
    C           -0.081259136377    -1.201678753625    -0.126418810341
    C           -0.039406875801     1.192489073248    -0.197346911589
    H            0.145299623038    -1.397609766390    -1.173873625941
    H            0.147512426981    -2.106716698015     0.424538122652
    C           -1.545322727425    -0.743073774756     0.026737751280
    H            0.140784193923     1.281434179169    -1.267871062179
    H            0.257613999544     2.129164554071     0.260278078667
    C           -1.502153287322     0.811764624489     0.074521952672
    H           -2.158677605015    -1.103388997297    -0.791083236335
    H           -1.980144322467    -1.139156705809     0.937848755822
    H           -2.182741976917     1.263549560187    -0.637710079473
    H           -1.800661918940     1.162883908102     1.057172178672

  Mulliken Charges: (a.u.)
   Center  Symbol    Alpha    Beta     Spin     Total
       1     H     0.28456  0.28456  0.00000  0.43088
       2     O     4.37562  4.37562  0.00000 -0.75125
       3     C     2.90559  2.90559  0.00000  0.18883
       4     H     0.41670  0.41670  0.00000  0.16659
       5     C     3.17423  3.17423  0.00000 -0.34847
       6     C     3.16817  3.16817  0.00000 -0.33635
       7     H     0.42791  0.42791  0.00000  0.14418
       8     H     0.41014  0.41014  0.00000  0.17973
       9     C     3.16827  3.16827  0.00000 -0.33655
      10     H     0.42725  0.42725  0.00000  0.14549
      11     H     0.41116  0.41116  0.00000  0.17767
      12     C     3.17016  3.17016  0.00000 -0.34033
      13     H     0.41479  0.41479  0.00000  0.17042
      14     H     0.41507  0.41507  0.00000  0.16987
      15     H     0.41423  0.41423  0.00000  0.17154
      16     H     0.41613  0.41613  0.00000  0.16774

   Total alpha = 24.00000, Total beta = 24.00000, Total charge =  0.00000
