  ==> Input File <==

--------------------------------------------------------------------------
set {
	reference rhf
	basis cc-pvtz
}

set_num_threads( 4 )
memory 2 gb

molecule MOL {
0 1

H	 -1.660998	 0.311684	 2.263171
C	 -1.218543	 0.150800	 1.302815
C	 -1.931845	 0.415452	 0.090250
C	 0.030824	 -0.308546	 1.197385
H	 -2.938618	 0.785617	 0.140664
C	 -1.355181	 0.205636	 -1.097189
H	 0.628229	 -0.529952	 2.059492
N	 0.640204	 -0.530428	 -0.000115
H	 -1.858000	 0.392339	 -2.023621
C	 0.007216	 -0.295118	 -1.208330
C	 2.006991	 -1.033007	 -0.000020
O	 0.559257	 -0.496064	 -2.255762
H	 2.182444	 -1.636914	 -0.880881
H	 2.678769	 -0.195442	 -0.002236
H	 2.183828	 -1.633244	 0.883082

	symmetry c1
}
set optking {
	frozen_dihedral = ("
		10 8 11 13
	")
}

ee = optimize('scf')
oeprop('DIPOLE', 'QUADRUPOLE', 'MULLIKEN_CHARGES')
f=open( 'psi4out.xyz', 'w' )
f.write( "15  " )
f.write( str(ee) + "\n" )
f.write( MOL.save_string_xyz() )
f.close()
--------------------------------------------------------------------------

    Molecular point group: c1
  Charge       = 0
  Multiplicity = 1
  Basis Set: CC-PVTZ
  Basis Set:
  @DF-RHF Final Energy:  -360.72244252479879
    Total Energy =                       -360.7224425247991348
    Molecular point group: c1
  Basis Set: CC-PVTZ
  Basis Set:
  Basis Set: CC-PVTZ
  Basis Set:
  @DF-RHF Final Energy:  -360.72290734072436
    Total Energy =                       -360.7229073407244186
  Basis Set: CC-PVTZ
  Basis Set:
  Basis Set: CC-PVTZ
  Basis Set:
  @DF-RHF Final Energy:  -360.72294613920263
    Total Energy =                       -360.7229461392022358
  Basis Set: CC-PVTZ
  Basis Set:
  Basis Set: CC-PVTZ
  Basis Set:
  @DF-RHF Final Energy:  -360.72297479614571
    Total Energy =                       -360.7229747961461612
  Basis Set: CC-PVTZ
  Basis Set:
  Basis Set: CC-PVTZ
  Basis Set:
  @DF-RHF Final Energy:  -360.72299260821706
    Total Energy =                       -360.7229926082167708
  Basis Set: CC-PVTZ
  Basis Set:
  Charge       = 0
  Multiplicity = 1
  Basis Set: CC-PVTZ
  Basis Set:

    Orbital Energies (a.u.)
    -----------------------

    Doubly Occupied:

       1A    -20.501891     2A    -15.617193     3A    -11.338612
       4A    -11.293874     5A    -11.264733     6A    -11.258154
       7A    -11.230063     8A    -11.228054     9A     -1.390917
      10A     -1.285843    11A     -1.118806    12A     -1.029070
      13A     -0.972494    14A     -0.876148    15A     -0.838801
      16A     -0.719374    17A     -0.702571    18A     -0.663739
      19A     -0.652842    20A     -0.625734    21A     -0.611918
      22A     -0.575222    23A     -0.554960    24A     -0.550708
      25A     -0.530332    26A     -0.483791    27A     -0.420603
      28A     -0.410421    29A     -0.310498

  @DF-RHF Final Energy:  -360.72299278129691

   => Energetics <=

    Nuclear Repulsion Energy =            358.6504511115331866
    One-Electron Energy =               -1200.6321562259661277
    Two-Electron Energy =                 481.2587123331360317
    DFT Exchange-Correlation Energy =       0.0000000000000000
    Empirical Dispersion Energy =           0.0000000000000000
    PCM Polarization Energy =               0.0000000000000000
    EFP Energy =                            0.0000000000000000
    Total Energy =                       -360.7229927812969663
    Molecular point group: c1
  Basis Set: CC-PVTZ
  Basis Set:

  -Total Gradient:
     Atom            X                  Y                   Z
    ------   -----------------  -----------------  -----------------
       1       -0.000004712827    -0.000007893912     0.000000966747
       2        0.000038581286    -0.000040493070     0.000011416946
       3       -0.000004290546     0.000021852364    -0.000042295998
       4       -0.000022131856     0.000075074840     0.000049303010
       5        0.000000296077    -0.000005891772     0.000005230515
       6       -0.000028576747     0.000021503335     0.000017099869
       7       -0.000001384302    -0.000016028917    -0.000001149185
       8        0.000405161572     0.001143728431    -0.000172695189
       9        0.000005830153    -0.000006938233    -0.000004465734
      10       -0.000205021257    -0.000728409769     0.000047170640
      11       -0.000419770543    -0.001181133975     0.000536876021
      12       -0.000006555689     0.000010948798    -0.000019397528
      13        0.000243640244     0.000718556126    -0.000429454480
      14        0.000006873049    -0.000005571437     0.000003020333
      15       -0.000007938614     0.000000697191    -0.000001625971

  **** Optimization is complete! (in 6 steps) ****
    Final optimized geometry and variables:
    Molecular point group: c1

    Geometry (in Angstrom), charge = 0, multiplicity = 1:

    H           -1.575359623827     0.583670845311     2.533968028211
    C           -1.129867366338     0.416893285936     1.576031397859
    C           -1.840625690385     0.670332089025     0.360210008271
    C            0.119580906748    -0.046551450149     1.479018209733
    H           -2.848586715746     1.037918515377     0.405925313320
    C           -1.261392499985     0.452507491551    -0.825110518600
    H            0.711602544873    -0.263634787760     2.345305482320
    N            0.728781808155    -0.280347461356     0.284811482354
    H           -1.761924007262     0.632195815782    -1.754262022477
    C            0.104874710236    -0.036597540138    -0.925738979806
    C            2.097975877144    -0.773601400559     0.261619338188
    O            0.678102637259    -0.222683830544    -1.964545330320
    H            2.246972502472    -1.353685187453    -0.631391977932
    H            2.803614416996     0.047886022125     0.255698207857
    H            2.271292633082    -1.387106741787     1.133343731928

  Mulliken Charges: (a.u.)
   Center  Symbol    Alpha    Beta     Spin     Total
       1     H     0.41389  0.41389  0.00000  0.17222
       2     C     3.10449  3.10449  0.00000 -0.20897
       3     C     3.06105  3.06105  0.00000 -0.12209
       4     C     3.03419  3.03419  0.00000 -0.06838
       5     H     0.41841  0.41841  0.00000  0.16318
       6     C     3.11788  3.11788  0.00000 -0.23575
       7     H     0.42132  0.42132  0.00000  0.15736
       8     N     3.51063  3.51063  0.00000 -0.02125
       9     H     0.40906  0.40906  0.00000  0.18188
      10     C     2.84519  2.84519  0.00000  0.30962
      11     C     3.09941  3.09941  0.00000 -0.19882
      12     O     4.23626  4.23626  0.00000 -0.47252
      13     H     0.42720  0.42720  0.00000  0.14561
      14     H     0.44635  0.44635  0.00000  0.10730
      15     H     0.45470  0.45470  0.00000  0.09060

   Total alpha = 29.00000, Total beta = 29.00000, Total charge = -0.00000
