  ==> Input File <==

--------------------------------------------------------------------------
set {
	reference rhf
	basis cc-pvtz
}

set_num_threads( 4 )
memory 2 gb

molecule MOL {
0 1

H	 1.166964	 -1.062386	 0.758429
O	 1.324748	 -0.612467	 -0.052206
C	 0.706474	 0.636793	 -0.025501
C	 -0.781241	 0.594476	 0.180769
H	 0.921138	 1.105668	 -0.978589
H	 1.149318	 1.272404	 0.739082
C	 -1.520732	 -0.491470	 0.227464
H	 -1.246323	 1.559889	 0.294455
H	 -1.096953	 -1.469481	 0.101454
H	 -2.581450	 -0.433560	 0.381036

	symmetry c1
}
set optking {
	frozen_dihedral = ("
		5 3 2 1
	")
}

ee = optimize('scf')
oeprop('DIPOLE', 'QUADRUPOLE', 'MULLIKEN_CHARGES')
f=open( 'psi4out.xyz', 'w' )
f.write( "10  " )
f.write( str(ee) + "\n" )
f.write( MOL.save_string_xyz() )
f.close()
--------------------------------------------------------------------------

    Molecular point group: c1
  Charge       = 0
  Multiplicity = 1
  Basis Set: CC-PVTZ
  Basis Set:
  @DF-RHF Final Energy:  -191.99879653176248
    Total Energy =                       -191.9987965317624230
    Molecular point group: c1
  Basis Set: CC-PVTZ
  Basis Set:
  Basis Set: CC-PVTZ
  Basis Set:
  @DF-RHF Final Energy:  -191.99880381153412
    Total Energy =                       -191.9988038115341737
  Basis Set: CC-PVTZ
  Basis Set:
  Charge       = 0
  Multiplicity = 1
  Basis Set: CC-PVTZ
  Basis Set:

    Orbital Energies (a.u.)
    -----------------------

    Doubly Occupied:

       1A    -20.554333     2A    -11.278201     3A    -11.231555
       4A    -11.217800     5A     -1.374916     6A     -1.063015
       7A     -0.932941     8A     -0.772823     9A     -0.691231
      10A     -0.666076    11A     -0.622179    12A     -0.573953
      13A     -0.543487    14A     -0.495062    15A     -0.453274
      16A     -0.370000

  @DF-RHF Final Energy:  -191.99880554430814

   => Energetics <=

    Nuclear Repulsion Energy =            119.5711197369512746
    One-Electron Energy =                -497.4581569660289233
    Two-Electron Energy =                 185.8882316847694938
    DFT Exchange-Correlation Energy =       0.0000000000000000
    Empirical Dispersion Energy =           0.0000000000000000
    PCM Polarization Energy =               0.0000000000000000
    EFP Energy =                            0.0000000000000000
    Total Energy =                       -191.9988055443081407
    Molecular point group: c1
  Basis Set: CC-PVTZ
  Basis Set:

  -Total Gradient:
     Atom            X                  Y                   Z
    ------   -----------------  -----------------  -----------------
       1       -0.000519766016    -0.000243378851    -0.000226298557
       2        0.000518540908     0.000289041596     0.000223428318
       3        0.000397469451     0.000181422199     0.000198662045
       4        0.000057715625    -0.000001299817    -0.000012180804
       5       -0.000449166259    -0.000224383266    -0.000213439392
       6       -0.000011364360     0.000010140234     0.000030323080
       7       -0.000028411882     0.000000100702    -0.000046316109
       8        0.000020094254    -0.000001609658     0.000007660475
       9        0.000003187658    -0.000009987821     0.000021740088
      10        0.000011700622    -0.000000045317     0.000016420855

  **** Optimization is complete! (in 3 steps) ****
    Final optimized geometry and variables:
    Molecular point group: c1

    Geometry (in Angstrom), charge = 0, multiplicity = 1:

    H            1.168663005914    -1.055495898661     0.681702016894
    O            1.320839788123    -0.613250916732    -0.134333013628
    C            0.700424018405     0.634788959600    -0.114900285021
    C           -0.786720097427     0.592671307548     0.095940750600
    H            0.908305345453     1.095055242518    -1.073691567767
    H            1.144412406388     1.276924183793     0.643521886092
    C           -1.529178554390    -0.491653050192     0.134158778299
    H           -1.249568216180     1.557686109735     0.220601616007
    H           -1.110228318684    -1.470216218512    -0.004122017524
    H           -2.589090467333    -0.432346821639     0.292292814302

  Mulliken Charges: (a.u.)
   Center  Symbol    Alpha    Beta     Spin     Total
       1     H     0.39097  0.39097  0.00000  0.21805
       2     O     4.19962  4.19962  0.00000 -0.39923
       3     C     2.94927  2.94927  0.00000  0.10145
       4     C     3.08482  3.08482  0.00000 -0.16964
       5     H     0.45374  0.45374  0.00000  0.09252
       6     H     0.46858  0.46858  0.00000  0.06284
       7     C     3.17669  3.17669  0.00000 -0.35338
       8     H     0.42319  0.42319  0.00000  0.15362
       9     H     0.42510  0.42510  0.00000  0.14980
      10     H     0.42802  0.42802  0.00000  0.14396

   Total alpha = 16.00000, Total beta = 16.00000, Total charge = -0.00000
