  ==> Input File <==

--------------------------------------------------------------------------
set {
	reference rhf
	basis 6-31G*
}

set_num_threads( 4 )
memory 2 gb

molecule MOL {
0 1

H	 -3.791248	 1.168128	 -0.984978
O	 -3.452007	 0.283848	 -0.965577
C	 -3.181085	 -0.079926	 0.364119
C	 -1.765924	 0.277073	 0.805136
H	 -3.327791	 -1.152017	 0.410903
H	 -3.905698	 0.375695	 1.036898
C	 -0.677594	 -0.417312	 -0.014550
H	 -1.637766	 1.358238	 0.744969
H	 -1.659588	 0.017670	 1.857098
C	 0.738335	 -0.034840	 0.421385
H	 -0.814977	 -0.178223	 -1.064632
H	 -0.802730	 -1.495410	 0.071702
C	 1.822265	 -0.738362	 -0.399735
H	 0.853533	 1.043532	 0.342250
H	 0.871597	 -0.279636	 1.474438
C	 3.258060	 -0.455774	 0.057203
H	 1.718003	 -0.459167	 -1.447053
H	 1.651028	 -1.811884	 -0.354513
C	 3.709143	 0.994797	 -0.123830
H	 3.930637	 -1.101717	 -0.501982
H	 3.365259	 -0.739518	 1.102287
H	 3.601178	 1.310569	 -1.158127
H	 4.753787	 1.110486	 0.148516
H	 3.135362	 1.678896	 0.492569

	symmetry c1
}
set optking {
	frozen_dihedral = ("
		1 2 3 5
	")
}

ee = optimize('scf')
oeprop('DIPOLE', 'QUADRUPOLE', 'MULLIKEN_CHARGES')
f=open( 'psi4out.xyz', 'w' )
f.write( "24  " )
f.write( str(ee) + "\n" )
f.write( MOL.save_string_xyz() )
f.close()
--------------------------------------------------------------------------

    Molecular point group: c1
  Charge       = 0
  Multiplicity = 1
  Basis Set: 6-31G*
  Basis Set:
  @DF-RHF Final Energy:  -349.24677614881199
    Total Energy =                       -349.2467761488119891
    Molecular point group: c1
  Basis Set: 6-31G*
  Basis Set:
  Basis Set: 6-31G*
  Basis Set:
  @DF-RHF Final Energy:  -349.24682624380296
    Total Energy =                       -349.2468262438032411
  Basis Set: 6-31G*
  Basis Set:
  Basis Set: 6-31G*
  Basis Set:
  @DF-RHF Final Energy:  -349.24684697862546
    Total Energy =                       -349.2468469786251148
  Basis Set: 6-31G*
  Basis Set:
  Basis Set: 6-31G*
  Basis Set:
  @DF-RHF Final Energy:  -349.24684562617932
    Total Energy =                       -349.2468456261794927
  Basis Set: 6-31G*
  Basis Set:
  Basis Set: 6-31G*
  Basis Set:
  @DF-RHF Final Energy:  -349.24684750904697
    Total Energy =                       -349.2468475090471998
  Basis Set: 6-31G*
  Basis Set:
  Charge       = 0
  Multiplicity = 1
  Basis Set: 6-31G*
  Basis Set:

    Orbital Energies (a.u.)
    -----------------------

    Doubly Occupied:

       1A    -20.552900     2A    -11.268063     3A    -11.213982
       4A    -11.212642     5A    -11.210237     6A    -11.209639
       7A    -11.208025     8A    -11.206038     9A     -1.359232
      10A     -1.086431    11A     -1.046677    12A     -0.984365
      13A     -0.913402    14A     -0.847683    15A     -0.796895
      16A     -0.774366    17A     -0.688680    18A     -0.651494
      19A     -0.623966    20A     -0.614941    21A     -0.589270
      22A     -0.582543    23A     -0.557118    24A     -0.539015
      25A     -0.516359    26A     -0.505294    27A     -0.497157
      28A     -0.474521    29A     -0.467880    30A     -0.454655
      31A     -0.453915    32A     -0.445994    33A     -0.418932

  @DF-RHF Final Energy:  -349.24684762673297

   => Energetics <=

    Nuclear Repulsion Energy =            384.3294345153339577
    One-Electron Energy =               -1235.2079403893485505
    Two-Electron Energy =                 501.6316582472812797
    DFT Exchange-Correlation Energy =       0.0000000000000000
    Empirical Dispersion Energy =           0.0000000000000000
    PCM Polarization Energy =               0.0000000000000000
    EFP Energy =                            0.0000000000000000
    Total Energy =                       -349.2468476267332562
    Molecular point group: c1
  Basis Set: 6-31G*
  Basis Set:

  -Total Gradient:
     Atom            X                  Y                   Z
    ------   -----------------  -----------------  -----------------
       1       -0.001750069375    -0.000507578529     0.000145845391
       2        0.001744947803     0.000715656143    -0.000045790650
       3        0.001524542994    -0.000525939567    -0.000438065407
       4       -0.000037144532    -0.000064300718     0.000109374532
       5       -0.001485798962     0.000224857025     0.000327623824
       6       -0.000018873724     0.000090959906    -0.000052106449
       7       -0.000003283163    -0.000015780971    -0.000035492779
       8        0.000005256870     0.000019525878     0.000015998687
       9        0.000024627213     0.000036986840    -0.000012900715
      10        0.000004688729     0.000023949863     0.000002314902
      11        0.000014510319    -0.000012223890    -0.000016987284
      12       -0.000004250834     0.000021610257    -0.000001690669
      13       -0.000008309682    -0.000023689730     0.000006106366
      14        0.000022600926     0.000022156071     0.000005526867
      15       -0.000010685204     0.000001882051    -0.000008841050
      16        0.000002986784    -0.000002553026    -0.000008661070
      17        0.000002384243    -0.000010588081    -0.000001753114
      18       -0.000006587146    -0.000001170017     0.000006765597
      19       -0.000008167037     0.000001891703     0.000006312812
      20       -0.000002717730     0.000007041190    -0.000006232692
      21        0.000005309562    -0.000009231277    -0.000005404883
      22        0.000004120324    -0.000003656178     0.000000801595
      23       -0.000003924442     0.000003063944     0.000004632492
      24       -0.000016163936     0.000007131114     0.000002623702

  **** Optimization is complete! (in 6 steps) ****
    Final optimized geometry and variables:
    Molecular point group: c1

    Geometry (in Angstrom), charge = 0, multiplicity = 1:

    H           -3.757133296168     1.181007565297    -0.994471446519
    O           -3.431936294152     0.293012458884    -0.970409261337
    C           -3.177392890093    -0.081088472779     0.362124056413
    C           -1.764651455623     0.273021759002     0.809391706224
    H           -3.338045075514    -1.151605248708     0.416717634008
    H           -3.903386105211     0.379768788084     1.028953993547
    C           -0.677184235534    -0.421327516109    -0.011048989993
    H           -1.637043354972     1.353033631103     0.748159794089
    H           -1.660358169591     0.009038684109     1.860797720166
    C            0.738834268785    -0.037579158749     0.423415119431
    H           -0.817053617262    -0.180046215414    -1.060066220544
    H           -0.800877863862    -1.499775191430     0.075516982661
    C            1.822604408290    -0.740016740957    -0.398831049100
    H            0.852571005325     1.040803775660     0.343672527526
    H            0.873723843511    -0.282030749603     1.476440544225
    C            3.258776156323    -0.453474767351     0.054413691696
    H            1.715360059341    -0.462760116969    -1.446305229282
    H            1.653962749822    -1.813937848060    -0.351606427478
    C            3.705159573733     0.998432270594    -0.127533457671
    H            3.931853087813    -1.097388095895    -0.506513161767
    H            3.369421876085    -0.736973601595     1.099240440888
    H            3.594283077962     1.313776369000    -1.161632139257
    H            4.749983977173     1.117359985560     0.142887305148
    H            3.130248126247     1.680751240699     0.489734026735

  Mulliken Charges: (a.u.)
   Center  Symbol    Alpha    Beta     Spin     Total
       1     H     0.28137  0.28137  0.00000  0.43726
       2     O     4.36962  4.36962  0.00000 -0.73925
       3     C     3.00129  3.00129  0.00000 -0.00257
       4     C     3.16062  3.16062  0.00000 -0.32124
       5     H     0.41761  0.41761  0.00000  0.16478
       6     H     0.42871  0.42871  0.00000  0.14258
       7     C     3.15338  3.15338  0.00000 -0.30676
       8     H     0.42667  0.42667  0.00000  0.14666
       9     H     0.42484  0.42484  0.00000  0.15033
      10     C     3.15359  3.15359  0.00000 -0.30718
      11     H     0.40941  0.40941  0.00000  0.18118
      12     H     0.42491  0.42491  0.00000  0.15018
      13     C     3.15217  3.15217  0.00000 -0.30434
      14     H     0.42265  0.42265  0.00000  0.15470
      15     H     0.42607  0.42607  0.00000  0.14786
      16     C     3.15219  3.15219  0.00000 -0.30438
      17     H     0.42352  0.42352  0.00000  0.15296
      18     H     0.42244  0.42244  0.00000  0.15512
      19     C     3.24096  3.24096  0.00000 -0.48192
      20     H     0.42136  0.42136  0.00000  0.15728
      21     H     0.42401  0.42401  0.00000  0.15197
      22     H     0.42226  0.42226  0.00000  0.15549
      23     H     0.41987  0.41987  0.00000  0.16026
      24     H     0.42050  0.42050  0.00000  0.15901

   Total alpha = 33.00000, Total beta = 33.00000, Total charge = -0.00000
