                              Psi4 1.0.54 Driver

  ==> Input File <==

--------------------------------------------------------------------------
set {
	reference rhf
	basis cc-pvtz
}

set_num_threads( 4 )
memory 2 gb

molecule MOL {
0 1

H	 -3.642953	 0.223825	 0.000000
C	 -2.571844	 0.155001	 0.000000
C	 -1.957580	 -1.086132	 0.000000
C	 -1.807160	 1.303787	 0.000000
H	 -2.551493	 -1.979629	 0.000000
C	 -0.582719	 -1.174294	 0.000000
H	 -2.279934	 2.266806	 0.000000
C	 -0.427220	 1.213406	 0.000000
H	 -0.094904	 -2.127556	 0.000000
C	 0.196908	 -0.024061	 0.000000
H	 0.151409	 2.115254	 0.000000
C	 1.690041	 -0.173233	 0.000000
C	 2.486486	 0.411033	 1.144101
O	 2.240160	 -0.743209	 -0.887614
H	 2.332785	 1.481468	 1.211364
H	 3.531590	 0.207622	 0.973478
H	 2.182026	 -0.027548	 2.086932

	symmetry c1
}
set optking {
	frozen_dihedral = ("
		13 12 10 8
	")
}

ee,wfn = optimize('scf', return_wfn=True)
oeprop( wfn, 'DIPOLE', 'QUADRUPOLE', 'MULLIKEN_CHARGES')
f=open( 'psi4out.xyz', 'w' )
f.write( "17  " )
f.write( str(ee) + "\n" )
f.write( MOL.save_string_xyz() )
f.close()
--------------------------------------------------------------------------

    Molecular point group: c1
  Charge       = 0
  Multiplicity = 1
  Basis Set: CC-PVTZ
  Basis Set:
  @DF-RHF Final Energy:  -382.59917684074486
    Total Energy =                       -382.5991768407448035
    Molecular point group: c1
  Basis Set: CC-PVTZ
  Basis Set:
  Basis Set: CC-PVTZ
  Basis Set:
  @DF-RHF Final Energy:  -382.59726170584423
    Total Energy =                       -382.5972617058440619
  Basis Set: CC-PVTZ
  Basis Set:
  Basis Set: CC-PVTZ
  Basis Set:
  @DF-RHF Final Energy:  -382.59995751814733
    Total Energy =                       -382.5999575181474484
  Basis Set: CC-PVTZ
  Basis Set:
  Basis Set: CC-PVTZ
  Basis Set:
  @DF-RHF Final Energy:  -382.60010203072864
    Total Energy =                       -382.6001020307285216
  Basis Set: CC-PVTZ
  Basis Set:
  Basis Set: CC-PVTZ
  Basis Set:
  @DF-RHF Final Energy:  -382.60010743213729
    Total Energy =                       -382.6001074321375199
  Basis Set: CC-PVTZ
  Basis Set:
  Basis Set: CC-PVTZ
  Basis Set:
  @DF-RHF Final Energy:  -382.60012922515006
    Total Energy =                       -382.6001292251503401
  Basis Set: CC-PVTZ
  Basis Set:
  Basis Set: CC-PVTZ
  Basis Set:
  @DF-RHF Final Energy:  -382.60013341644526
    Total Energy =                       -382.6001334164456011
  Basis Set: CC-PVTZ
  Basis Set:
  Charge       = 0
  Multiplicity = 1
  Basis Set: CC-PVTZ
  Basis Set:

    Orbital Energies (a.u.)
    -----------------------

    Doubly Occupied:

       1A    -20.545441     2A    -11.329598     3A    -11.245623
       4A    -11.243916     5A    -11.240490     6A    -11.240180
       7A    -11.238994     8A    -11.237720     9A    -11.230721
      10A     -1.405761    11A     -1.171175    12A     -1.053713
      13A     -1.030139    14A     -1.000900    15A     -0.863143
      16A     -0.840926    17A     -0.764873    18A     -0.708307
      19A     -0.664186    20A     -0.650178    21A     -0.627887
      22A     -0.623291    23A     -0.603056    24A     -0.592383
      25A     -0.562607    26A     -0.529105    27A     -0.517442
      28A     -0.507598    29A     -0.496666    30A     -0.414124
      31A     -0.349100    32A     -0.346910

  @DF-RHF Final Energy:  -382.60013435224960

   => Energetics <=

    Nuclear Repulsion Energy =            403.9268599130984967
    One-Electron Energy =               -1319.3016833728029269
    Two-Electron Energy =                 532.7746891074547193
    DFT Exchange-Correlation Energy =       0.0000000000000000
    Empirical Dispersion Energy =           0.0000000000000000
    PCM Polarization Energy =               0.0000000000000000
    EFP Energy =                            0.0000000000000000
    Total Energy =                       -382.6001343522497109
    Molecular point group: c1
  Basis Set: CC-PVTZ
  Basis Set:

  -Total Gradient:
     Atom            X                  Y                   Z
    ------   -----------------  -----------------  -----------------
       1       -0.000001385529    -0.000001502617     0.000002868103
       2       -0.000018198105    -0.000060456603     0.000019959816
       3       -0.000057306219     0.000021482627     0.000014483901
       4        0.000060835282     0.000020957193    -0.000045743933
       5        0.000002571714    -0.000003846371    -0.000003986506
       6        0.000062020266     0.000030176474     0.000010525842
       7        0.000004058249     0.000001714636     0.000008605092
       8       -0.000164757480    -0.000299129097    -0.003766930283
       9       -0.000002588094    -0.000010227117     0.000009027703
      10        0.000085486562    -0.000824733173     0.006460721552
      11       -0.000000692656     0.000009677842    -0.000004734290
      12        0.000309774885     0.003877039554    -0.004645121983
      13       -0.000269873924    -0.002740293778     0.001939844926
      14       -0.000026412911    -0.000000894133    -0.000020752601
      15       -0.000012589969     0.000019265138    -0.000009852295
      16        0.000031005902    -0.000015475884     0.000001113544
      17       -0.000001947982    -0.000023754691     0.000029971410

  **** Optimization is complete! (in 8 steps) ****
    Final optimized geometry and variables:
    Molecular point group: c1

    Geometry (in Angstrom), charge = 0, multiplicity = 1:

    H           -3.633081679113     0.287741550395    -0.061564506403
    C           -2.563321119359     0.204071837242    -0.046579847065
    C           -1.967025281505    -1.041142512961     0.036248835963
    C           -1.779942938382     1.339321488638    -0.118139289568
    H           -2.572998812446    -1.925420018242     0.083743580774
    C           -0.591066549521    -1.150353248972     0.041331416483
    H           -2.238311012052     2.306173866094    -0.198448812104
    C           -0.402150778593     1.231862529699    -0.087074067043
    H           -0.124556396833    -2.115615191553     0.073129167474
    C            0.198720539296    -0.012317411359     0.000442178629
    H            0.198097576870     2.120233528627    -0.142450581342
    C            1.694308706310    -0.165342317396    -0.042137462386
    C            2.496011470277     0.529604883782     1.031638567876
    O            2.207068660935    -0.875266097853    -0.843533478782
    H            2.261520461402     1.585690120388     1.082770260679
    H            3.550451569851     0.393173991657     0.846146698588
    H            2.233143801715     0.097848196120     1.991401312001

  Mulliken Charges: (a.u.)
   Center  Symbol    Alpha    Beta     Spin     Total
       1     H     0.42119  0.42119  0.00000  0.15762
       2     C     3.08115  3.08115  0.00000 -0.16229
       3     C     3.06547  3.06547  0.00000 -0.13094
       4     C     3.06742  3.06742  0.00000 -0.13484
       5     H     0.42120  0.42120  0.00000  0.15760
       6     C     3.08625  3.08625  0.00000 -0.17250
       7     H     0.42176  0.42176  0.00000  0.15647
       8     C     3.09566  3.09566  0.00000 -0.19131
       9     H     0.41684  0.41684  0.00000  0.16632
      10     C     2.97269  2.97269  0.00000  0.05462
      11     H     0.42374  0.42374  0.00000  0.15252
      12     C     2.87434  2.87434  0.00000  0.25132
      13     C     3.15053  3.15053  0.00000 -0.30106
      14     O     4.16871  4.16871  0.00000 -0.33741
      15     H     0.45086  0.45086  0.00000  0.09828
      16     H     0.43631  0.43631  0.00000  0.12737
      17     H     0.44590  0.44590  0.00000  0.10821

   Total alpha = 32.00000, Total beta = 32.00000, Total charge =  0.00000

*** Psi4 exiting successfully. Buy a developer a beer!
