  ==> Input File <==

--------------------------------------------------------------------------
set {
	reference rhf
	basis 6-31G*
}

set_num_threads( 4 )
memory 2 gb

molecule MOL {
0 1

H	 1.428054	 0.921892	 0.798089
C	 0.850167	 0.441173	 0.000644
C	 -0.623425	 0.760064	 0.000248
O	 1.390478	 -0.268512	 -0.784312
C	 -1.518387	 -0.473136	 -0.000101
H	 -0.818289	 1.390622	 -0.866171
H	 -0.818694	 1.390413	 0.866696
H	 -1.333417	 -1.085530	 -0.874338
H	 -2.563510	 -0.183466	 -0.000351
H	 -1.333864	 -1.085676	 0.874123

	symmetry c1
}
set optking {
	frozen_dihedral = ("
		4 2 3 6
	")
}

ee = optimize('scf')
oeprop('DIPOLE', 'QUADRUPOLE', 'MULLIKEN_CHARGES')
f=open( 'psi4out.xyz', 'w' )
f.write( "10  " )
f.write( str(ee) + "\n" )
f.write( MOL.save_string_xyz() )
f.close()
--------------------------------------------------------------------------

    Molecular point group: c1
  Charge       = 0
  Multiplicity = 1
  Basis Set: 6-31G*
  Basis Set:
  @DF-RHF Final Energy:  -191.94841645884617
    Total Energy =                       -191.9484164588461965
    Molecular point group: c1
  Basis Set: 6-31G*
  Basis Set:
  Basis Set: 6-31G*
  Basis Set:
  @DF-RHF Final Energy:  -191.94896741344488
    Total Energy =                       -191.9489674134448194
  Basis Set: 6-31G*
  Basis Set:
  Basis Set: 6-31G*
  Basis Set:
  @DF-RHF Final Energy:  -191.94722449470032
    Total Energy =                       -191.9472244947003219
  Basis Set: 6-31G*
  Basis Set:
  Basis Set: 6-31G*
  Basis Set:
  @DF-RHF Final Energy:  -191.94910784577604
    Total Energy =                       -191.9491078457760409
  Basis Set: 6-31G*
  Basis Set:
  Basis Set: 6-31G*
  Basis Set:
  @DF-RHF Final Energy:  -191.94911631397710
    Total Energy =                       -191.9491163139771572
  Basis Set: 6-31G*
  Basis Set:
  Charge       = 0
  Multiplicity = 1
  Basis Set: 6-31G*
  Basis Set:

    Orbital Energies (a.u.)
    -----------------------

    Doubly Occupied:

       1A    -20.564068     2A    -11.328978     3A    -11.239015
       4A    -11.224626     5A     -1.404592     6A     -1.059403
       7A     -0.906144     8A     -0.780841     9A     -0.683305
      10A     -0.638330    11A     -0.614233    12A     -0.560673
      13A     -0.535205    14A     -0.512454    15A     -0.491092
      16A     -0.412578

  @DF-RHF Final Energy:  -191.94911658858891

   => Energetics <=

    Nuclear Repulsion Energy =            118.7391308360313076
    One-Electron Energy =                -495.4654197978954926
    Two-Electron Energy =                 184.7771723732752207
    DFT Exchange-Correlation Energy =       0.0000000000000000
    Empirical Dispersion Energy =           0.0000000000000000
    PCM Polarization Energy =               0.0000000000000000
    EFP Energy =                            0.0000000000000000
    Total Energy =                       -191.9491165885889359
    Molecular point group: c1
  Basis Set: 6-31G*
  Basis Set:

  -Total Gradient:
     Atom            X                  Y                   Z
    ------   -----------------  -----------------  -----------------
       1       -0.000004934319     0.000001502875    -0.000006424889
       2       -0.000407861324    -0.001884723973     0.001159573235
       3        0.000421305376     0.001900256565     0.000518467366
       4        0.000258211244     0.001132057245    -0.000929836650
       5        0.000029707005     0.000027096676    -0.000004025136
       6       -0.000279298793    -0.001176053253    -0.000738073628
       7       -0.000012009710     0.000005612947     0.000002103925
       8        0.000000561725    -0.000008085608     0.000006029705
       9       -0.000004203738     0.000002978657    -0.000002941087
      10       -0.000001477467    -0.000000642130    -0.000004872841

  **** Optimization is complete! (in 6 steps) ****
    Final optimized geometry and variables:
    Molecular point group: c1

    Geometry (in Angstrom), charge = 0, multiplicity = 1:

    H            1.473148882640     0.845720054632     0.942941787412
    C            0.840946895152     0.346328198144     0.201288067823
    C           -0.634468881160     0.685092848078     0.227316953092
    O            1.325476929111    -0.399465705782    -0.587324788290
    C           -1.517030406638    -0.565839664610     0.191921534626
    H           -0.833471357498     1.289035842834    -0.655022781818
    H           -0.855525266076     1.296093677473     1.096201301217
    H           -1.281091659440    -1.169702852388    -0.674766500865
    H           -2.564571017400    -0.289627194548     0.145671132583
    H           -1.370247501883    -1.175306641296     1.077742272224

  Mulliken Charges: (a.u.)
   Center  Symbol    Alpha    Beta     Spin     Total
       1     H     0.42576  0.42576  0.00000  0.14848
       2     C     2.84468  2.84468  0.00000  0.31064
       3     C     3.20217  3.20217  0.00000 -0.40434
       4     O     4.23605  4.23605  0.00000 -0.47209
       5     C     3.24308  3.24308  0.00000 -0.48616
       6     H     0.40020  0.40020  0.00000  0.19961
       7     H     0.41487  0.41487  0.00000  0.17026
       8     H     0.40188  0.40188  0.00000  0.19624
       9     H     0.41488  0.41488  0.00000  0.17024
      10     H     0.41644  0.41644  0.00000  0.16712

   Total alpha = 16.00000, Total beta = 16.00000, Total charge =  0.00000
