                              Psi4 1.0.54 Driver

  ==> Input File <==

--------------------------------------------------------------------------
set {
	reference rhf
	basis cc-pvtz
}

set_num_threads( 4 )
memory 2 gb

molecule MOL {
0 1

H	 -3.186517	 -0.536093	 -1.326014
O	 -2.504682	 -0.920020	 -0.795526
C	 -1.446592	 -0.114620	 -0.822251
C	 -0.310616	 -0.658853	 0.000791
O	 -1.441057	 0.896466	 -1.435150
C	 0.926581	 0.227233	 0.000178
H	 -0.086554	 -1.649945	 -0.380339
H	 -0.688633	 -0.808365	 1.007005
C	 2.220156	 -0.582071	 -0.000088
H	 0.899945	 0.878221	 -0.866390
H	 0.900542	 0.878581	 0.866486
C	 3.466689	 0.296012	 -0.000457
H	 2.239073	 -1.234095	 -0.869382
H	 2.239505	 -1.233985	 0.869270
H	 3.493549	 0.935857	 -0.875887
H	 4.368821	 -0.304526	 -0.001199
H	 3.494559	 0.935166	 0.875458

	symmetry c1
}
set optking {
	frozen_dihedral = ("
		7 4 6 10
	")
}

ee,wfn = optimize('scf', return_wfn=True)
oeprop( wfn, 'DIPOLE', 'QUADRUPOLE', 'MULLIKEN_CHARGES')
f=open( 'psi4out.xyz', 'w' )
f.write( "17  " )
f.write( str(ee) + "\n" )
f.write( MOL.save_string_xyz() )
f.close()
--------------------------------------------------------------------------

    Molecular point group: c1
  Charge       = 0
  Multiplicity = 1
  Basis Set: CC-PVTZ
  Basis Set:
  @DF-RHF Final Energy:  -345.04558869094387
    Total Energy =                       -345.0455886909442142
    Molecular point group: c1
  Basis Set: CC-PVTZ
  Basis Set:
  Basis Set: CC-PVTZ
  Basis Set:
  @DF-RHF Final Energy:  -345.04583460254662
    Total Energy =                       -345.0458346025462788
  Basis Set: CC-PVTZ
  Basis Set:
  Basis Set: CC-PVTZ
  Basis Set:
  @DF-RHF Final Energy:  -345.04560159162929
    Total Energy =                       -345.0456015916294064
  Basis Set: CC-PVTZ
  Basis Set:
  Basis Set: CC-PVTZ
  Basis Set:
  @DF-RHF Final Energy:  -345.04591367296018
    Total Energy =                       -345.0459136729603529
  Basis Set: CC-PVTZ
  Basis Set:
  Basis Set: CC-PVTZ
  Basis Set:
  @DF-RHF Final Energy:  -345.04591953936608
    Total Energy =                       -345.0459195393659684
  Basis Set: CC-PVTZ
  Basis Set:
  Charge       = 0
  Multiplicity = 1
  Basis Set: CC-PVTZ
  Basis Set:

    Orbital Energies (a.u.)
    -----------------------

    Doubly Occupied:

       1A    -20.604386     2A    -20.541396     3A    -11.374600
       4A    -11.239228     5A    -11.220979     6A    -11.219861
       7A    -11.210336     8A     -1.478289     9A     -1.369733
      10A     -1.091147    11A     -1.019581    12A     -0.915279
      13A     -0.825616    14A     -0.791016    15A     -0.704851
      16A     -0.692797    17A     -0.665098    18A     -0.631014
      19A     -0.593033    20A     -0.585552    21A     -0.577289
      22A     -0.534368    23A     -0.511526    24A     -0.485248
      25A     -0.482931    26A     -0.476225    27A     -0.469285
      28A     -0.448242

  @DF-RHF Final Energy:  -345.04591963762954

   => Energetics <=

    Nuclear Repulsion Energy =            304.8367515713321723
    One-Electron Energy =               -1074.2475293704301293
    Two-Electron Energy =                 424.3648581614681916
    DFT Exchange-Correlation Energy =       0.0000000000000000
    Empirical Dispersion Energy =           0.0000000000000000
    PCM Polarization Energy =               0.0000000000000000
    EFP Energy =                            0.0000000000000000
    Total Energy =                       -345.0459196376298223
    Molecular point group: c1
  Basis Set: CC-PVTZ
  Basis Set:

  -Total Gradient:
     Atom            X                  Y                   Z
    ------   -----------------  -----------------  -----------------
       1       -0.000003338418    -0.000004601490     0.000001538811
       2       -0.000018838070    -0.000009423994    -0.000004708273
       3        0.000013044893     0.000025017472     0.000002294765
       4       -0.001508794600     0.001937054924    -0.003574497860
       5        0.000008176934    -0.000020432463     0.000008762900
       6        0.002317889557    -0.003118451963    -0.001543829789
       7        0.000869088836    -0.001102969974     0.003175799635
       8        0.000000437549    -0.000000149428    -0.000003474955
       9        0.000008975515    -0.000000190840     0.000030983786
      10       -0.001692407487     0.002297225680     0.001921329909
      11        0.000002392327    -0.000006915034     0.000001330037
      12        0.000006974814    -0.000005722184    -0.000021220819
      13       -0.000005916611     0.000003856686     0.000007363104
      14       -0.000003902875     0.000005044412     0.000001911154
      15        0.000001683609     0.000004704611     0.000002618301
      16        0.000009072729     0.000005481271    -0.000004918072
      17       -0.000004538704    -0.000009527688    -0.000001282638

  **** Optimization is complete! (in 6 steps) ****
    Final optimized geometry and variables:
    Molecular point group: c1

    Geometry (in Angstrom), charge = 0, multiplicity = 1:

    H           -3.315569129755    -0.487055650585    -0.734643264416
    O           -2.591171237457    -0.860826279473    -0.255895548322
    C           -1.559282838718    -0.025407343011    -0.334937465573
    C           -0.362730883208    -0.555969341259     0.407382993674
    O           -1.623214832742     0.996625741064    -0.925869872027
    C            0.862952926198     0.358997411172     0.390794586340
    H           -0.134552805692    -1.536406579528     0.002658534887
    H           -0.692073814712    -0.752743089945     1.422150541939
    C            2.180462842641    -0.409679447117     0.386482312044
    H            0.803195792194     1.025028342579    -0.459800022498
    H            0.830500325298     1.005762449495     1.262122847616
    C            3.399106149389     0.505118594234     0.427977424091
    H            2.227235485833    -1.033161724089    -0.502203921645
    H            2.209152227130    -1.087208860730     1.236044395723
    H            3.412170417452     1.175803564574    -0.424314339555
    H            4.319254600986    -0.067286606612     0.414016148747
    H            3.401135483337     1.113486485294     1.326090656181

  Mulliken Charges: (a.u.)
   Center  Symbol    Alpha    Beta     Spin     Total
       1     H     0.38263  0.38263  0.00000  0.23475
       2     O     4.15978  4.15978  0.00000 -0.31956
       3     C     2.80107  2.80107  0.00000  0.39787
       4     C     3.11514  3.11514  0.00000 -0.23028
       5     O     4.19027  4.19027  0.00000 -0.38054
       6     C     3.08983  3.08983  0.00000 -0.17965
       7     H     0.43780  0.43780  0.00000  0.12440
       8     H     0.43515  0.43515  0.00000  0.12970
       9     C     3.08635  3.08635  0.00000 -0.17270
      10     H     0.43661  0.43661  0.00000  0.12678
      11     H     0.45267  0.45267  0.00000  0.09465
      12     C     3.14944  3.14944  0.00000 -0.29888
      13     H     0.45387  0.45387  0.00000  0.09225
      14     H     0.45414  0.45414  0.00000  0.09172
      15     H     0.45270  0.45270  0.00000  0.09459
      16     H     0.44807  0.44807  0.00000  0.10386
      17     H     0.45448  0.45448  0.00000  0.09104

   Total alpha = 28.00000, Total beta = 28.00000, Total charge = -0.00000

*** Psi4 exiting successfully. Buy a developer a beer!
