  ==> Input File <==

--------------------------------------------------------------------------
set {
	reference rhf
	basis 6-31G*
}

set_num_threads( 1 )
memory 2 gb

molecule MOL {
0 1

H	 2.432415	 1.644959	 -4.801521
C	 2.802426	 1.647058	 -3.780929
C	 1.653200	 1.727024	 -2.776907
H	 3.382286	 0.740125	 -3.637484
H	 3.477390	 2.492100	 -3.675444
C	 2.140947	 1.738907	 -1.326467
H	 0.986540	 0.884118	 -2.927489
H	 1.070906	 2.627092	 -2.967967
C	 1.013462	 1.836686	 -0.298613
H	 2.719928	 0.843436	 -1.130108
H	 2.808499	 2.585578	 -1.183070
C	 0.169600	 0.576866	 -0.172154
H	 1.431546	 2.029913	 0.688119
H	 0.364076	 2.682485	 -0.513317
C	 -1.181045	 0.701995	 0.511084
O	 0.556262	 -0.478409	 -0.576247
C	 -2.285934	 -0.139295	 -0.145128
H	 -1.449051	 1.751551	 0.493206
H	 -1.071135	 0.403303	 1.551943
C	 -3.651768	 0.085446	 0.506485
H	 -2.346596	 0.110469	 -1.202272
H	 -2.034737	 -1.195320	 -0.088721
C	 -4.759797	 -0.746382	 -0.137905
H	 -3.908762	 1.140117	 0.445781
H	 -3.588286	 -0.154158	 1.565709
H	 -4.868882	 -0.505166	 -1.191300
H	 -4.548009	 -1.809175	 -0.062213
H	 -5.715422	 -0.564821	 0.343442

	symmetry c1
}
set optking {
	frozen_dihedral = ("
		10 6 3 2,
		12 15 17 21
	")
}

ee = energy('scf')
oeprop('DIPOLE', 'QUADRUPOLE', 'MULLIKEN_CHARGES')
f=open( 'psi4out.xyz', 'w' )
f.write( "28  " )
f.write( str(ee) + "\n" )
f.write( MOL.save_string_xyz() )
f.close()
--------------------------------------------------------------------------

    Molecular point group: c1

    Geometry (in Angstrom), charge = 0, multiplicity = 1:

       Center              X                  Y                   Z               Mass
    ------------   -----------------  -----------------  -----------------  -----------------
           H          2.792857689472     0.960282209097    -3.963594835456     1.007825032070
           C          3.162868689472     0.962381209097    -2.943002835456    12.000000000000
           C          2.013642689472     1.042347209097    -1.938980835456    12.000000000000
           H          3.742728689472     0.055448209097    -2.799557835456     1.007825032070
           H          3.837832689472     1.807423209097    -2.837517835456     1.007825032070
           C          2.501389689472     1.054230209097    -0.488540835456    12.000000000000
           H          1.346982689472     0.199441209097    -2.089562835456     1.007825032070
           H          1.431348689472     1.942415209097    -2.130040835456     1.007825032070
           C          1.373904689472     1.152009209097     0.539313164544    12.000000000000
           H          3.080370689472     0.158759209097    -0.292181835456     1.007825032070
           H          3.168941689472     1.900901209097    -0.345143835456     1.007825032070
           C          0.530042689472    -0.107810790903     0.665772164544    12.000000000000
           H          1.791988689472     1.345236209097     1.526045164544     1.007825032070
           H          0.724518689472     1.997808209097     0.324609164544     1.007825032070
           C         -0.820602310528     0.017318209097     1.349010164544    12.000000000000
           O          0.916704689472    -1.163085790903     0.261679164544    15.994914619560
           C         -1.925491310528    -0.823971790903     0.692798164544    12.000000000000
           H         -1.088608310528     1.066874209097     1.331132164544     1.007825032070
           H         -0.710692310528    -0.281373790903     2.389869164544     1.007825032070
           C         -3.291325310528    -0.599230790903     1.344411164544    12.000000000000
           H         -1.986153310528    -0.574207790903    -0.364345835456     1.007825032070
           H         -1.674294310528    -1.879996790903     0.749205164544     1.007825032070
           C         -4.399354310528    -1.431058790903     0.700021164544    12.000000000000
           H         -3.548319310528     0.455440209097     1.283707164544     1.007825032070
           H         -3.227843310528    -0.838834790903     2.403635164544     1.007825032070
           H         -4.508439310528    -1.189842790903    -0.353373835456     1.007825032070
           H         -4.187566310528    -2.493851790903     0.775713164544     1.007825032070
           H         -5.354979310528    -1.249497790903     1.181368164544     1.007825032070

  Charge       = 0
  Multiplicity = 1
  Basis Set: 6-31G*
  Basis Set:

    Orbital Energies (a.u.)
    -----------------------

    Doubly Occupied:

       1A    -20.547756     2A    -11.323017     3A    -11.230854
       4A    -11.229827     5A    -11.222179     6A    -11.220419
       7A    -11.216843     8A    -11.212859     9A    -11.211512
      10A    -11.206135    11A     -1.393727    12A     -1.088516
      13A     -1.077622    14A     -1.021494    15A     -0.990878
      16A     -0.910067    17A     -0.866981    18A     -0.805902
      19A     -0.793525    20A     -0.723469    21A     -0.667427
      22A     -0.656085    23A     -0.623361    24A     -0.618654
      25A     -0.609688    26A     -0.585181    27A     -0.577227
      28A     -0.575390    29A     -0.534741    30A     -0.532256
      31A     -0.518603    32A     -0.508231    33A     -0.496648
      34A     -0.479116    35A     -0.475477    36A     -0.470828
      37A     -0.467480    38A     -0.464538    39A     -0.457078
      40A     -0.393073

  @DF-RHF Final Energy:  -426.16892132673036

   => Energetics <=

    Nuclear Repulsion Energy =            532.1065262343710174
    One-Electron Energy =               -1632.5419278009694608
    Two-Electron Energy =                 674.2664802398674055
    DFT Exchange-Correlation Energy =       0.0000000000000000
    Empirical Dispersion Energy =           0.0000000000000000
    PCM Polarization Energy =               0.0000000000000000
    EFP Energy =                            0.0000000000000000
    Total Energy =                       -426.1689213267311516

  Mulliken Charges: (a.u.)
   Center  Symbol    Alpha    Beta     Spin     Total
       1     H     0.41934  0.41934  0.00000  0.16133
       2     C     3.24012  3.24012  0.00000 -0.48025
       3     C     3.15637  3.15637  0.00000 -0.31274
       4     H     0.41823  0.41823  0.00000  0.16354
       5     H     0.42350  0.42350  0.00000  0.15300
       6     C     3.14964  3.14964  0.00000 -0.29928
       7     H     0.41068  0.41068  0.00000  0.17864
       8     H     0.42762  0.42762  0.00000  0.14475
       9     C     3.21074  3.21074  0.00000 -0.42148
      10     H     0.40648  0.40648  0.00000  0.18704
      11     H     0.42170  0.42170  0.00000  0.15659
      12     C     2.73427  2.73427  0.00000  0.53145
      13     H     0.40375  0.40375  0.00000  0.19250
      14     H     0.41229  0.41229  0.00000  0.17541
      15     C     3.20178  3.20178  0.00000 -0.40355
      16     O     4.26906  4.26906  0.00000 -0.53811
      17     C     3.15151  3.15151  0.00000 -0.30302
      18     H     0.41613  0.41613  0.00000  0.16774
      19     H     0.40320  0.40320  0.00000  0.19360
      20     C     3.15305  3.15305  0.00000 -0.30611
      21     H     0.41957  0.41957  0.00000  0.16086
      22     H     0.40641  0.40641  0.00000  0.18717
      23     C     3.23969  3.23969  0.00000 -0.47937
      24     H     0.42366  0.42366  0.00000  0.15267
      25     H     0.42251  0.42251  0.00000  0.15499
      26     H     0.42066  0.42066  0.00000  0.15868
      27     H     0.41942  0.41942  0.00000  0.16116
      28     H     0.41861  0.41861  0.00000  0.16279

   Total alpha = 40.00000, Total beta = 40.00000, Total charge = -0.00000
