                              Psi4 1.0.54 Driver

  ==> Input File <==

--------------------------------------------------------------------------
set {
	reference rhf
	basis cc-pvtz
}

set_num_threads( 4 )
memory 2 gb

molecule MOL {
0 1

H	 -4.024094	 -0.454727	 0.000004
C	 -2.962215	 -0.297920	 0.000004
C	 -2.454736	 0.988978	 0.000025
C	 -2.105837	 -1.382632	 -0.000016
H	 -3.120052	 1.830438	 0.000041
C	 -1.090106	 1.189676	 0.000026
H	 -2.500390	 -2.380229	 -0.000033
C	 -0.739175	 -1.183302	 -0.000016
H	 -0.680214	 2.179144	 0.000042
C	 -0.227341	 0.104540	 0.000006
H	 -0.073209	 -2.021168	 -0.000032
C	 1.238974	 0.374429	 0.000004
O	 1.607310	 1.235589	 0.929907
O	 2.002122	 -0.128944	 -0.754582
C	 2.982965	 1.553901	 1.006155
H	 3.566423	 0.669256	 1.211959
H	 3.078495	 2.260689	 1.814186
H	 3.322343	 1.995003	 0.081142

	symmetry c1
}
set optking {
	frozen_dihedral = ("
		13 12 10 6
	")
}

ee,wfn = optimize('scf', return_wfn=True)
oeprop( wfn, 'DIPOLE', 'QUADRUPOLE', 'MULLIKEN_CHARGES')
f=open( 'psi4out.xyz', 'w' )
f.write( "18  " )
f.write( str(ee) + "\n" )
f.write( MOL.save_string_xyz() )
f.close()
--------------------------------------------------------------------------

    Molecular point group: c1
  Charge       = 0
  Multiplicity = 1
  Basis Set: CC-PVTZ
  Basis Set:
  @DF-RHF Final Energy:  -457.50347559581297
    Total Energy =                       -457.5034755958130290
    Molecular point group: c1
  Basis Set: CC-PVTZ
  Basis Set:
  Basis Set: CC-PVTZ
  Basis Set:
  @DF-RHF Final Energy:  -457.50399214821408
    Total Energy =                       -457.5039921482142518
  Basis Set: CC-PVTZ
  Basis Set:
  Basis Set: CC-PVTZ
  Basis Set:
  @DF-RHF Final Energy:  -457.50466062568768
    Total Energy =                       -457.5046606256880750
  Basis Set: CC-PVTZ
  Basis Set:
  Basis Set: CC-PVTZ
  Basis Set:
  @DF-RHF Final Energy:  -457.50474857862463
    Total Energy =                       -457.5047485786247989
  Basis Set: CC-PVTZ
  Basis Set:
  Basis Set: CC-PVTZ
  Basis Set:
  @DF-RHF Final Energy:  -457.50475059623466
    Total Energy =                       -457.5047505962347714
  Basis Set: CC-PVTZ
  Basis Set:
  Charge       = 0
  Multiplicity = 1
  Basis Set: CC-PVTZ
  Basis Set:

    Orbital Energies (a.u.)
    -----------------------

    Doubly Occupied:

       1A    -20.602638     2A    -20.538006     3A    -11.373014
       4A    -11.281793     5A    -11.247648     6A    -11.242914
       7A    -11.240989     8A    -11.240668     9A    -11.237212
      10A    -11.236549    11A     -1.478294    12A     -1.370868
      13A     -1.171515    14A     -1.052352    15A     -1.029571
      16A     -0.981611    17A     -0.862987    18A     -0.840870
      19A     -0.782695    20A     -0.743025    21A     -0.688269
      22A     -0.682916    23A     -0.680170    24A     -0.633700
      25A     -0.632806    26A     -0.600539    27A     -0.592343
      28A     -0.557284    29A     -0.536458    30A     -0.520497
      31A     -0.511258    32A     -0.504667    33A     -0.464010
      34A     -0.450245    35A     -0.348701    36A     -0.346960

  @DF-RHF Final Energy:  -457.50475125615219

   => Energetics <=

    Nuclear Repulsion Energy =            493.3259648044295318
    One-Electron Energy =               -1601.0493503446809882
    Two-Electron Energy =                 650.2186342840991529
    DFT Exchange-Correlation Energy =       0.0000000000000000
    Empirical Dispersion Energy =           0.0000000000000000
    PCM Polarization Energy =               0.0000000000000000
    EFP Energy =                            0.0000000000000000
    Total Energy =                       -457.5047512561523035
    Molecular point group: c1
  Basis Set: CC-PVTZ
  Basis Set:

  -Total Gradient:
     Atom            X                  Y                   Z
    ------   -----------------  -----------------  -----------------
       1       -0.000003796900     0.000026308209    -0.000004540555
       2        0.000004201823    -0.000098982946     0.000028130767
       3        0.000089606204     0.000060521139    -0.000016767606
       4       -0.000105894482     0.000058991012    -0.000017338314
       5       -0.000021166999    -0.000002284858    -0.000002135692
       6       -0.000250982497    -0.000444512539    -0.005075797840
       7        0.000019408109     0.000002242987     0.000003308619
       8        0.000128905337     0.000085087865     0.000006724761
       9        0.000006421134    -0.000010523481    -0.000002644290
      10        0.000315334414    -0.000620843519     0.008690135820
      11        0.000006321310    -0.000001162781     0.000008275466
      12       -0.000612557896     0.004466717924    -0.007164983823
      13        0.000375749039    -0.003558429077     0.003526989711
      14       -0.000000965307     0.000001039238     0.000016826355
      15        0.000031714967     0.000043654754    -0.000012570662
      16       -0.000001515466    -0.000002135366     0.000004397925
      17        0.000013060099    -0.000003007910     0.000003009336
      18        0.000006157110    -0.000002680652     0.000008980021

  **** Optimization is complete! (in 6 steps) ****
    Final optimized geometry and variables:
    Molecular point group: c1

    Geometry (in Angstrom), charge = 0, multiplicity = 1:

    H           -4.009580475062    -0.535139515089    -0.185189168037
    C           -2.942966706989    -0.420067092720    -0.154640128643
    C           -2.383761921768     0.842968274391    -0.201531467139
    C           -2.129743472726    -1.535643285868    -0.076602794661
    H           -3.013438998085     1.708420494236    -0.276338654203
    C           -1.011622097683     0.992697265060    -0.151451993307
    H           -2.562820109015    -2.516779043746    -0.047797685901
    C           -0.757231545131    -1.388957826823    -0.052736889733
    H           -0.575085035903     1.971858078253    -0.174869689943
    C           -0.197632817804    -0.123150139458    -0.063484959871
    H           -0.117676536565    -2.248998787321    -0.026951906876
    C            1.289300255235     0.005123727908    -0.110031222791
    O            1.744230946321     0.914533660087     0.730869804627
    O            1.988706005084    -0.664364098740    -0.791251645031
    C            3.142313999045     1.129369036474     0.756121184766
    H            3.658427618916     0.226998550742     1.047486379546
    H            3.309384261923     1.906596961407     1.483706793023
    H            3.497452503978     1.442223630710    -0.214507817523

  Mulliken Charges: (a.u.)
   Center  Symbol    Alpha    Beta     Spin     Total
       1     H     0.42105  0.42105  0.00000  0.15790
       2     C     3.07739  3.07739  0.00000 -0.15478
       3     C     3.06967  3.06967  0.00000 -0.13933
       4     C     3.06755  3.06755  0.00000 -0.13511
       5     H     0.42169  0.42169  0.00000  0.15661
       6     C     3.09125  3.09125  0.00000 -0.18250
       7     H     0.42114  0.42114  0.00000  0.15772
       8     C     3.08836  3.08836  0.00000 -0.17673
       9     H     0.41920  0.41920  0.00000  0.16160
      10     C     2.94838  2.94838  0.00000  0.10324
      11     H     0.41489  0.41489  0.00000  0.17023
      12     C     2.82743  2.82743  0.00000  0.34514
      13     O     4.14524  4.14524  0.00000 -0.29048
      14     O     4.20034  4.20034  0.00000 -0.40069
      15     C     3.03705  3.03705  0.00000 -0.07411
      16     H     0.45194  0.45194  0.00000  0.09611
      17     H     0.44352  0.44352  0.00000  0.11296
      18     H     0.45389  0.45389  0.00000  0.09221

   Total alpha = 36.00000, Total beta = 36.00000, Total charge =  0.00000

*** Psi4 exiting successfully. Buy a developer a beer!
