                              Psi4 1.0.54 Driver

  ==> Input File <==

--------------------------------------------------------------------------
set {
	reference rhf
	basis cc-pvtz
}

set_num_threads( 4 )
memory 2 gb

molecule MOL {
0 1

H	 -2.411625	 -0.864060	 -0.660017
O	 -2.346257	 -0.289210	 0.080372
C	 -1.183935	 0.486039	 -0.009831
C	 0.062853	 -0.375310	 0.027457
H	 -1.178881	 1.094526	 -0.908634
H	 -1.184406	 1.155156	 0.838676
O	 1.172093	 0.457955	 -0.054438
H	 0.052476	 -1.081302	 -0.804627
H	 0.076323	 -0.955658	 0.947560
C	 2.395478	 -0.199028	 -0.000366
H	 2.505946	 -0.901710	 -0.823354
H	 3.174616	 0.545641	 -0.071768
H	 2.513730	 -0.742241	 0.934223

	symmetry c1
}
set optking {
	frozen_dihedral = ("
		1 2 3 5
	")
}

ee,wfn = optimize('scf', return_wfn=True)
oeprop( wfn, 'DIPOLE', 'QUADRUPOLE', 'MULLIKEN_CHARGES')
f=open( 'psi4out.xyz', 'w' )
f.write( "13  " )
f.write( str(ee) + "\n" )
f.write( MOL.save_string_xyz() )
f.close()
--------------------------------------------------------------------------

    Molecular point group: c1
  Charge       = 0
  Multiplicity = 1
  Basis Set: CC-PVTZ
  Basis Set:
  @DF-RHF Final Energy:  -268.06216332823396
    Total Energy =                       -268.0621633282339644
    Molecular point group: c1
  Basis Set: CC-PVTZ
  Basis Set:
  Basis Set: CC-PVTZ
  Basis Set:
  @DF-RHF Final Energy:  -268.06217136711183
    Total Energy =                       -268.0621713671117732
  Basis Set: CC-PVTZ
  Basis Set:
  Charge       = 0
  Multiplicity = 1
  Basis Set: CC-PVTZ
  Basis Set:

    Orbital Energies (a.u.)
    -----------------------

    Doubly Occupied:

       1A    -20.557165     2A    -20.552918     3A    -11.271080
       4A    -11.268628     5A    -11.267400     6A     -1.393201
       7A     -1.369365     8A     -1.020291     9A     -0.914566
      10A     -0.845049    11A     -0.710060    12A     -0.677277
      13A     -0.665927    14A     -0.637907    15A     -0.597719
      16A     -0.575129    17A     -0.546548    18A     -0.493694
      19A     -0.481155    20A     -0.442469    21A     -0.425909

  @DF-RHF Final Energy:  -268.06217338473846

   => Energetics <=

    Nuclear Repulsion Energy =            190.5491180084756593
    One-Electron Energy =                -743.7956726994060546
    Two-Electron Energy =                 285.1843813061917672
    DFT Exchange-Correlation Energy =       0.0000000000000000
    Empirical Dispersion Energy =           0.0000000000000000
    PCM Polarization Energy =               0.0000000000000000
    EFP Energy =                            0.0000000000000000
    Total Energy =                       -268.0621733847386849
    Molecular point group: c1
  Basis Set: CC-PVTZ
  Basis Set:

  -Total Gradient:
     Atom            X                  Y                   Z
    ------   -----------------  -----------------  -----------------
       1        0.000444771691    -0.000671693578     0.000425041322
       2       -0.000695021023     0.000966519259    -0.000447675746
       3        0.000651191406    -0.000856917368    -0.000362154248
       4        0.000012404186    -0.000059669453    -0.000012754739
       5       -0.000387846603     0.000568535526     0.000413679844
       6       -0.000008361347     0.000001467387    -0.000009606598
       7        0.000027598092     0.000023124072     0.000005349801
       8        0.000001606283    -0.000004158788    -0.000016692762
       9       -0.000005996583     0.000039670635     0.000002608081
      10       -0.000042668454    -0.000006227726     0.000003780151
      11        0.000002056812    -0.000001527943    -0.000003614479
      12       -0.000006038312     0.000004035480    -0.000000776572
      13        0.000006303855    -0.000003157505     0.000002815943

  **** Optimization is complete! (in 3 steps) ****
    Final optimized geometry and variables:
    Molecular point group: c1

    Geometry (in Angstrom), charge = 0, multiplicity = 1:

    H           -2.420754417912    -0.857013428628    -0.658110843827
    O           -2.349236207397    -0.286409544540     0.085555084765
    C           -1.184833802962     0.484795722754    -0.006333602561
    C            0.063282892155    -0.374314226738     0.028957899777
    H           -1.183390352172     1.098087123519    -0.902125051433
    H           -1.185680211998     1.151716756854     0.843857338156
    O            1.170815320349     0.459606622024    -0.059843887231
    H            0.051590329322    -1.082635406589    -0.801826401403
    H            0.081572455475    -0.952319580970     0.950550277451
    C            2.395199780643    -0.196043166103    -0.009825552335
    H            2.502826124000    -0.900129656206    -0.831979903720
    H            3.172944415451     0.549497382720    -0.086145505563
    H            2.518167397927    -0.737198348775     0.925332264650

  Mulliken Charges: (a.u.)
   Center  Symbol    Alpha    Beta     Spin     Total
       1     H     0.39453  0.39453  0.00000  0.21093
       2     O     4.20157  4.20157  0.00000 -0.40314
       3     C     2.97028  2.97028  0.00000  0.05944
       4     C     2.96768  2.96768  0.00000  0.06463
       5     H     0.46735  0.46735  0.00000  0.06531
       6     H     0.45321  0.45321  0.00000  0.09357
       7     O     4.17478  4.17478  0.00000 -0.34955
       8     H     0.48285  0.48285  0.00000  0.03431
       9     H     0.46907  0.46907  0.00000  0.06185
      10     C     3.03200  3.03200  0.00000 -0.06399
      11     H     0.47120  0.47120  0.00000  0.05761
      12     H     0.44568  0.44568  0.00000  0.10864
      13     H     0.46980  0.46980  0.00000  0.06040

   Total alpha = 21.00000, Total beta = 21.00000, Total charge = -0.00000

*** Psi4 exiting successfully. Buy a developer a beer!
