                              Psi4 1.0.54 Driver

  ==> Input File <==

--------------------------------------------------------------------------
set {
	reference rhf
	basis cc-pvtz
}

set_num_threads( 4 )
memory 2 gb

molecule MOL {
0 1

H	 -3.162190	 0.493205	 -0.000107
C	 -2.363908	 -0.234727	 0.000005
O	 -1.158738	 0.454634	 -0.000087
H	 -2.464314	 -0.863616	 -0.882153
H	 -2.464327	 -0.863359	 0.882345
C	 -0.028611	 -0.359694	 0.000037
C	 1.156980	 0.431859	 0.514050
H	 0.170756	 -0.722691	 -1.008489
H	 -0.197843	 -1.233985	 0.629019
C	 2.438677	 -0.393154	 0.544972
H	 1.289363	 1.304218	 -0.116339
H	 0.923710	 0.796936	 1.508161
H	 2.704057	 -0.748626	 -0.445129
H	 3.268454	 0.196037	 0.915570
H	 2.336065	 -1.259121	 1.190449

	symmetry c1
}
set optking {
	frozen_dihedral = ("
		8 6 3 2
	")
}

ee,wfn = optimize('scf', return_wfn=True)
oeprop( wfn, 'DIPOLE', 'QUADRUPOLE', 'MULLIKEN_CHARGES')
f=open( 'psi4out.xyz', 'w' )
f.write( "15  " )
f.write( str(ee) + "\n" )
f.write( MOL.save_string_xyz() )
f.close()
--------------------------------------------------------------------------

    Molecular point group: c1
  Charge       = 0
  Multiplicity = 1
  Basis Set: CC-PVTZ
  Basis Set:
  @DF-RHF Final Energy:  -232.22716554614459
    Total Energy =                       -232.2271655461443629
    Molecular point group: c1
  Basis Set: CC-PVTZ
  Basis Set:
  Basis Set: CC-PVTZ
  Basis Set:
  @DF-RHF Final Energy:  -232.22722378979040
    Total Energy =                       -232.2272237897905143
  Basis Set: CC-PVTZ
  Basis Set:
  Basis Set: CC-PVTZ
  Basis Set:
  @DF-RHF Final Energy:  -232.22723912318963
    Total Energy =                       -232.2272391231896336
  Basis Set: CC-PVTZ
  Basis Set:
  Charge       = 0
  Multiplicity = 1
  Basis Set: CC-PVTZ
  Basis Set:

    Orbital Energies (a.u.)
    -----------------------

    Doubly Occupied:

       1A    -20.546777     2A    -11.264290     3A    -11.262013
       4A    -11.212473     5A    -11.210594     6A     -1.380605
       7A     -1.058184     8A     -0.956316     9A     -0.877457
      10A     -0.808987    11A     -0.676531    12A     -0.655574
      13A     -0.632713    14A     -0.607263    15A     -0.565654
      16A     -0.541390    17A     -0.503425    18A     -0.490464
      19A     -0.479276    20A     -0.463073    21A     -0.414570

  @DF-RHF Final Energy:  -232.22723934005137

   => Energetics <=

    Nuclear Repulsion Energy =            189.9788084929388674
    One-Electron Energy =                -691.1968384030644756
    Two-Electron Energy =                 268.9907905700742390
    DFT Exchange-Correlation Energy =       0.0000000000000000
    Empirical Dispersion Energy =           0.0000000000000000
    PCM Polarization Energy =               0.0000000000000000
    EFP Energy =                            0.0000000000000000
    Total Energy =                       -232.2272393400513693
    Molecular point group: c1
  Basis Set: CC-PVTZ
  Basis Set:

  -Total Gradient:
     Atom            X                  Y                   Z
    ------   -----------------  -----------------  -----------------
       1       -0.000003312136    -0.000004982385    -0.000002158152
       2       -0.000071362850     0.000013444428     0.002042624973
       3        0.000448451598     0.000482352392    -0.003026708711
       4        0.000019192841     0.000012125766     0.000011093049
       5        0.000016675675     0.000005507989    -0.000009672113
       6       -0.001867925095    -0.002507654156     0.001417166808
       7       -0.000006800436    -0.000000074448    -0.000018378800
       8        0.001446476072     0.002006808498    -0.000414130216
       9       -0.000003767724    -0.000002331187    -0.000003750621
      10        0.000018171438    -0.000009367911     0.000010101753
      11        0.000004134418     0.000004285934     0.000003796629
      12       -0.000003680647    -0.000002412308    -0.000004965702
      13       -0.000000783703     0.000000800687     0.000001924692
      14        0.000000322385    -0.000001970434    -0.000000656458
      15        0.000004208165     0.000003467137    -0.000006287131

  **** Optimization is complete! (in 4 steps) ****
    Final optimized geometry and variables:
    Molecular point group: c1

    Geometry (in Angstrom), charge = 0, multiplicity = 1:

    H           -3.138002400208     0.543459996551    -0.249242267774
    C           -2.349368061715    -0.194686042120    -0.222977814858
    O           -1.135705787392     0.479810245036    -0.207744760741
    H           -2.443925796294    -0.834813523446    -1.098060332332
    H           -2.473946608368    -0.808736524954     0.666008559061
    C           -0.007217836809    -0.339193722554    -0.186461935928
    C            1.179519817258     0.459763670924     0.317708934084
    H            0.203346332413    -0.705695298239    -1.190953193248
    H           -0.176280929469    -1.202617832244     0.454862693721
    C            2.469801630114    -0.352518362011     0.321476736986
    H            1.293586252531     1.337940431045    -0.308383349093
    H            0.958639295960     0.816063101765     1.317985821560
    H            2.724206881595    -0.694652720330    -0.676163038492
    H            3.299252374560     0.240663007006     0.686677993646
    H            2.385218891130    -1.226684040282     0.958781908960

  Mulliken Charges: (a.u.)
   Center  Symbol    Alpha    Beta     Spin     Total
       1     H     0.44789  0.44789  0.00000  0.10422
       2     C     3.03285  3.03285  0.00000 -0.06570
       3     O     4.17322  4.17322  0.00000 -0.34644
       4     H     0.47234  0.47234  0.00000  0.05531
       5     H     0.47136  0.47136  0.00000  0.05727
       6     C     2.95704  2.95704  0.00000  0.08592
       7     C     3.08034  3.08034  0.00000 -0.16069
       8     H     0.47084  0.47084  0.00000  0.05832
       9     H     0.47723  0.47723  0.00000  0.04554
      10     C     3.15580  3.15580  0.00000 -0.31160
      11     H     0.45045  0.45045  0.00000  0.09910
      12     H     0.45253  0.45253  0.00000  0.09493
      13     H     0.45562  0.45562  0.00000  0.08877
      14     H     0.44632  0.44632  0.00000  0.10736
      15     H     0.45615  0.45615  0.00000  0.08770

   Total alpha = 21.00000, Total beta = 21.00000, Total charge =  0.00000

*** Psi4 exiting successfully. Buy a developer a beer!
