  ==> Input File <==

--------------------------------------------------------------------------
set {
	reference rhf
	basis cc-pvtz
}

set_num_threads( 4 )
memory 2 gb

molecule MOL {
0 1

H	 -2.026725	 0.205619	 -0.052867
N	 -1.173824	 -0.310545	 -0.096857
C	 -0.022588	 0.563366	 0.065815
H	 -1.205920	 -0.995862	 0.629038
C	 1.270420	 -0.230572	 -0.014245
H	 -0.045354	 1.293678	 -0.735129
H	 -0.043155	 1.123061	 1.001180
H	 1.336273	 -0.754933	 -0.959364
H	 2.130728	 0.422015	 0.082222
H	 1.323344	 -0.967006	 0.781773

	symmetry c1
}
set optking {
	frozen_dihedral = ("
		1 2 3 6
	")
}

ee = optimize('scf')
oeprop('DIPOLE', 'QUADRUPOLE', 'MULLIKEN_CHARGES')
f=open( 'psi4out.xyz', 'w' )
f.write( "10  " )
f.write( str(ee) + "\n" )
f.write( MOL.save_string_xyz() )
f.close()
--------------------------------------------------------------------------

    Molecular point group: c1
  Charge       = 0
  Multiplicity = 1
  Basis Set: CC-PVTZ
  Basis Set:
  @DF-RHF Final Energy:  -134.30478185248137
    Total Energy =                       -134.3047818524812840
    Molecular point group: c1
  Basis Set: CC-PVTZ
  Basis Set:
  Basis Set: CC-PVTZ
  Basis Set:
  @DF-RHF Final Energy:  -134.30478339212425
    Total Energy =                       -134.3047833921242784
  Basis Set: CC-PVTZ
  Basis Set:
  Charge       = 0
  Multiplicity = 1
  Basis Set: CC-PVTZ
  Basis Set:

    Orbital Energies (a.u.)
    -----------------------

    Doubly Occupied:

       1A    -15.527104     2A    -11.240941     3A    -11.205439
       4A     -1.178198     5A     -0.988733     6A     -0.824594
       7A     -0.662854     8A     -0.632234     9A     -0.583545
      10A     -0.516810    11A     -0.508325    12A     -0.488883
      13A     -0.385303

  @DF-RHF Final Energy:  -134.30478353744888

   => Energetics <=

    Nuclear Repulsion Energy =             83.4803983337611868
    One-Electron Energy =                -346.0844405211320804
    Two-Electron Energy =                 128.2992586499219954
    DFT Exchange-Correlation Energy =       0.0000000000000000
    Empirical Dispersion Energy =           0.0000000000000000
    PCM Polarization Energy =               0.0000000000000000
    EFP Energy =                            0.0000000000000000
    Total Energy =                       -134.3047835374489125
    Molecular point group: c1
  Basis Set: CC-PVTZ
  Basis Set:

  -Total Gradient:
     Atom            X                  Y                   Z
    ------   -----------------  -----------------  -----------------
       1       -0.000003431895    -0.000059082489     0.000294026066
       2        0.000052446411     0.000032493453    -0.000375269486
       3       -0.000211499627     0.000163490036     0.000222195151
       4       -0.000004544454     0.000011300493    -0.000007969350
       5       -0.000003025554     0.000017157235     0.000011540728
       6        0.000156920954    -0.000148179719    -0.000160935261
       7        0.000007181721    -0.000009515104     0.000010916282
       8       -0.000001748759     0.000006921980     0.000000755229
       9        0.000001668820    -0.000008123497    -0.000001179848
      10        0.000006032384    -0.000006462385     0.000005920490

  **** Optimization is complete! (in 3 steps) ****
    Final optimized geometry and variables:
    Molecular point group: c1

    Geometry (in Angstrom), charge = 0, multiplicity = 1:

    H           -2.026889054978     0.205602180917    -0.055563650511
    N           -1.173765453173    -0.310500485783    -0.098218027645
    C           -0.023298267265     0.564021581554     0.066527064787
    H           -1.207526178001    -0.992709353410     0.630658686477
    C            1.269866279738    -0.229643155521    -0.014600771279
    H           -0.044471048287     1.294757998061    -0.734136155546
    H           -0.044148928368     1.121860010854     1.002945635289
    H            1.334617018628    -0.754730384366    -0.959434329337
    H            2.130071988827     0.423273342421     0.079805068958
    H            1.324382774345    -0.965237920820     0.782122942452

  Mulliken Charges: (a.u.)
   Center  Symbol    Alpha    Beta     Spin     Total
       1     H     0.42983  0.42983  0.00000  0.14035
       2     N     3.68939  3.68939  0.00000 -0.37878
       3     C     3.01829  3.01829  0.00000 -0.03657
       4     H     0.43057  0.43057  0.00000  0.13886
       5     C     3.13962  3.13962  0.00000 -0.27923
       6     H     0.45784  0.45784  0.00000  0.08431
       7     H     0.46972  0.46972  0.00000  0.06056
       8     H     0.44941  0.44941  0.00000  0.10118
       9     H     0.45525  0.45525  0.00000  0.08951
      10     H     0.46008  0.46008  0.00000  0.07983

   Total alpha = 13.00000, Total beta = 13.00000, Total charge =  0.00000
