  ==> Input File <==

--------------------------------------------------------------------------
set {
	reference rhf
	basis 6-31G*
}

set_num_threads( 4 )
memory 2 gb

molecule MOL {
0 1

O	 0.749854	 1.307668	 -0.000040
C	 0.576249	 0.131685	 -0.000108
C	 -0.766779	 -0.556801	 -0.000461
O	 1.568443	 -0.749345	 -0.000005
C	 -1.945214	 0.412366	 0.000161
H	 -0.796911	 -1.211249	 -0.867467
H	 -0.796854	 -1.212390	 0.865687
C	 -3.287791	 -0.317055	 0.000105
H	 -1.876087	 1.060580	 -0.866812
H	 -1.875822	 1.059691	 0.867761
H	 -3.394745	 -0.949193	 -0.877058
H	 -4.111778	 0.388953	 0.000015
H	 -3.394954	 -0.949187	 0.877259
C	 1.510600	 -1.782516	 -0.966659
H	 0.619105	 -2.378292	 -0.833125
H	 2.390785	 -2.385534	 -0.806943
H	 1.515621	 -1.369513	 -1.965114

	symmetry c1
}
set optking {
	frozen_dihedral = ("
		14 4 2 1
	")
}

ee = optimize('scf')
oeprop('DIPOLE', 'QUADRUPOLE', 'MULLIKEN_CHARGES')
f=open( 'psi4out.xyz', 'w' )
f.write( "17  " )
f.write( str(ee) + "\n" )
f.write( MOL.save_string_xyz() )
f.close()
--------------------------------------------------------------------------

    Molecular point group: c1
  Charge       = 0
  Multiplicity = 1
  Basis Set: 6-31G*
  Basis Set:
  @DF-RHF Final Energy:  -344.88079777675841
    Total Energy =                       -344.8807977767588113
    Molecular point group: c1
  Basis Set: 6-31G*
  Basis Set:
  Basis Set: 6-31G*
  Basis Set:
  @DF-RHF Final Energy:  -344.88119626556244
    Total Energy =                       -344.8811962655624939
  Basis Set: 6-31G*
  Basis Set:
  Basis Set: 6-31G*
  Basis Set:
  @DF-RHF Final Energy:  -344.88579716519178
    Total Energy =                       -344.8857971651920593
  Basis Set: 6-31G*
  Basis Set:
  Basis Set: 6-31G*
  Basis Set:
  @DF-RHF Final Energy:  -344.88638430370298
    Total Energy =                       -344.8863843037027550
  Basis Set: 6-31G*
  Basis Set:
  @DF-RHF Final Energy:  -344.88716619117167
    Total Energy =                       -344.8871661911717297
  Basis Set: 6-31G*
  Basis Set:
  @DF-RHF Final Energy:  -344.88750511515769
    Total Energy =                       -344.8875051151577509
  Basis Set: 6-31G*
  Basis Set:
  Basis Set: 6-31G*
  Basis Set:
  @DF-RHF Final Energy:  -344.88752065323411
    Total Energy =                       -344.8875206532339917
  Basis Set: 6-31G*
  Basis Set:
  Basis Set: 6-31G*
  Basis Set:
  @DF-RHF Final Energy:  -344.88752558958339
    Total Energy =                       -344.8875255895834471
  Basis Set: 6-31G*
  Basis Set:
  Charge       = 0
  Multiplicity = 1
  Basis Set: 6-31G*
  Basis Set:

    Orbital Energies (a.u.)
    -----------------------

    Doubly Occupied:

       1A    -20.592585     2A    -20.550460     3A    -11.374934
       4A    -11.295519     5A    -11.243755     6A    -11.226366
       7A    -11.218386     8A     -1.460331     9A     -1.367785
      10A     -1.082177    11A     -0.988539    12A     -0.963944
      13A     -0.837693    14A     -0.766117    15A     -0.701284
      16A     -0.682721    17A     -0.674117    18A     -0.640368
      19A     -0.611805    20A     -0.581036    21A     -0.567119
      22A     -0.547680    23A     -0.519980    24A     -0.494798
      25A     -0.490898    26A     -0.483074    27A     -0.453256
      28A     -0.434077

  @DF-RHF Final Energy:  -344.88752595881743

   => Energetics <=

    Nuclear Repulsion Energy =            313.3449080229717651
    One-Electron Energy =               -1090.7632563498700620
    Two-Electron Energy =                 432.5308223680809192
    DFT Exchange-Correlation Energy =       0.0000000000000000
    Empirical Dispersion Energy =           0.0000000000000000
    PCM Polarization Energy =               0.0000000000000000
    EFP Energy =                            0.0000000000000000
    Total Energy =                       -344.8875259588173208
    Molecular point group: c1
  Basis Set: 6-31G*
  Basis Set:

  -Total Gradient:
     Atom            X                  Y                   Z
    ------   -----------------  -----------------  -----------------
       1        0.000181250543    -0.000222105432    -0.003844757033
       2        0.000475599466     0.001347743419     0.004429528514
       3       -0.000015552752     0.000003260492    -0.000031280443
       4       -0.002298111409    -0.002918610745     0.001531997826
       5        0.000013392709    -0.000015082176     0.000018593752
       6       -0.000001344827     0.000009473409     0.000017169936
       7        0.000005049973     0.000002587367     0.000004221688
       8       -0.000003755987     0.000004441836    -0.000010418596
       9       -0.000002543849     0.000008302051    -0.000001605250
      10        0.000000074022    -0.000001907216     0.000001438271
      11        0.000004643383    -0.000005739188     0.000003070825
      12        0.000001334345     0.000000450005    -0.000006781198
      13       -0.000003519316     0.000003894861     0.000006317828
      14        0.001626406436     0.001783161810    -0.002119365782
      15        0.000019255385    -0.000000507316    -0.000008648035
      16        0.000000927430    -0.000007009508     0.000000373116
      17       -0.000003105564     0.000007646326     0.000010144583

  **** Optimization is complete! (in 9 steps) ****
    Final optimized geometry and variables:
    Molecular point group: c1

    Geometry (in Angstrom), charge = 0, multiplicity = 1:

    O            0.919805855885     1.506501285999     0.013211935823
    C            0.748176007884     0.338297301697     0.066186899434
    C           -0.618514387432    -0.315230795655     0.065549615716
    O            1.800730210526    -0.494899559640     0.161480631508
    C           -1.760838904113     0.682788957642     0.240951662831
    H           -0.739224047393    -0.856546427026    -0.870399764427
    H           -0.631561894788    -1.066641438042     0.850756377764
    C           -3.126610754623    -0.001895214730     0.234062168420
    H           -1.711215364264     1.422736284605    -0.549431982172
    H           -1.622608278324     1.223251014916     1.171279290200
    H           -3.302701745826    -0.525521142198    -0.701679999974
    H           -3.923000656673     0.724178486935     0.359426942136
    H           -3.211409458298    -0.726499770042     1.039142522318
    C            1.909243330498    -1.594858474707    -0.713415455406
    H            1.171584427242    -2.358300438024    -0.496789632549
    H            2.895253759784    -2.004003075141    -0.558583660306
    H            1.815135473688    -1.279734445947    -1.746174728366

  Mulliken Charges: (a.u.)
   Center  Symbol    Alpha    Beta     Spin     Total
       1     O     4.25547  4.25547  0.00000 -0.51094
       2     C     2.60776  2.60776  0.00000  0.78448
       3     C     3.22404  3.22404  0.00000 -0.44808
       4     O     4.30910  4.30910  0.00000 -0.61819
       5     C     3.15031  3.15031  0.00000 -0.30063
       6     H     0.40563  0.40563  0.00000  0.18874
       7     H     0.40224  0.40224  0.00000  0.19553
       8     C     3.24313  3.24313  0.00000 -0.48627
       9     H     0.40737  0.40737  0.00000  0.18526
      10     H     0.41022  0.41022  0.00000  0.17956
      11     H     0.42219  0.42219  0.00000  0.15563
      12     H     0.41384  0.41384  0.00000  0.17232
      13     H     0.42122  0.42122  0.00000  0.15756
      14     C     3.09400  3.09400  0.00000 -0.18800
      15     H     0.41866  0.41866  0.00000  0.16268
      16     H     0.39951  0.39951  0.00000  0.20097
      17     H     0.41530  0.41530  0.00000  0.16939

   Total alpha = 28.00000, Total beta = 28.00000, Total charge =  0.00000
