  ==> Input File <==

--------------------------------------------------------------------------
set {
	reference rhf
	basis 6-31G*
}

set_num_threads( 4 )
memory 2 gb

molecule MOL {
0 1

H	 -2.403371	 -0.864947	 -0.670946
O	 -2.347518	 -0.290803	 0.079804
C	 -1.184022	 0.487508	 -0.006784
C	 0.062599	 -0.378592	 0.031606
H	 -1.176523	 1.099369	 -0.904519
H	 -1.187323	 1.153111	 0.844927
O	 1.171513	 0.459272	 -0.058250
H	 0.050699	 -1.089204	 -0.797170
H	 0.078739	 -0.954914	 0.954740
C	 2.397842	 -0.198080	 -0.002151
H	 2.508049	 -0.905315	 -0.822092
H	 3.173794	 0.550865	 -0.078850
H	 2.517602	 -0.735921	 0.936026

	symmetry c1
}
set optking {
	frozen_dihedral = ("
		1 2 3 5
	")
}

ee = optimize('scf')
oeprop('DIPOLE', 'QUADRUPOLE', 'MULLIKEN_CHARGES')
f=open( 'psi4out.xyz', 'w' )
f.write( "13  " )
f.write( str(ee) + "\n" )
f.write( MOL.save_string_xyz() )
f.close()
--------------------------------------------------------------------------

    Molecular point group: c1
  Charge       = 0
  Multiplicity = 1
  Basis Set: 6-31G*
  Basis Set:
  @DF-RHF Final Energy:  -267.95042024591066
    Total Energy =                       -267.9504202459106637
    Molecular point group: c1
  Basis Set: 6-31G*
  Basis Set:
  Basis Set: 6-31G*
  Basis Set:
  @DF-RHF Final Energy:  -267.95043323802690
    Total Energy =                       -267.9504332380267897
  Basis Set: 6-31G*
  Basis Set:
  Basis Set: 6-31G*
  Basis Set:
  @DF-RHF Final Energy:  -267.95043703586339
    Total Energy =                       -267.9504370358630467
  Basis Set: 6-31G*
  Basis Set:
  Charge       = 0
  Multiplicity = 1
  Basis Set: 6-31G*
  Basis Set:

    Orbital Energies (a.u.)
    -----------------------

    Doubly Occupied:

       1A    -20.563835     2A    -20.560234     3A    -11.273086
       4A    -11.271319     5A    -11.268889     6A     -1.390229
       7A     -1.365374     8A     -1.019333     9A     -0.914059
      10A     -0.844458    11A     -0.707508    12A     -0.675003
      13A     -0.663865    14A     -0.635866    15A     -0.595720
      16A     -0.573823    17A     -0.545456    18A     -0.491881
      19A     -0.479474    20A     -0.439348    21A     -0.423585

  @DF-RHF Final Energy:  -267.95043709648593

   => Energetics <=

    Nuclear Repulsion Energy =            190.2776232764549604
    One-Electron Energy =                -743.0514262899970390
    Two-Electron Energy =                 284.8233659170558667
    DFT Exchange-Correlation Energy =       0.0000000000000000
    Empirical Dispersion Energy =           0.0000000000000000
    PCM Polarization Energy =               0.0000000000000000
    EFP Energy =                            0.0000000000000000
    Total Energy =                       -267.9504370964862119
    Molecular point group: c1
  Basis Set: 6-31G*
  Basis Set:

  -Total Gradient:
     Atom            X                  Y                   Z
    ------   -----------------  -----------------  -----------------
       1        0.000626242635    -0.000859715415     0.000599610961
       2       -0.000914550468     0.001278144123    -0.000554197697
       3        0.000781306878    -0.001219989441    -0.000605949101
       4       -0.000015934047     0.000007525578     0.000013387834
       5       -0.000476442649     0.000800616252     0.000546622082
       6       -0.000007271050    -0.000006756518     0.000002883529
       7       -0.000000483073    -0.000011935865     0.000000253633
       8       -0.000003038605     0.000008295309     0.000002011170
       9        0.000001731848    -0.000005546274    -0.000003025903
      10       -0.000000786989     0.000017381376    -0.000003321735
      11        0.000000848001    -0.000002420732     0.000001018766
      12        0.000009404487    -0.000004598902     0.000000981109
      13       -0.000001026968    -0.000000999491    -0.000000274647

  **** Optimization is complete! (in 4 steps) ****
    Final optimized geometry and variables:
    Molecular point group: c1

    Geometry (in Angstrom), charge = 0, multiplicity = 1:

    H           -2.414858405784    -0.855644526705    -0.675752473729
    O           -2.351972864845    -0.286188956358     0.078570257175
    C           -1.184882647964     0.485889987771    -0.008451577863
    C            0.063090418473    -0.378047219098     0.032094965114
    H           -1.179133768138     1.103039819926    -0.902777857501
    H           -1.189939944355     1.149679262037     0.844619489507
    O            1.170775978076     0.460636592388    -0.060228884905
    H            0.053656572199    -1.091069685148    -0.795341539957
    H            0.080307268716    -0.951960938841     0.956756190825
    C            2.398086513362    -0.195370420095    -0.002825301605
    H            2.508217447502    -0.904174509296    -0.821357883017
    H            3.172958048022     0.554409716768    -0.081776154676
    H            2.518627160299    -0.730712965498     0.936661961318

  Mulliken Charges: (a.u.)
   Center  Symbol    Alpha    Beta     Spin     Total
       1     H     0.28220  0.28220  0.00000  0.43559
       2     O     4.37083  4.37083  0.00000 -0.74165
       3     C     3.00146  3.00146  0.00000 -0.00292
       4     C     2.99954  2.99954  0.00000  0.00093
       5     H     0.42204  0.42204  0.00000  0.15592
       6     H     0.40834  0.40834  0.00000  0.18332
       7     O     4.30687  4.30687  0.00000 -0.61375
       8     H     0.43832  0.43832  0.00000  0.12335
       9     H     0.42312  0.42312  0.00000  0.15376
      10     C     3.08031  3.08031  0.00000 -0.16063
      11     H     0.42910  0.42910  0.00000  0.14179
      12     H     0.41030  0.41030  0.00000  0.17940
      13     H     0.42756  0.42756  0.00000  0.14489

   Total alpha = 21.00000, Total beta = 21.00000, Total charge = -0.00000
