  ==> Input File <==

--------------------------------------------------------------------------
set {
	reference rhf
	basis cc-pvtz
}

set_num_threads( 4 )
memory 2 gb

molecule MOL {
0 1

H	 -0.000105	 1.988529	 0.748933
O	 -0.000098	 1.879786	 -0.188206
C	 -0.000014	 0.545691	 -0.532416
C	 -1.286000	 -0.125171	 -0.046657
C	 1.286016	 -0.125031	 -0.046584
H	 0.000021	 0.481103	 -1.610604
F	 -1.858783	 -0.741937	 -1.050838
F	 -1.062111	 -1.008842	 0.892870
F	 -2.141445	 0.759837	 0.418478
F	 2.317750	 0.468717	 -0.594166
F	 1.336617	 -1.393765	 -0.365123
F	 1.414467	 -0.024806	 1.259108

	symmetry c1
}
set optking {
	frozen_dihedral = ("
		7 4 3 6
	")
}

ee = optimize('scf')
oeprop('DIPOLE', 'QUADRUPOLE', 'MULLIKEN_CHARGES')
f=open( 'psi4out.xyz', 'w' )
f.write( "12  " )
f.write( str(ee) + "\n" )
f.write( MOL.save_string_xyz() )
f.close()
--------------------------------------------------------------------------

    Molecular point group: c1
  Charge       = 0
  Multiplicity = 1
  Basis Set: CC-PVTZ
  Basis Set:
  @DF-RHF Final Energy:  -786.58261470145885
    Total Energy =                       -786.5826147014586240
    Molecular point group: c1
  Basis Set: CC-PVTZ
  Basis Set:
  Basis Set: CC-PVTZ
  Basis Set:
  @DF-RHF Final Energy:  -786.58343896573876
    Total Energy =                       -786.5834389657388783
  Basis Set: CC-PVTZ
  Basis Set:
  Basis Set: CC-PVTZ
  Basis Set:
  @DF-RHF Final Energy:  -786.58397565617076
    Total Energy =                       -786.5839756561703098
  Basis Set: CC-PVTZ
  Basis Set:
  Basis Set: CC-PVTZ
  Basis Set:
  @DF-RHF Final Energy:  -786.58400858612924
    Total Energy =                       -786.5840085861291300
  Basis Set: CC-PVTZ
  Basis Set:
  Basis Set: CC-PVTZ
  Basis Set:
  @DF-RHF Final Energy:  -786.58401385388595
    Total Energy =                       -786.5840138538862902
  Basis Set: CC-PVTZ
  Basis Set:
  Charge       = 0
  Multiplicity = 1
  Basis Set: CC-PVTZ
  Basis Set:

    Orbital Energies (a.u.)
    -----------------------

    Doubly Occupied:

       1A    -26.357226     2A    -26.356686     3A    -26.356365
       4A    -26.355873     5A    -26.355155     6A    -26.352584
       7A    -20.609814     8A    -11.521326     9A    -11.517626
      10A    -11.351705    11A     -1.771615    12A     -1.765457
      13A     -1.664991    14A     -1.664524    15A     -1.662625
      16A     -1.659529    17A     -1.439813    18A     -1.101129
      19A     -1.000215    20A     -0.943981    21A     -0.871706
      22A     -0.866195    23A     -0.857285    24A     -0.853337
      25A     -0.840885    26A     -0.819516    27A     -0.740247
      28A     -0.736921    29A     -0.735032    30A     -0.729862
      31A     -0.694913    32A     -0.690939    33A     -0.689572
      34A     -0.683632    35A     -0.675170    36A     -0.668186
      37A     -0.662632    38A     -0.655570    39A     -0.622481
      40A     -0.551521    41A     -0.509383

  @DF-RHF Final Energy:  -786.58401461421863

   => Energetics <=

    Nuclear Repulsion Energy =            670.0416613875925123
    One-Electron Energy =               -2427.3249090060899107
    Two-Electron Energy =                 970.6992330042785397
    DFT Exchange-Correlation Energy =       0.0000000000000000
    Empirical Dispersion Energy =           0.0000000000000000
    PCM Polarization Energy =               0.0000000000000000
    EFP Energy =                            0.0000000000000000
    Total Energy =                       -786.5840146142188587
    Molecular point group: c1
  Basis Set: CC-PVTZ
  Basis Set:

  -Total Gradient:
     Atom            X                  Y                   Z
    ------   -----------------  -----------------  -----------------
       1        0.000002702615     0.000033329348     0.000002702067
       2       -0.000033688779    -0.000161358677    -0.000016422064
       3       -0.001951202475     0.003424871996    -0.000300178365
       4        0.001783655763    -0.002819854806     0.000760229880
       5       -0.000025509520     0.000067636993    -0.000045382287
       6        0.001362108992    -0.002339499871     0.000136459208
       7       -0.001194840584     0.001876414630    -0.000500049939
       8        0.000093524736    -0.000038250186    -0.000015352331
       9       -0.000028546471     0.000030964593    -0.000054279346
      10        0.000004508741    -0.000026268970     0.000020534200
      11        0.000001479046     0.000007154079     0.000039931195
      12       -0.000014192069    -0.000055139134    -0.000028192220

  **** Optimization is complete! (in 6 steps) ****
    Final optimized geometry and variables:
    Molecular point group: c1

    Geometry (in Angstrom), charge = 0, multiplicity = 1:

    H           -0.015261239493     2.041593765867     0.767596798735
    O            0.034710218103     1.920890401291    -0.166089917452
    C            0.005980586260     0.590645279983    -0.508803345732
    C           -1.285278998283    -0.131808308047    -0.041812963416
    C            1.281682221603    -0.108238201532    -0.040506760149
    H            0.020727813566     0.525801192457    -1.585641376927
    F           -1.834517310367    -0.769770739124    -1.049255094673
    F           -1.077730117382    -1.001814023194     0.918166313311
    F           -2.160739896334     0.736159167366     0.402691755937
    F            2.320690640983     0.441606719002    -0.619178642620
    F            1.273501359746    -1.381287812317    -0.355011623160
    F            1.447776819684     0.000248713580     1.259187578027

  Mulliken Charges: (a.u.)
   Center  Symbol    Alpha    Beta     Spin     Total
       1     H     0.38338  0.38338  0.00000  0.23324
       2     O     4.18242  4.18242  0.00000 -0.36484
       3     C     3.01868  3.01868  0.00000 -0.03736
       4     C     2.67579  2.67579  0.00000  0.64842
       5     C     2.67904  2.67904  0.00000  0.64192
       6     H     0.42874  0.42874  0.00000  0.14253
       7     F     4.60579  4.60579  0.00000 -0.21158
       8     F     4.60326  4.60326  0.00000 -0.20653
       9     F     4.60359  4.60359  0.00000 -0.20718
      10     F     4.60202  4.60202  0.00000 -0.20403
      11     F     4.60617  4.60617  0.00000 -0.21234
      12     F     4.61113  4.61113  0.00000 -0.22225

   Total alpha = 41.00000, Total beta = 41.00000, Total charge = -0.00000
