  ==> Input File <==

--------------------------------------------------------------------------
set {
	reference rhf
	basis 6-31G*
}

set_num_threads( 1 )
memory 2 gb

molecule MOL {
0 1

H	 0.195380	 1.529425	 2.096760
C	 1.006745	 1.010014	 1.572641
C	 0.692068	 0.589600	 0.160137
O	 2.042936	 0.815404	 2.120878
C	 -0.558097	 -0.297372	 0.091132
H	 1.559790	 0.081950	 -0.244625
H	 0.526195	 1.492825	 -0.425952
C	 -1.850991	 0.512573	 -0.019058
H	 -0.476753	 -0.965681	 -0.762987
H	 -0.604799	 -0.930658	 0.975228
C	 -3.096943	 -0.368295	 -0.099594
H	 -1.800724	 1.150330	 -0.898172
H	 -1.931651	 1.177355	 0.838044
H	 -3.060452	 -1.020287	 -0.967456
H	 -3.996858	 0.233488	 -0.175704
H	 -3.191959	 -0.995686	 0.782074

	symmetry c1
}
set optking {
	frozen_dihedral = ("
		9 5 8 12,
		4 2 3 6
	")
}

ee = energy('scf')
oeprop('DIPOLE', 'QUADRUPOLE', 'MULLIKEN_CHARGES')
f=open( 'psi4out.xyz', 'w' )
f.write( "16  " )
f.write( str(ee) + "\n" )
f.write( MOL.save_string_xyz() )
f.close()
--------------------------------------------------------------------------

    Molecular point group: c1

    Geometry (in Angstrom), charge = 0, multiplicity = 1:

       Center              X                  Y                   Z               Mass
    ------------   -----------------  -----------------  -----------------  -----------------
           H          0.496192435121     1.155704152843     1.450645810120     1.007825032070
           C          1.307557435121     0.636293152843     0.926526810120    12.000000000000
           C          0.992880435121     0.215879152843    -0.485977189880    12.000000000000
           O          2.343748435121     0.441683152843     1.474763810120    15.994914619560
           C         -0.257284564879    -0.671092847157    -0.554982189880    12.000000000000
           H          1.860602435121    -0.291770847157    -0.890739189880     1.007825032070
           H          0.827007435121     1.119104152843    -1.072066189880     1.007825032070
           C         -1.550178564879     0.138852152843    -0.665172189880    12.000000000000
           H         -0.175940564879    -1.339401847157    -1.409101189880     1.007825032070
           H         -0.303986564879    -1.304378847157     0.329113810120     1.007825032070
           C         -2.796130564879    -0.742015847157    -0.745708189880    12.000000000000
           H         -1.499911564879     0.776609152843    -1.544286189880     1.007825032070
           H         -1.630838564879     0.803634152843     0.191929810120     1.007825032070
           H         -2.759639564879    -1.394007847157    -1.613570189880     1.007825032070
           H         -3.696045564879    -0.140232847157    -0.821818189880     1.007825032070
           H         -2.891146564879    -1.369406847157     0.135959810120     1.007825032070

  Charge       = 0
  Multiplicity = 1
  Basis Set: 6-31G*
  Basis Set:

    Orbital Energies (a.u.)
    -----------------------

    Doubly Occupied:

       1A    -20.562174     2A    -11.326427     3A    -11.236225
       4A    -11.234352     5A    -11.231046     6A    -11.219571
       7A     -1.402048     8A     -1.098498     9A     -1.017829
      10A     -0.905255    11A     -0.824272    12A     -0.786538
      13A     -0.673345    14A     -0.657093    15A     -0.614582
      16A     -0.606301    17A     -0.584106    18A     -0.556104
      19A     -0.536595    20A     -0.510812    21A     -0.486692
      22A     -0.483056    23A     -0.472213    24A     -0.408643

  @DF-RHF Final Energy:  -270.01674460575452

   => Energetics <=

    Nuclear Repulsion Energy =            231.4818975264355458
    One-Electron Energy =                -824.1298690630128476
    Two-Electron Energy =                 322.6312269308232317
    DFT Exchange-Correlation Energy =       0.0000000000000000
    Empirical Dispersion Energy =           0.0000000000000000
    PCM Polarization Energy =               0.0000000000000000
    EFP Energy =                            0.0000000000000000
    Total Energy =                       -270.0167446057540701

  Mulliken Charges: (a.u.)
   Center  Symbol    Alpha    Beta     Spin     Total
       1     H     0.43175  0.43175  0.00000  0.13650
       2     C     2.83049  2.83049  0.00000  0.33902
       3     C     3.21001  3.21001  0.00000 -0.42002
       4     O     4.23780  4.23780  0.00000 -0.47559
       5     C     3.16649  3.16649  0.00000 -0.33298
       6     H     0.39718  0.39718  0.00000  0.20564
       7     H     0.40862  0.40862  0.00000  0.18275
       8     C     3.15577  3.15577  0.00000 -0.31153
       9     H     0.41088  0.41088  0.00000  0.17825
      10     H     0.41410  0.41410  0.00000  0.17180
      11     C     3.24024  3.24024  0.00000 -0.48049
      12     H     0.41948  0.41948  0.00000  0.16104
      13     H     0.42184  0.42184  0.00000  0.15631
      14     H     0.41946  0.41946  0.00000  0.16108
      15     H     0.41651  0.41651  0.00000  0.16698
      16     H     0.41938  0.41938  0.00000  0.16123

   Total alpha = 24.00000, Total beta = 24.00000, Total charge = -0.00000
