                              Psi4 1.0.54 Driver

  ==> Input File <==

--------------------------------------------------------------------------
set {
	reference rhf
	basis cc-pvtz
}

set_num_threads( 4 )
memory 2 gb

molecule MOL {
0 1

H	 1.672899	 1.829170	 -1.438621
O	 0.781053	 1.678746	 -1.186375
C	 0.700177	 0.619554	 -0.266242
C	 -0.713111	 0.588314	 0.266177
H	 1.393841	 0.771839	 0.555077
H	 0.930846	 -0.328774	 -0.744617
O	 -1.421673	 -0.521378	 -0.196983
H	 -1.244794	 1.469161	 -0.069059
H	 -0.685100	 0.604721	 1.352683
H	 -0.933408	 -1.297830	 0.014544

	symmetry c1
}
set optking {
	frozen_dihedral = ("
		5 3 4 7
	")
}

ee,wfn = optimize('scf', return_wfn=True)
oeprop( wfn, 'DIPOLE', 'QUADRUPOLE', 'MULLIKEN_CHARGES')
f=open( 'psi4out.xyz', 'w' )
f.write( "10  " )
f.write( str(ee) + "\n" )
f.write( MOL.save_string_xyz() )
f.close()
--------------------------------------------------------------------------

    Molecular point group: c1
  Charge       = 0
  Multiplicity = 1
  Basis Set: CC-PVTZ
  Basis Set:
  @DF-RHF Final Energy:  -229.01742024831762
    Total Energy =                       -229.0174202483176771
    Molecular point group: c1
  Basis Set: CC-PVTZ
  Basis Set:
  Basis Set: CC-PVTZ
  Basis Set:
  @DF-RHF Final Energy:  -229.01846791035885
    Total Energy =                       -229.0184679103588792
  Basis Set: CC-PVTZ
  Basis Set:
  Basis Set: CC-PVTZ
  Basis Set:
  @DF-RHF Final Energy:  -229.01890610518882
    Total Energy =                       -229.0189061051888473
  Basis Set: CC-PVTZ
  Basis Set:
  Basis Set: CC-PVTZ
  Basis Set:
  @DF-RHF Final Energy:  -229.01898776151970
    Total Energy =                       -229.0189877615195826
  Basis Set: CC-PVTZ
  Basis Set:
  Basis Set: CC-PVTZ
  Basis Set:
  @DF-RHF Final Energy:  -229.01902364286329
    Total Energy =                       -229.0190236428633170
  Basis Set: CC-PVTZ
  Basis Set:
  Basis Set: CC-PVTZ
  Basis Set:
  @DF-RHF Final Energy:  -229.01902700298550
    Total Energy =                       -229.0190270029854673
  Basis Set: CC-PVTZ
  Basis Set:
  Charge       = 0
  Multiplicity = 1
  Basis Set: CC-PVTZ
  Basis Set:

    Orbital Energies (a.u.)
    -----------------------

    Doubly Occupied:

       1A    -20.552272     2A    -20.549113     3A    -11.271734
       4A    -11.267972     5A     -1.376305     6A     -1.361526
       7A     -0.997909     8A     -0.848231     9A     -0.717453
      10A     -0.695883    11A     -0.643437    12A     -0.596402
      13A     -0.583883    14A     -0.534276    15A     -0.489221
      16A     -0.446055    17A     -0.439084

  @DF-RHF Final Energy:  -229.01902741629868

   => Energetics <=

    Nuclear Repulsion Energy =            131.6586859942696606
    One-Electron Energy =                -574.6139098221201493
    Two-Electron Energy =                 213.9361964115517765
    DFT Exchange-Correlation Energy =       0.0000000000000000
    Empirical Dispersion Energy =           0.0000000000000000
    PCM Polarization Energy =               0.0000000000000000
    EFP Energy =                            0.0000000000000000
    Total Energy =                       -229.0190274162987123
    Molecular point group: c1
  Basis Set: CC-PVTZ
  Basis Set:

  -Total Gradient:
     Atom            X                  Y                   Z
    ------   -----------------  -----------------  -----------------
       1       -0.000000451199     0.000010021603     0.000004591175
       2        0.000001541505    -0.000045034490     0.000015485829
       3        0.000028502991     0.002360872337     0.000153061355
       4       -0.000656745218     0.000704540438    -0.001753450385
       5        0.000130240898    -0.002124430683     0.000246852510
       6        0.000000988818    -0.000007889630     0.000008753403
       7        0.000475065068    -0.000904248285     0.001355794756
       8        0.000002743755    -0.000004325907    -0.000009063117
       9       -0.000003922900     0.000007169332     0.000003585169
      10        0.000022036283     0.000003325282    -0.000025610696

  **** Optimization is complete! (in 7 steps) ****
    Final optimized geometry and variables:
    Molecular point group: c1

    Geometry (in Angstrom), charge = 0, multiplicity = 1:

    H            1.852705373221     1.072045956217    -1.207462409076
    O            0.988762629558     1.072380467889    -0.838403252765
    C            0.862813172149     0.038745939845     0.099123199732
    C           -0.570868352897     0.014723776195     0.630524654005
    H            1.566643061470     0.173736178260     0.916640432841
    H            1.075022922831    -0.923096681334    -0.359432745605
    O           -1.322557914754    -1.074236092973     0.168775424180
    H           -1.072762011858     0.907214570036     0.289637429265
    H           -0.565973554583     0.028861128591     1.716458416934
    H           -1.034199333689    -1.865965783752     0.583846458347

  Mulliken Charges: (a.u.)
   Center  Symbol    Alpha    Beta     Spin     Total
       1     H     0.39417  0.39417  0.00000  0.21165
       2     O     4.19609  4.19609  0.00000 -0.39217
       3     C     2.96363  2.96363  0.00000  0.07273
       4     C     2.97410  2.97410  0.00000  0.05179
       5     H     0.47825  0.47825  0.00000  0.04351
       6     H     0.47752  0.47752  0.00000  0.04496
       7     O     4.19906  4.19906  0.00000 -0.39812
       8     H     0.44995  0.44995  0.00000  0.10009
       9     H     0.47109  0.47109  0.00000  0.05783
      10     H     0.39614  0.39614  0.00000  0.20773

   Total alpha = 17.00000, Total beta = 17.00000, Total charge = -0.00000

*** Psi4 exiting successfully. Buy a developer a beer!
