  ==> Input File <==

--------------------------------------------------------------------------
set {
	reference rhf
	basis 6-31G*
}

set_num_threads( 4 )
memory 2 gb

molecule MOL {
0 1

H	 -2.698709	 -0.000305	 0.034435
C	 -1.693833	 0.000034	 0.434417
O	 -0.828952	 -0.000968	 -0.659236
H	 -1.574200	 0.882896	 1.055746
H	 -1.574147	 -0.881698	 1.057355
C	 0.212903	 0.946508	 -0.695736
C	 -0.303769	 2.381903	 -0.770626
C	 1.221972	 0.750930	 0.434081
H	 0.714379	 0.725242	 -1.630399
H	 -1.053584	 2.471666	 -1.549259
H	 0.512393	 3.058333	 -1.004202
H	 -0.741489	 2.710588	 0.166673
H	 1.527633	 -0.288266	 0.489767
H	 2.104626	 1.356158	 0.252183
H	 0.820081	 1.042487	 1.399129

	symmetry c1
}
set optking {
	frozen_dihedral = ("
		6 3 2 1
	")
}

ee = optimize('scf')
oeprop('DIPOLE', 'QUADRUPOLE', 'MULLIKEN_CHARGES')
f=open( 'psi4out.xyz', 'w' )
f.write( "15  " )
f.write( str(ee) + "\n" )
f.write( MOL.save_string_xyz() )
f.close()
--------------------------------------------------------------------------

    Molecular point group: c1
  Charge       = 0
  Multiplicity = 1
  Basis Set: 6-31G*
  Basis Set:
  @DF-RHF Final Energy:  -232.13497410025698
    Total Energy =                       -232.1349741002569544
    Molecular point group: c1
  Basis Set: 6-31G*
  Basis Set:
  Basis Set: 6-31G*
  Basis Set:
  @DF-RHF Final Energy:  -232.13501398819761
    Total Energy =                       -232.1350139881974997
  Basis Set: 6-31G*
  Basis Set:
  Basis Set: 6-31G*
  Basis Set:
  @DF-RHF Final Energy:  -232.13546489449510
    Total Energy =                       -232.1354648944951009
  Basis Set: 6-31G*
  Basis Set:
  Basis Set: 6-31G*
  Basis Set:
  @DF-RHF Final Energy:  -232.13551373342546
    Total Energy =                       -232.1355137334254550
  Basis Set: 6-31G*
  Basis Set:
  Basis Set: 6-31G*
  Basis Set:
  @DF-RHF Final Energy:  -232.13552584625572
    Total Energy =                       -232.1355258462556890
  Basis Set: 6-31G*
  Basis Set:
  Basis Set: 6-31G*
  Basis Set:
  @DF-RHF Final Energy:  -232.13553023268548
    Total Energy =                       -232.1355302326854826
  Basis Set: 6-31G*
  Basis Set:
  Charge       = 0
  Multiplicity = 1
  Basis Set: 6-31G*
  Basis Set:

    Orbital Energies (a.u.)
    -----------------------

    Doubly Occupied:

       1A    -20.545881     2A    -11.274967     3A    -11.261476
       4A    -11.210707     5A    -11.210208     6A     -1.367964
       7A     -1.049931     8A     -0.939810     9A     -0.931434
      10A     -0.781607    11A     -0.675538    12A     -0.638556
      13A     -0.631958    14A     -0.569059    15A     -0.563749
      16A     -0.552218    17A     -0.538414    18A     -0.500618
      19A     -0.497941    20A     -0.441646    21A     -0.403091

  @DF-RHF Final Energy:  -232.13553054696078

   => Energetics <=

    Nuclear Repulsion Energy =            198.6218200371716023
    One-Electron Energy =                -708.3411543338779666
    Two-Electron Energy =                 277.5838037497457549
    DFT Exchange-Correlation Energy =       0.0000000000000000
    Empirical Dispersion Energy =           0.0000000000000000
    PCM Polarization Energy =               0.0000000000000000
    EFP Energy =                            0.0000000000000000
    Total Energy =                       -232.1355305469606378
    Molecular point group: c1
  Basis Set: 6-31G*
  Basis Set:

  -Total Gradient:
     Atom            X                  Y                   Z
    ------   -----------------  -----------------  -----------------
       1       -0.000012215037     0.001115035682     0.000066021820
       2       -0.000352731577    -0.001084408278    -0.000276649547
       3        0.000863618444    -0.000657438694     0.000628837499
       4       -0.000003585342    -0.000028039124    -0.000009336268
       5        0.000022343004     0.000005503725    -0.000005229986
       6       -0.000584282627     0.000617749825    -0.000358449015
       7        0.000012999204     0.000019175996    -0.000021351032
       8        0.000045731279     0.000009251695    -0.000018962461
       9       -0.000001091882     0.000002189795     0.000006278592
      10       -0.000003636354     0.000006979339    -0.000001222316
      11       -0.000003075947     0.000003289699    -0.000001103501
      12        0.000005532915    -0.000000938969    -0.000010524443
      13        0.000002022598    -0.000002354950     0.000006919583
      14        0.000006591204    -0.000004918086     0.000012035937
      15        0.000001780120    -0.000001077653    -0.000017264863

  **** Optimization is complete! (in 7 steps) ****
    Final optimized geometry and variables:
    Molecular point group: c1

    Geometry (in Angstrom), charge = 0, multiplicity = 1:

    H           -2.419441334731    -0.799031268338     0.343226040791
    C           -1.392017739869    -0.820888872648     0.687966973788
    O           -0.544345124542    -0.795754762274    -0.423892444229
    H           -1.247247319516     0.024102431202     1.350647485501
    H           -1.233277537661    -1.730108531663     1.258986596181
    C            0.510857430676     0.135779508990    -0.463133586009
    C            0.008159392335     1.574808012088    -0.558732680560
    C            1.508520077448    -0.068792033968     0.674893354758
    H            1.015308413917    -0.099714972045    -1.392591759450
    H           -0.706602587487     1.666181976404    -1.369134993053
    H            0.836031435329     2.249084411776    -0.755653654511
    H           -0.471144460489     1.905229618624     0.357320341889
    H            1.830647333799    -1.103915097474     0.707876320015
    H            2.383674692505     0.556082228629     0.525792871229
    H            1.084185741989     0.186900321461     1.640853574374

  Mulliken Charges: (a.u.)
   Center  Symbol    Alpha    Beta     Spin     Total
       1     H     0.41837  0.41837  0.00000  0.16325
       2     C     3.07882  3.07882  0.00000 -0.15764
       3     O     4.31533  4.31533  0.00000 -0.63066
       4     H     0.42991  0.42991  0.00000  0.14018
       5     H     0.42241  0.42241  0.00000  0.15518
       6     C     2.90997  2.90997  0.00000  0.18006
       7     C     3.25050  3.25050  0.00000 -0.50100
       8     C     3.25178  3.25178  0.00000 -0.50355
       9     H     0.41549  0.41549  0.00000  0.16902
      10     H     0.41155  0.41155  0.00000  0.17690
      11     H     0.42032  0.42032  0.00000  0.15935
      12     H     0.42214  0.42214  0.00000  0.15573
      13     H     0.41172  0.41172  0.00000  0.17657
      14     H     0.41968  0.41968  0.00000  0.16065
      15     H     0.42201  0.42201  0.00000  0.15597

   Total alpha = 21.00000, Total beta = 21.00000, Total charge = -0.00000
