  ==> Input File <==

--------------------------------------------------------------------------
set {
	reference rhf
	basis 6-31G*
}

set_num_threads( 4 )
memory 2 gb

molecule MOL {
0 1

O	 -1.276010	 1.052711	 -0.768302
C	 -1.204840	 0.067374	 -0.106123
C	 -2.388195	 -0.672128	 0.458071
O	 -0.067104	 -0.527208	 0.221609
H	 -2.388023	 -1.694060	 0.097175
H	 -3.300579	 -0.174919	 0.164318
H	 -2.315377	 -0.706351	 1.539059
C	 1.170111	 0.034140	 -0.238951
C	 1.985333	 0.326173	 1.008333
C	 0.892300	 1.275046	 -1.072989
H	 1.666710	 -0.709522	 -0.844644
H	 2.146802	 -0.579985	 1.581093
H	 2.952188	 0.736106	 0.735426
H	 1.474428	 1.044073	 1.640985
H	 1.825793	 1.717839	 -1.405465
H	 0.306153	 1.025962	 -1.948411
H	 0.353533	 2.012890	 -0.487049

	symmetry c1
}
set optking {
	frozen_dihedral = ("
		11 8 4 2
	")
}

ee = optimize('scf')
oeprop('DIPOLE', 'QUADRUPOLE', 'MULLIKEN_CHARGES')
f=open( 'psi4out.xyz', 'w' )
f.write( "17  " )
f.write( str(ee) + "\n" )
f.write( MOL.save_string_xyz() )
f.close()
--------------------------------------------------------------------------

    Molecular point group: c1
  Charge       = 0
  Multiplicity = 1
  Basis Set: 6-31G*
  Basis Set:
  @DF-RHF Final Energy:  -344.86726863246378
    Total Energy =                       -344.8672686324634356
    Molecular point group: c1
  Basis Set: 6-31G*
  Basis Set:
  Basis Set: 6-31G*
  Basis Set:
  @DF-RHF Final Energy:  -344.89458289995832
    Total Energy =                       -344.8945828999583227
  Basis Set: 6-31G*
  Basis Set:
  Basis Set: 6-31G*
  Basis Set:
  @DF-RHF Final Energy:  -344.90030819560860
    Total Energy =                       -344.9003081956086021
  Basis Set: 6-31G*
  Basis Set:
  Basis Set: 6-31G*
  Basis Set:
  @DF-RHF Final Energy:  -344.89848061158062
    Total Energy =                       -344.8984806115805668
  Basis Set: 6-31G*
  Basis Set:
  Basis Set: 6-31G*
  Basis Set:
  @DF-RHF Final Energy:  -344.90258461709783
    Total Energy =                       -344.9025846170981140
  Basis Set: 6-31G*
  Basis Set:
  Basis Set: 6-31G*
  Basis Set:
  @DF-RHF Final Energy:  -344.90291706109906
    Total Energy =                       -344.9029170610992310
  Basis Set: 6-31G*
  Basis Set:
  Basis Set: 6-31G*
  Basis Set:
  @DF-RHF Final Energy:  -344.90293138734842
    Total Energy =                       -344.9029313873487581
  Basis Set: 6-31G*
  Basis Set:
  Charge       = 0
  Multiplicity = 1
  Basis Set: 6-31G*
  Basis Set:

    Orbital Energies (a.u.)
    -----------------------

    Doubly Occupied:

       1A    -20.596023     2A    -20.538351     3A    -11.375125
       4A    -11.297679     5A    -11.229060     6A    -11.220075
       7A    -11.212610     8A     -1.457784     9A     -1.360741
      10A     -1.080317    11A     -1.001665    12A     -0.946018
      13A     -0.865046    14A     -0.740081    15A     -0.686430
      16A     -0.676790    17A     -0.656276    18A     -0.613563
      19A     -0.584118    20A     -0.579266    21A     -0.562102
      22A     -0.548468    23A     -0.535746    24A     -0.515330
      25A     -0.507373    26A     -0.482691    27A     -0.436757
      28A     -0.427722

  @DF-RHF Final Energy:  -344.90293207076053

   => Energetics <=

    Nuclear Repulsion Energy =            323.4769640641267756
    One-Electron Energy =               -1111.2933772425385541
    Two-Electron Energy =                 442.9134811076511369
    DFT Exchange-Correlation Energy =       0.0000000000000000
    Empirical Dispersion Energy =           0.0000000000000000
    PCM Polarization Energy =               0.0000000000000000
    EFP Energy =                            0.0000000000000000
    Total Energy =                       -344.9029320707605848
    Molecular point group: c1
  Basis Set: 6-31G*
  Basis Set:

  -Total Gradient:
     Atom            X                  Y                   Z
    ------   -----------------  -----------------  -----------------
       1       -0.000072763000     0.000146900173    -0.000085678017
       2        0.000133775598    -0.000285110733    -0.000421627776
       3       -0.000006790947    -0.000012478980    -0.000032025759
       4        0.000200890657     0.000312349059     0.000540069537
       5        0.000001060048     0.000012870118     0.000022004350
       6       -0.000014467593    -0.000012240664     0.000018248521
       7       -0.000011278490     0.000011917981     0.000004967835
       8        0.000175115914    -0.000272256824     0.000199656581
       9       -0.000032503652     0.000005768498     0.000019884430
      10       -0.000073309079     0.000028217026     0.000104690848
      11       -0.000259194064     0.000142248751    -0.000333881708
      12        0.000001418572    -0.000001825778     0.000016007477
      13       -0.000022947387    -0.000022945659    -0.000003884769
      14        0.000005390089     0.000001683944    -0.000005144629
      15        0.000037574705    -0.000016982356    -0.000053529581
      16       -0.000075215804    -0.000045654172    -0.000042658958
      17        0.000013244440     0.000007539617     0.000052901620

  **** Optimization is complete! (in 8 steps) ****
    Final optimized geometry and variables:
    Molecular point group: c1

    Geometry (in Angstrom), charge = 0, multiplicity = 1:

    O           -1.412442855038     0.802367406172    -0.646144918404
    C           -1.163717662851    -0.176830409575    -0.021519602402
    C           -2.211654010152    -1.063671703720     0.602781531495
    O            0.043912197876    -0.652034559482     0.238801985125
    H           -2.121821693313    -2.070085912109     0.210718145141
    H           -3.193533194793    -0.668658625700     0.388368408669
    H           -2.057631351275    -1.114537185805     1.674440520085
    C            1.316427827775    -0.131516943847    -0.191931576712
    C            2.131794885733     0.074256014602     1.075684355009
    C            1.302241872870     1.111072249900    -1.073372884914
    H            1.744591292488    -0.946465732735    -0.762323365454
    H            2.136527582295    -0.827352595310     1.676785571153
    H            3.157153304312     0.328267915102     0.827790292075
    H            1.712897754628     0.880521552065     1.669119745100
    H            2.333373263494     1.318583097761    -1.345945221696
    H            0.733052599411     0.963736441392    -1.979128739562
    H            0.901969346420     1.972994959283    -0.558209488490

  Mulliken Charges: (a.u.)
   Center  Symbol    Alpha    Beta     Spin     Total
       1     O     4.28251  4.28251  0.00000 -0.56502
       2     C     2.61936  2.61936  0.00000  0.76129
       3     C     3.27987  3.27987  0.00000 -0.55974
       4     O     4.32309  4.32309  0.00000 -0.64617
       5     H     0.40219  0.40219  0.00000  0.19562
       6     H     0.39855  0.39855  0.00000  0.20290
       7     H     0.40212  0.40212  0.00000  0.19576
       8     C     2.91410  2.91410  0.00000  0.17180
       9     C     3.24251  3.24251  0.00000 -0.48503
      10     C     3.24644  3.24644  0.00000 -0.49288
      11     H     0.41306  0.41306  0.00000  0.17389
      12     H     0.41052  0.41052  0.00000  0.17897
      13     H     0.41849  0.41849  0.00000  0.16303
      14     H     0.41489  0.41489  0.00000  0.17022
      15     H     0.42287  0.42287  0.00000  0.15425
      16     H     0.40282  0.40282  0.00000  0.19436
      17     H     0.40662  0.40662  0.00000  0.18675

   Total alpha = 28.00000, Total beta = 28.00000, Total charge =  0.00000
