  ==> Input File <==

--------------------------------------------------------------------------
set {
	reference rhf
	basis cc-pvtz
}

set_num_threads( 4 )
memory 2 gb

molecule MOL {
0 1

H	 -2.362939	 -1.309000	 -0.383250
C	 -1.359344	 -1.272457	 0.020748
C	 -0.684082	 0.000127	 -0.464918
H	 -0.825835	 -2.151141	 -0.318537
H	 -1.416276	 -1.292399	 1.099455
C	 -1.359089	 1.272668	 0.021259
N	 0.742439	 -0.000109	 0.007333
H	 -0.596914	 0.000345	 -1.538146
H	 -2.362696	 1.309620	 -0.382686
H	 -0.825392	 2.151374	 -0.317674
H	 -1.415983	 1.292181	 1.099973
O	 1.046641	 0.805821	 0.820710
O	 1.473905	 -0.806324	 -0.463055

	symmetry c1
}
set optking {
	frozen_dihedral = ("
		12 7 3 8
	")
}

ee = optimize('scf')
oeprop('DIPOLE', 'QUADRUPOLE', 'MULLIKEN_CHARGES')
f=open( 'psi4out.xyz', 'w' )
f.write( "13  " )
f.write( str(ee) + "\n" )
f.write( MOL.save_string_xyz() )
f.close()
--------------------------------------------------------------------------

    Molecular point group: c1
  Charge       = 0
  Multiplicity = 1
  Basis Set: CC-PVTZ
  Basis Set:
  @DF-RHF Final Energy:  -321.86265675124093
    Total Energy =                       -321.8626567512410475
    Molecular point group: c1
  Basis Set: CC-PVTZ
  Basis Set:
  Basis Set: CC-PVTZ
  Basis Set:
  @DF-RHF Final Energy:  -321.86310016366861
    Total Energy =                       -321.8631001636688325
  Basis Set: CC-PVTZ
  Basis Set:
  Basis Set: CC-PVTZ
  Basis Set:
  @DF-RHF Final Energy:  -321.86347275479642
    Total Energy =                       -321.8634727547962484
  Basis Set: CC-PVTZ
  Basis Set:
  Basis Set: CC-PVTZ
  Basis Set:
  @DF-RHF Final Energy:  -321.86228512545006
    Total Energy =                       -321.8622851254500574
  Basis Set: CC-PVTZ
  Basis Set:
  Basis Set: CC-PVTZ
  Basis Set:
  @DF-RHF Final Energy:  -321.86348157287676
    Total Energy =                       -321.8634815728766512
  Basis Set: CC-PVTZ
  Basis Set:
  Charge       = 0
  Multiplicity = 1
  Basis Set: CC-PVTZ
  Basis Set:

    Orbital Energies (a.u.)
    -----------------------

    Doubly Occupied:

       1A    -20.591452     2A    -20.585764     3A    -15.833308
       4A    -11.305667     5A    -11.243633     6A    -11.237721
       7A     -1.634292     8A     -1.418267     9A     -1.141260
      10A     -0.970715    11A     -0.957700    12A     -0.815638
      13A     -0.760174    14A     -0.730555    15A     -0.724937
      16A     -0.644967    17A     -0.593124    18A     -0.588050
      19A     -0.570852    20A     -0.526823    21A     -0.521653
      22A     -0.484622    23A     -0.472018    24A     -0.451368

  @DF-RHF Final Energy:  -321.86348856020305

   => Energetics <=

    Nuclear Repulsion Energy =            257.3567254930968033
    One-Electron Energy =                -948.8313075591119059
    Two-Electron Energy =                 369.6110935058120504
    DFT Exchange-Correlation Energy =       0.0000000000000000
    Empirical Dispersion Energy =           0.0000000000000000
    PCM Polarization Energy =               0.0000000000000000
    EFP Energy =                            0.0000000000000000
    Total Energy =                       -321.8634885602029954
    Molecular point group: c1
  Basis Set: CC-PVTZ
  Basis Set:

  -Total Gradient:
     Atom            X                  Y                   Z
    ------   -----------------  -----------------  -----------------
       1       -0.000004397466     0.000004692411    -0.000005243767
       2        0.000086684244     0.000079425337    -0.000029027086
       3        0.000012153981    -0.001148434651    -0.000329012065
       4       -0.000005019398    -0.000019931804     0.000010812098
       5        0.000006995154     0.000015993502    -0.000010300020
       6       -0.000014089895     0.000044249492     0.000047626404
       7       -0.000529802599    -0.000967552325     0.001002841079
       8        0.000008337277     0.001188558109    -0.000003960413
       9       -0.000012867864    -0.000007260584    -0.000008806109
      10        0.000004212609    -0.000019122698     0.000003894009
      11       -0.000003784644     0.000010116737     0.000004610951
      12        0.000405559466     0.000662747084    -0.000894681468
      13        0.000046019136     0.000156519388     0.000211246387

  **** Optimization is complete! (in 6 steps) ****
    Final optimized geometry and variables:
    Molecular point group: c1

    Geometry (in Angstrom), charge = 0, multiplicity = 1:

    H           -2.371529471270    -1.276844980052    -0.352234572859
    C           -1.355667410376    -1.255673368072     0.019773166553
    C           -0.684925032228     0.027400232690    -0.452211446266
    H           -0.832992282588    -2.125919357459    -0.346594401450
    H           -1.389830252141    -1.292860983848     1.101914599174
    C           -1.388353403166     1.287125081420     0.011551278095
    N            0.748510351755    -0.002831378441     0.014714088343
    H           -0.589534390337     0.021688156637    -1.527647290832
    H           -2.380894746424     1.297879763395    -0.422082357299
    H           -0.864111131887     2.175223621066    -0.310007739632
    H           -1.480216574916     1.315946567149     1.087647984877
    O            1.101914354781     0.786633767618     0.822457465509
    O            1.439677970736    -0.835561124679    -0.471119371975

  Mulliken Charges: (a.u.)
   Center  Symbol    Alpha    Beta     Spin     Total
       1     H     0.44907  0.44907  0.00000  0.10187
       2     C     3.14395  3.14395  0.00000 -0.28790
       3     C     3.00706  3.00706  0.00000 -0.01411
       4     H     0.43247  0.43247  0.00000  0.13506
       5     H     0.44551  0.44551  0.00000  0.10897
       6     C     3.14269  3.14269  0.00000 -0.28538
       7     N     3.27480  3.27480  0.00000  0.45040
       8     H     0.42831  0.42831  0.00000  0.14337
       9     H     0.45023  0.45023  0.00000  0.09954
      10     H     0.43828  0.43828  0.00000  0.12344
      11     H     0.44159  0.44159  0.00000  0.11681
      12     O     4.16991  4.16991  0.00000 -0.33982
      13     O     4.17612  4.17612  0.00000 -0.35224

   Total alpha = 24.00000, Total beta = 24.00000, Total charge = -0.00000
