  ==> Input File <==

--------------------------------------------------------------------------
set {
	reference rhf
	basis 6-31G*
}

set_num_threads( 4 )
memory 2 gb

molecule MOL {
0 1

O	 3.225979	 0.970355	 -0.599647
C	 2.701189	 0.057885	 -0.047330
C	 1.245376	 -0.013843	 0.345420
O	 3.347903	 -1.046386	 0.304773
C	 0.455112	 1.231400	 -0.050772
H	 0.838542	 -0.913825	 -0.103701
H	 1.208210	 -0.175333	 1.419774
C	 -0.998893	 1.219485	 0.433193
H	 0.482531	 1.345121	 -1.130325
H	 0.957290	 2.103070	 0.354729
C	 -1.883438	 0.145884	 -0.207175
H	 -1.431207	 2.195402	 0.224832
H	 -1.019646	 1.105716	 1.516076
C	 -3.347647	 0.245583	 0.225435
H	 -1.822183	 0.231698	 -1.291012
H	 -1.510341	 -0.844814	 0.042401
C	 -4.239992	 -0.825570	 -0.404234
H	 -3.732888	 1.230466	 -0.033079
H	 -3.408585	 0.170602	 1.310038
C	 -3.655982	 -1.409339	 -1.690254
H	 -4.402337	 -1.626424	 0.314042
H	 -5.219574	 -0.400891	 -0.613631
H	 -4.310910	 -2.165240	 -2.112497
H	 -2.690715	 -1.873000	 -1.507295
H	 -3.513716	 -0.637856	 -2.441817
C	 4.728119	 -1.109107	 -0.004993
H	 4.882018	 -1.033965	 -1.071845
H	 5.068212	 -2.067527	 0.355250
H	 5.265056	 -0.311663	 0.488280

	symmetry c1
}
set optking {
	frozen_dihedral = ("
		21 17 14 11
	")
}

ee = optimize('scf')
oeprop('DIPOLE', 'QUADRUPOLE', 'MULLIKEN_CHARGES')
f=open( 'psi4out.xyz', 'w' )
f.write( "29  " )
f.write( str(ee) + "\n" )
f.write( MOL.save_string_xyz() )
f.close()
--------------------------------------------------------------------------

    Molecular point group: c1
  Charge       = 0
  Multiplicity = 1
  Basis Set: 6-31G*
  Basis Set:
  @DF-RHF Final Energy:  -501.03359710355494
    Total Energy =                       -501.0335971035548255
    Molecular point group: c1
  Basis Set: 6-31G*
  Basis Set:
  Basis Set: 6-31G*
  Basis Set:
  @DF-RHF Final Energy:  -501.03430407930614
    Total Energy =                       -501.0343040793063665
  Basis Set: 6-31G*
  Basis Set:
  Basis Set: 6-31G*
  Basis Set:
  @DF-RHF Final Energy:  -501.03664492165717
    Total Energy =                       -501.0366449216569436
  Basis Set: 6-31G*
  Basis Set:
  Basis Set: 6-31G*
  Basis Set:
  @DF-RHF Final Energy:  -501.03689403239912
    Total Energy =                       -501.0368940323999141
  Basis Set: 6-31G*
  Basis Set:
  @DF-RHF Final Energy:  -501.03691159563220
    Total Energy =                       -501.0369115956325459
  @DF-RHF Final Energy:  -501.03689765671425
    Total Energy =                       -501.0368976567135633
  Basis Set: 6-31G*
  Basis Set:
  @DF-RHF Final Energy:  -501.03692665409949
    Total Energy =                       -501.0369266540993749
  Basis Set: 6-31G*
  Basis Set:
  Basis Set: 6-31G*
  Basis Set:
  @DF-RHF Final Energy:  -501.03692043692001
    Total Energy =                       -501.0369204369194449
  Basis Set: 6-31G*
  Basis Set:
  Basis Set: 6-31G*
  Basis Set:
  @DF-RHF Final Energy:  -501.03692719549167
    Total Energy =                       -501.0369271954915575
  Basis Set: 6-31G*
  Basis Set:
  Charge       = 0
  Multiplicity = 1
  Basis Set: 6-31G*
  Basis Set:

    Orbital Energies (a.u.)
    -----------------------

    Doubly Occupied:

       1A    -20.603305     2A    -20.545123     3A    -11.371925
       4A    -11.280609     5A    -11.234631     6A    -11.218931
       7A    -11.217382     8A    -11.216257     9A    -11.215487
      10A    -11.214828    11A    -11.209548    12A     -1.468996
      13A     -1.362436    14A     -1.097280    15A     -1.064325
      16A     -1.017443    17A     -0.975575    18A     -0.928186
      19A     -0.873632    20A     -0.804593    21A     -0.774282
      22A     -0.763102    23A     -0.700347    24A     -0.682219
      25A     -0.672061    26A     -0.647560    27A     -0.626823
      28A     -0.603501    29A     -0.601095    30A     -0.586933
      31A     -0.557812    32A     -0.549701    33A     -0.541904
      34A     -0.525542    35A     -0.519975    36A     -0.504390
      37A     -0.503435    38A     -0.477727    39A     -0.472504
      40A     -0.458485    41A     -0.455358    42A     -0.446643
      43A     -0.442218    44A     -0.435790

  @DF-RHF Final Energy:  -501.03692707961409

   => Energetics <=

    Nuclear Repulsion Energy =            617.6127635043717419
    One-Electron Energy =               -1906.3595841415385621
    Two-Electron Energy =                 787.7098935575529595
    DFT Exchange-Correlation Energy =       0.0000000000000000
    Empirical Dispersion Energy =           0.0000000000000000
    PCM Polarization Energy =               0.0000000000000000
    EFP Energy =                            0.0000000000000000
    Total Energy =                       -501.0369270796138608
    Molecular point group: c1
  Basis Set: 6-31G*
  Basis Set:

  -Total Gradient:
     Atom            X                  Y                   Z
    ------   -----------------  -----------------  -----------------
       1       -0.000005532633    -0.000014165427    -0.000029576545
       2        0.000019128412     0.000032371883     0.000078092660
       3       -0.000012286669    -0.000012738878    -0.000032039120
       4       -0.000005643339    -0.000008481696    -0.000023841805
       5        0.000008852008     0.000005511835     0.000026124694
       6       -0.000021121117    -0.000011033261    -0.000000675279
       7        0.000006147693     0.000004378122    -0.000004853242
       8       -0.000015417873     0.000015834014    -0.000008544020
       9       -0.000002171541     0.000006374294     0.000004161401
      10        0.000008279178    -0.000006252473     0.000005000155
      11       -0.000809353051     0.002652258602    -0.003509989605
      12        0.000005882269     0.000000760704    -0.000006984757
      13       -0.000005520437     0.000014231612    -0.000000677262
      14        0.000076519130    -0.003096929490     0.005522762842
      15       -0.000006211619     0.000005808642    -0.000000496197
      16        0.000001561427    -0.000016298494    -0.000005082434
      17        0.005409576810    -0.002645961249    -0.004110316472
      18        0.000018006968    -0.000004813769     0.000001954065
      19        0.000003886418     0.000000536587     0.000010440229
      20       -0.000006632964     0.000009960248     0.000011984218
      21       -0.004676526883     0.003070082678     0.002074731703
      22        0.000005063239    -0.000003892019    -0.000011394415
      23       -0.000003074519    -0.000003478864     0.000002631145
      24        0.000010003440     0.000003696333     0.000008495641
      25       -0.000003405284     0.000002621862    -0.000000821526
      26        0.000000044472    -0.000000153113    -0.000000246099
      27        0.000000820925    -0.000000192455    -0.000000370131
      28        0.000000030155    -0.000000172507    -0.000000548669
      29       -0.000000904613     0.000000136278     0.000000078823

  **** Optimization is complete! (in 10 steps) ****
    Final optimized geometry and variables:
    Molecular point group: c1

    Geometry (in Angstrom), charge = 0, multiplicity = 1:

    O            3.063408125533     1.073334826227    -0.384546862458
    C            2.539742101709     0.144653014137     0.141189515890
    C            1.079459055578     0.051326181717     0.512179150020
    O            3.191882005750    -0.961093318825     0.478397106434
    C            0.282741196994     1.297105072910     0.130901434486
    H            0.687319762094    -0.842856490621     0.039065647967
    H            1.029174756019    -0.132766194976     1.582358928718
    C           -1.177484073364     1.261844392025     0.594588888151
    H            0.323785554170     1.433393781053    -0.945616494833
    H            0.771107640898     2.164827115278     0.561039733621
    C           -2.041830630295     0.190426519045    -0.077338283637
    H           -1.616784289808     2.237107660648     0.397364363877
    H           -1.211570092071     1.129270638341     1.674941460811
    C           -3.512587986207     0.294036822800     0.339877140916
    H           -1.957149662680     0.293348947415    -1.155712726308
    H           -1.662116867053    -0.798895425552     0.168476002017
    C           -4.471459540563    -0.769666047202    -0.245359874152
    H           -3.864588531992     1.279971734677     0.043267842951
    H           -3.580757077947     0.270168776553     1.424242080398
    C           -4.072067434926    -1.397732159638    -1.580464841399
    H           -4.650694300219    -1.544876602084     0.495489802098
    H           -5.443378004835    -0.299076260771    -0.374793967715
    H           -4.843532277443    -2.083889594270    -1.915987005428
    H           -3.145564406808    -1.957270573517    -1.509807506448
    H           -3.946922754691    -0.644291698304    -2.352681263810
    C            4.576653508902    -1.004747046315     0.186213443839
    H            4.744187232642    -0.905343574609    -0.876597973511
    H            4.920732977318    -1.967583926245     0.530527725676
    H            5.099492280750    -0.213288012719     0.703679440638

  Mulliken Charges: (a.u.)
   Center  Symbol    Alpha    Beta     Spin     Total
       1     O     4.28598  4.28598  0.00000 -0.57196
       2     C     2.60483  2.60483  0.00000  0.79034
       3     C     3.20964  3.20964  0.00000 -0.41927
       4     O     4.30748  4.30748  0.00000 -0.61496
       5     C     3.15355  3.15355  0.00000 -0.30710
       6     H     0.39893  0.39893  0.00000  0.20215
       7     H     0.40127  0.40127  0.00000  0.19746
       8     C     3.15667  3.15667  0.00000 -0.31335
       9     H     0.41322  0.41322  0.00000  0.17356
      10     H     0.40879  0.40879  0.00000  0.18242
      11     C     3.15791  3.15791  0.00000 -0.31582
      12     H     0.41842  0.41842  0.00000  0.16317
      13     H     0.42391  0.42391  0.00000  0.15217
      14     C     3.15372  3.15372  0.00000 -0.30743
      15     H     0.41989  0.41989  0.00000  0.16023
      16     H     0.42369  0.42369  0.00000  0.15262
      17     C     3.15450  3.15450  0.00000 -0.30900
      18     H     0.42284  0.42284  0.00000  0.15432
      19     H     0.42092  0.42092  0.00000  0.15816
      20     C     3.24203  3.24203  0.00000 -0.48406
      21     H     0.42168  0.42168  0.00000  0.15665
      22     H     0.42091  0.42091  0.00000  0.15818
      23     H     0.41875  0.41875  0.00000  0.16250
      24     H     0.42019  0.42019  0.00000  0.15962
      25     H     0.42114  0.42114  0.00000  0.15771
      26     C     3.09240  3.09240  0.00000 -0.18480
      27     H     0.40909  0.40909  0.00000  0.18183
      28     H     0.40853  0.40853  0.00000  0.18295
      29     H     0.40913  0.40913  0.00000  0.18173

   Total alpha = 44.00000, Total beta = 44.00000, Total charge = -0.00000
