  ==> Input File <==

--------------------------------------------------------------------------
set {
	reference rhf
	basis cc-pvtz
}

set_num_threads( 4 )
memory 2 gb

molecule MOL {
0 1

H	 -0.000105	 1.988529	 0.748933
O	 -0.000098	 1.879786	 -0.188206
C	 -0.000014	 0.545691	 -0.532416
C	 -0.575019	 -0.294363	 0.609274
C	 1.395233	 0.118790	 -0.991563
H	 -0.660704	 0.420984	 -1.377756
F	 -1.801580	 0.093920	 0.857559
F	 -0.608177	 -1.570715	 0.320243
F	 0.123122	 -0.142315	 1.714196
F	 1.749379	 0.838527	 -2.027621
F	 1.439495	 -1.141333	 -1.343480
F	 2.290226	 0.312131	 -0.046585

	symmetry c1
}
set optking {
	frozen_dihedral = ("
		6 3 2 1
	")
}

ee = optimize('scf')
oeprop('DIPOLE', 'QUADRUPOLE', 'MULLIKEN_CHARGES')
f=open( 'psi4out.xyz', 'w' )
f.write( "12  " )
f.write( str(ee) + "\n" )
f.write( MOL.save_string_xyz() )
f.close()
--------------------------------------------------------------------------

    Molecular point group: c1
  Charge       = 0
  Multiplicity = 1
  Basis Set: CC-PVTZ
  Basis Set:
  @DF-RHF Final Energy:  -786.58651614248640
    Total Energy =                       -786.5865161424869711
    Molecular point group: c1
  Basis Set: CC-PVTZ
  Basis Set:
  Basis Set: CC-PVTZ
  Basis Set:
  @DF-RHF Final Energy:  -786.58688894387637
    Total Energy =                       -786.5868889438759197
  Basis Set: CC-PVTZ
  Basis Set:
  Basis Set: CC-PVTZ
  Basis Set:
  @DF-RHF Final Energy:  -786.58696505381693
    Total Energy =                       -786.5869650538174938
  Basis Set: CC-PVTZ
  Basis Set:
  Basis Set: CC-PVTZ
  Basis Set:
  @DF-RHF Final Energy:  -786.58697470820198
    Total Energy =                       -786.5869747082022059
  Basis Set: CC-PVTZ
  Basis Set:
  Charge       = 0
  Multiplicity = 1
  Basis Set: CC-PVTZ
  Basis Set:

    Orbital Energies (a.u.)
    -----------------------

    Doubly Occupied:

       1A    -26.364486     2A    -26.363223     3A    -26.360395
       4A    -26.352163     5A    -26.351872     6A    -26.348790
       7A    -20.608200     8A    -11.526406     9A    -11.514704
      10A    -11.351760    11A     -1.776205    12A     -1.763219
      13A     -1.672397    14A     -1.668140    15A     -1.659107
      16A     -1.657058    17A     -1.437723    18A     -1.104387
      19A     -1.002862    20A     -0.944979    21A     -0.874688
      22A     -0.869480    23A     -0.862324    24A     -0.850247
      25A     -0.839260    26A     -0.815435    27A     -0.751341
      28A     -0.738747    29A     -0.728075    30A     -0.725262
      31A     -0.701051    32A     -0.696734    33A     -0.691617
      34A     -0.679069    35A     -0.674277    36A     -0.673379
      37A     -0.660457    38A     -0.657893    39A     -0.623060
      40A     -0.551859    41A     -0.508622

  @DF-RHF Final Energy:  -786.58697582641173

   => Energetics <=

    Nuclear Repulsion Energy =            670.9905152282261724
    One-Electron Energy =               -2429.1530726269934348
    Two-Electron Energy =                 971.5755815723555315
    DFT Exchange-Correlation Energy =       0.0000000000000000
    Empirical Dispersion Energy =           0.0000000000000000
    PCM Polarization Energy =               0.0000000000000000
    EFP Energy =                            0.0000000000000000
    Total Energy =                       -786.5869758264116172
    Molecular point group: c1
  Basis Set: CC-PVTZ
  Basis Set:

  -Total Gradient:
     Atom            X                  Y                   Z
    ------   -----------------  -----------------  -----------------
       1       -0.003282489557     0.000010072510     0.000100316190
       2        0.003534963107    -0.000089249156     0.000346904914
       3        0.001833091299     0.000592497086    -0.002214405538
       4        0.000107413966     0.000032332591     0.000140698031
       5        0.000124762207    -0.000191615020    -0.000039652394
       6       -0.002087714427    -0.000398392242     0.001801189937
       7        0.000000408015    -0.000002350046    -0.000044931974
       8       -0.000035584608    -0.000093159883    -0.000088734906
       9        0.000003255663     0.000056551262    -0.000034474869
      10       -0.000045149649     0.000072981974    -0.000007549870
      11       -0.000058983889    -0.000062010011    -0.000012940360
      12       -0.000093972125     0.000072340945     0.000053580834

  **** Optimization is complete! (in 5 steps) ****
    Final optimized geometry and variables:
    Molecular point group: c1

    Geometry (in Angstrom), charge = 0, multiplicity = 1:

    H           -0.383906860586     1.984195287261     0.870062656052
    O           -0.405831517335     1.846229778323    -0.061136271653
    C           -0.421300462973     0.504768759831    -0.387522850454
    C           -0.980764845564    -0.330096421431     0.764218850124
    C            0.972825122074     0.078827990387    -0.848562636690
    H           -1.098468176733     0.351802083527    -1.216816036468
    F           -2.235016091820     0.003445672338     0.966930655709
    F           -0.937882713917    -1.612233009749     0.519633826165
    F           -0.331139760521    -0.100489556780     1.885834507479
    F            1.365001164771     0.863388792953    -1.820877911461
    F            0.975226940155    -1.152292652794    -1.302551716755
    F            1.855242115977     0.159785819935     0.118942391436

  Mulliken Charges: (a.u.)
   Center  Symbol    Alpha    Beta     Spin     Total
       1     H     0.38170  0.38170  0.00000  0.23661
       2     O     4.19018  4.19018  0.00000 -0.38036
       3     C     3.00074  3.00074  0.00000 -0.00149
       4     C     2.68706  2.68706  0.00000  0.62588
       5     C     2.68095  2.68095  0.00000  0.63810
       6     H     0.43160  0.43160  0.00000  0.13681
       7     F     4.60479  4.60479  0.00000 -0.20957
       8     F     4.59842  4.59842  0.00000 -0.19684
       9     F     4.61014  4.61014  0.00000 -0.22029
      10     F     4.60161  4.60161  0.00000 -0.20323
      11     F     4.60561  4.60561  0.00000 -0.21122
      12     F     4.60720  4.60720  0.00000 -0.21439

   Total alpha = 41.00000, Total beta = 41.00000, Total charge = -0.00000
