  ==> Input File <==

--------------------------------------------------------------------------
set {
	reference rhf
	basis cc-pvtz
}

set_num_threads( 4 )
memory 2 gb

molecule MOL {
0 1

H	 -2.362939	 -1.309000	 -0.383250
C	 -1.359344	 -1.272457	 0.020748
C	 -0.684082	 0.000127	 -0.464918
H	 -0.825835	 -2.151141	 -0.318537
H	 -1.416276	 -1.292399	 1.099455
C	 -1.359089	 1.272668	 0.021259
N	 0.742439	 -0.000109	 0.007333
H	 -0.596914	 0.000345	 -1.538146
H	 -2.362696	 1.309620	 -0.382686
H	 -0.825392	 2.151374	 -0.317674
H	 -1.415983	 1.292181	 1.099973
O	 1.046487	 -0.806440	 0.820370
O	 1.474140	 0.805948	 -0.462960

	symmetry c1
}
set optking {
	frozen_dihedral = ("
		12 7 3 8
	")
}

ee = optimize('scf')
oeprop('DIPOLE', 'QUADRUPOLE', 'MULLIKEN_CHARGES')
f=open( 'psi4out.xyz', 'w' )
f.write( "13  " )
f.write( str(ee) + "\n" )
f.write( MOL.save_string_xyz() )
f.close()
--------------------------------------------------------------------------

    Molecular point group: c1
  Charge       = 0
  Multiplicity = 1
  Basis Set: CC-PVTZ
  Basis Set:
  @DF-RHF Final Energy:  -321.86265698960051
    Total Energy =                       -321.8626569896006799
    Molecular point group: c1
  Basis Set: CC-PVTZ
  Basis Set:
  Basis Set: CC-PVTZ
  Basis Set:
  @DF-RHF Final Energy:  -321.86309966517177
    Total Energy =                       -321.8630996651715463
  Basis Set: CC-PVTZ
  Basis Set:
  Basis Set: CC-PVTZ
  Basis Set:
  @DF-RHF Final Energy:  -321.86343645209013
    Total Energy =                       -321.8634364520902409
  Basis Set: CC-PVTZ
  Basis Set:
  Basis Set: CC-PVTZ
  Basis Set:
  @DF-RHF Final Energy:  -321.85922843959634
    Total Energy =                       -321.8592284395962793
  Basis Set: CC-PVTZ
  Basis Set:
  Basis Set: CC-PVTZ
  Basis Set:
  @DF-RHF Final Energy:  -321.86339805042576
    Total Energy =                       -321.8633980504258716
  Basis Set: CC-PVTZ
  Basis Set:
  Basis Set: CC-PVTZ
  Basis Set:
  @DF-RHF Final Energy:  -321.86348819067342
    Total Energy =                       -321.8634881906730811
  Basis Set: CC-PVTZ
  Basis Set:
  Charge       = 0
  Multiplicity = 1
  Basis Set: CC-PVTZ
  Basis Set:

    Orbital Energies (a.u.)
    -----------------------

    Doubly Occupied:

       1A    -20.591544     2A    -20.585828     3A    -15.833349
       4A    -11.305612     5A    -11.243617     6A    -11.237705
       7A     -1.634237     8A     -1.418364     9A     -1.141198
      10A     -0.970695    11A     -0.957680    12A     -0.815683
      13A     -0.760152    14A     -0.730593    15A     -0.724915
      16A     -0.644944    17A     -0.593105    18A     -0.588030
      19A     -0.570844    20A     -0.526811    21A     -0.521607
      22A     -0.484719    23A     -0.471968    24A     -0.451430

  @DF-RHF Final Energy:  -321.86348867581688

   => Energetics <=

    Nuclear Repulsion Energy =            257.3522610350287891
    One-Electron Energy =                -948.8222335055779695
    Two-Electron Energy =                 369.6064837947325827
    DFT Exchange-Correlation Energy =       0.0000000000000000
    Empirical Dispersion Energy =           0.0000000000000000
    PCM Polarization Energy =               0.0000000000000000
    EFP Energy =                            0.0000000000000000
    Total Energy =                       -321.8634886758166544
    Molecular point group: c1
  Basis Set: CC-PVTZ
  Basis Set:

  -Total Gradient:
     Atom            X                  Y                   Z
    ------   -----------------  -----------------  -----------------
       1       -0.000002193963    -0.000012319217     0.000006885502
       2       -0.000026470287    -0.000053796809     0.000032643056
       3        0.000092090043     0.001118579125    -0.000339058188
       4       -0.000010391413     0.000001947305    -0.000001463324
       5       -0.000006547666    -0.000011684860     0.000001828087
       6        0.000042750239    -0.000038364454    -0.000013995660
       7       -0.000322020617     0.001055683939     0.001244318702
       8        0.000030174612    -0.001157520575     0.000008957162
       9        0.000001874125    -0.000010797616    -0.000013498690
      10        0.000014532098     0.000029936119    -0.000003544252
      11        0.000020818967    -0.000022448890    -0.000020388702
      12        0.000242334476    -0.000911282594    -0.000827736863
      13       -0.000076950615     0.000012068527    -0.000074946828

  **** Optimization is complete! (in 7 steps) ****
    Final optimized geometry and variables:
    Molecular point group: c1

    Geometry (in Angstrom), charge = 0, multiplicity = 1:

    H           -2.381150198506    -1.297201740385    -0.422326992745
    C           -1.388516142683    -1.286945471365     0.011051958605
    C           -0.684682201910    -0.027133478145    -0.452005501699
    H           -0.864736947503    -2.175098830535    -0.311166377946
    H           -1.480215291243    -1.316430331341     1.087144908719
    C           -1.355399470071     1.256068137969     0.019908458734
    N            0.748621374841     0.002802024663     0.015153769681
    H           -0.588823844119    -0.020914331197    -1.527375160229
    H           -2.371107586207     1.277436960003    -0.352478981516
    H           -0.832328989054     2.126163836495    -0.346339778738
    H           -1.389803585379     1.293201391120     1.102029370724
    O            1.101614370388    -0.787194094050     0.822618454901
    O            1.439560271143     0.835373083710    -0.471451594159

  Mulliken Charges: (a.u.)
   Center  Symbol    Alpha    Beta     Spin     Total
       1     H     0.45023  0.45023  0.00000  0.09954
       2     C     3.14270  3.14270  0.00000 -0.28541
       3     C     3.00713  3.00713  0.00000 -0.01425
       4     H     0.43829  0.43829  0.00000  0.12342
       5     H     0.44159  0.44159  0.00000  0.11682
       6     C     3.14395  3.14395  0.00000 -0.28789
       7     N     3.27471  3.27471  0.00000  0.45059
       8     H     0.42831  0.42831  0.00000  0.14338
       9     H     0.44907  0.44907  0.00000  0.10187
      10     H     0.43248  0.43248  0.00000  0.13503
      11     H     0.44552  0.44552  0.00000  0.10896
      12     O     4.16989  4.16989  0.00000 -0.33979
      13     O     4.17613  4.17613  0.00000 -0.35227

   Total alpha = 24.00000, Total beta = 24.00000, Total charge = -0.00000
