  ==> Input File <==

--------------------------------------------------------------------------
set {
	reference rhf
	basis 6-31G*
}

set_num_threads( 1 )
memory 2 gb

molecule MOL {
0 1

O	 -2.439739	 -0.935931	 -0.423848
C	 -1.921153	 0.064240	 -0.045697
C	 -2.624470	 1.379923	 0.150949
O	 -0.632575	 0.154573	 0.251549
H	 -2.168117	 2.136577	 -0.476876
H	 -3.669540	 1.273223	 -0.098610
H	 -2.519365	 1.700893	 1.180846
C	 0.160891	 -1.019931	 0.106212
C	 1.589627	 -0.672828	 0.480843
H	 0.089836	 -1.367806	 -0.916050
H	 -0.238459	 -1.792301	 0.749618
C	 2.126087	 0.581505	 -0.211442
H	 2.211962	 -1.527064	 0.222167
H	 1.651246	 -0.555991	 1.559643
C	 3.574708	 0.886084	 0.167675
H	 2.053508	 0.454476	 -1.289726
H	 1.497683	 1.428604	 0.043296
H	 3.931221	 1.779616	 -0.334851
H	 4.234155	 0.067284	 -0.106139
H	 3.674356	 1.046616	 1.237431

	symmetry c1
}
set optking {
	frozen_dihedral = ("
		16 12 9 8,
		2 4 8 10,
		1 2 4 8
	")
}

ee = energy('scf')
oeprop('DIPOLE', 'QUADRUPOLE', 'MULLIKEN_CHARGES')
f=open( 'psi4out.xyz', 'w' )
f.write( "20  " )
f.write( str(ee) + "\n" )
f.write( MOL.save_string_xyz() )
f.close()
--------------------------------------------------------------------------

    Molecular point group: c1

    Geometry (in Angstrom), charge = 0, multiplicity = 1:

       Center              X                  Y                   Z               Mass
    ------------   -----------------  -----------------  -----------------  -----------------
           O         -2.410100678782    -0.994600970094    -0.482522694514    15.994914619560
           C         -1.891514678782     0.005570029906    -0.104371694514    12.000000000000
           C         -2.594831678782     1.321253029906     0.092274305486    12.000000000000
           O         -0.602936678782     0.095903029906     0.192874305486    15.994914619560
           H         -2.138478678782     2.077907029906    -0.535550694514     1.007825032070
           H         -3.639901678782     1.214553029906    -0.157284694514     1.007825032070
           H         -2.489726678782     1.642223029906     1.122171305486     1.007825032070
           C          0.190529321218    -1.078600970094     0.047537305486    12.000000000000
           C          1.619265321218    -0.731497970094     0.422168305486    12.000000000000
           H          0.119474321218    -1.426475970094    -0.974724694514     1.007825032070
           H         -0.208820678782    -1.850970970094     0.690943305486     1.007825032070
           C          2.155725321218     0.522835029906    -0.270116694514    12.000000000000
           H          2.241600321218    -1.585733970094     0.163492305486     1.007825032070
           H          1.680884321218    -0.614660970094     1.500968305486     1.007825032070
           C          3.604346321218     0.827414029906     0.109000305486    12.000000000000
           H          2.083146321218     0.395806029906    -1.348400694514     1.007825032070
           H          1.527321321218     1.369934029906    -0.015378694514     1.007825032070
           H          3.960859321218     1.720946029906    -0.393525694514     1.007825032070
           H          4.263793321218     0.008614029906    -0.164813694514     1.007825032070
           H          3.703994321218     0.987946029906     1.178756305486     1.007825032070

  Charge       = 0
  Multiplicity = 1
  Basis Set: 6-31G*
  Basis Set:

    Orbital Energies (a.u.)
    -----------------------

    Doubly Occupied:

       1A    -20.601909     2A    -20.544280     3A    -11.374742
       4A    -11.282456     5A    -11.233695     6A    -11.225382
       7A    -11.219317     8A    -11.212644     9A     -1.468271
      10A     -1.362515    11A     -1.085573    12A     -1.027945
      13A     -0.981441    14A     -0.879840    15A     -0.814057
      16A     -0.770493    17A     -0.689986    18A     -0.685423
      19A     -0.667151    20A     -0.632535    21A     -0.598918
      22A     -0.592702    23A     -0.572850    24A     -0.549742
      25A     -0.544060    26A     -0.533729    27A     -0.510266
      28A     -0.483423    29A     -0.473461    30A     -0.470155
      31A     -0.449348    32A     -0.439035

  @DF-RHF Final Energy:  -383.94452496881615

   => Energetics <=

    Nuclear Repulsion Energy =            386.6044159029298726
    One-Electron Energy =               -1289.1432341435479429
    Two-Electron Energy =                 518.5942932718013481
    DFT Exchange-Correlation Energy =       0.0000000000000000
    Empirical Dispersion Energy =           0.0000000000000000
    PCM Polarization Energy =               0.0000000000000000
    EFP Energy =                            0.0000000000000000
    Total Energy =                       -383.9445249688167223

  Mulliken Charges: (a.u.)
   Center  Symbol    Alpha    Beta     Spin     Total
       1     O     4.28325  4.28325  0.00000 -0.56650
       2     C     2.61886  2.61886  0.00000  0.76229
       3     C     3.28187  3.28187  0.00000 -0.56374
       4     O     4.30877  4.30877  0.00000 -0.61754
       5     H     0.40063  0.40063  0.00000  0.19874
       6     H     0.39677  0.39677  0.00000  0.20646
       7     H     0.40068  0.40068  0.00000  0.19865
       8     C     3.00167  3.00167  0.00000 -0.00333
       9     C     3.16688  3.16688  0.00000 -0.33377
      10     H     0.41040  0.41040  0.00000  0.17921
      11     H     0.40819  0.40819  0.00000  0.18361
      12     C     3.15381  3.15381  0.00000 -0.30762
      13     H     0.41790  0.41790  0.00000  0.16420
      14     H     0.41622  0.41622  0.00000  0.16755
      15     C     3.24040  3.24040  0.00000 -0.48081
      16     H     0.42320  0.42320  0.00000  0.15359
      17     H     0.40969  0.40969  0.00000  0.18063
      18     H     0.41778  0.41778  0.00000  0.16443
      19     H     0.42206  0.42206  0.00000  0.15588
      20     H     0.42097  0.42097  0.00000  0.15806

   Total alpha = 32.00000, Total beta = 32.00000, Total charge =  0.00000
