  ==> Input File <==

--------------------------------------------------------------------------
set {
	reference rhf
	basis 6-31G*
}

set_num_threads( 1 )
memory 2 gb

molecule MOL {
0 1

H	 2.443638	 -0.843790	 0.850833
O	 2.016064	 -0.864478	 0.000222
C	 1.050492	 0.053836	 0.000068
C	 -0.318135	 -0.576402	 0.000164
O	 1.285279	 1.218255	 -0.000078
C	 -1.454360	 0.441875	 -0.000474
H	 -0.374042	 -1.230163	 -0.866135
H	 -0.374274	 -1.229227	 0.867154
C	 -2.826123	 -0.230780	 0.000056
H	 -1.357605	 1.085198	 -0.868380
H	 -1.357504	 1.086451	 0.866496
H	 -2.959731	 -0.858053	 -0.876869
H	 -3.619374	 0.509403	 -0.000080
H	 -2.959371	 -0.857318	 0.877556

	symmetry c1
}
set optking {
	frozen_dihedral = ("
		7 4 6 10,
		2 3 4 7
	")
}

ee = energy('scf')
oeprop('DIPOLE', 'QUADRUPOLE', 'MULLIKEN_CHARGES')
f=open( 'psi4out.xyz', 'w' )
f.write( "14  " )
f.write( str(ee) + "\n" )
f.write( MOL.save_string_xyz() )
f.close()
--------------------------------------------------------------------------

    Molecular point group: c1

    Geometry (in Angstrom), charge = 0, multiplicity = 1:

       Center              X                  Y                   Z               Mass
    ------------   -----------------  -----------------  -----------------  -----------------
           H          2.448336272768    -0.838851929605     0.841096732082     1.007825032070
           O          2.020762272768    -0.859539929605    -0.009514267918    15.994914619560
           C          1.055190272768     0.058774070395    -0.009668267918    12.000000000000
           C         -0.313436727232    -0.571463929605    -0.009572267918    12.000000000000
           O          1.289977272768     1.223193070395    -0.009814267918    15.994914619560
           C         -1.449661727232     0.446813070395    -0.010210267918    12.000000000000
           H         -0.369343727232    -1.225224929605    -0.875871267918     1.007825032070
           H         -0.369575727232    -1.224288929605     0.857417732082     1.007825032070
           C         -2.821424727232    -0.225841929605    -0.009680267918    12.000000000000
           H         -1.352906727232     1.090136070395    -0.878116267918     1.007825032070
           H         -1.352805727232     1.091389070395     0.856759732082     1.007825032070
           H         -2.955032727232    -0.853114929605    -0.886605267918     1.007825032070
           H         -3.614675727232     0.514341070395    -0.009816267918     1.007825032070
           H         -2.954672727232    -0.852379929605     0.867819732082     1.007825032070

  Charge       = 0
  Multiplicity = 1
  Basis Set: 6-31G*
  Basis Set:

    Orbital Energies (a.u.)
    -----------------------

    Doubly Occupied:

       1A    -20.599880     2A    -20.559169     3A    -11.380551
       4A    -11.241219     5A    -11.225309     6A    -11.217447
       7A     -1.470347     8A     -1.368186     9A     -1.082607
      10A     -0.976954    11A     -0.853512    12A     -0.796818
      13A     -0.709537    14A     -0.682311    15A     -0.665141
      16A     -0.631940    17A     -0.578422    18A     -0.560869
      19A     -0.543501    20A     -0.502787    21A     -0.496090
      22A     -0.483004    23A     -0.478800    24A     -0.444471

  @DF-RHF Final Energy:  -305.86126977117374

   => Energetics <=

    Nuclear Repulsion Energy =            240.0005036367448099
    One-Electron Energy =                -892.6258492938543441
    Two-Electron Energy =                 346.7640758859355969
    DFT Exchange-Correlation Energy =       0.0000000000000000
    Empirical Dispersion Energy =           0.0000000000000000
    PCM Polarization Energy =               0.0000000000000000
    EFP Energy =                            0.0000000000000000
    Total Energy =                       -305.8612697711739088

  Mulliken Charges: (a.u.)
   Center  Symbol    Alpha    Beta     Spin     Total
       1     H     0.26473  0.26473  0.00000  0.47053
       2     O     4.35706  4.35706  0.00000 -0.71411
       3     C     2.63555  2.63555  0.00000  0.72891
       4     C     3.20754  3.20754  0.00000 -0.41508
       5     O     4.25631  4.25631  0.00000 -0.51262
       6     C     3.15313  3.15313  0.00000 -0.30626
       7     H     0.39789  0.39789  0.00000  0.20423
       8     H     0.40680  0.40680  0.00000  0.18641
       9     C     3.24267  3.24267  0.00000 -0.48534
      10     H     0.40930  0.40930  0.00000  0.18140
      11     H     0.41198  0.41198  0.00000  0.17604
      12     H     0.42056  0.42056  0.00000  0.15887
      13     H     0.41455  0.41455  0.00000  0.17090
      14     H     0.42194  0.42194  0.00000  0.15613

   Total alpha = 24.00000, Total beta = 24.00000, Total charge =  0.00000
