  ==> Input File <==

--------------------------------------------------------------------------
set {
	reference rhf
	basis cc-pvtz
}

set_num_threads( 4 )
memory 2 gb

molecule MOL {
0 1

H	 2.695490	 -0.190738	 -0.762548
N	 1.720377	 0.013988	 -0.774778
C	 1.276959	 0.471922	 0.526576
C	 0.961190	 -1.136524	 -1.221766
H	 1.850470	 1.346495	 0.808636
H	 1.415545	 -0.284556	 1.301271
C	 -0.195954	 0.832478	 0.458742
H	 1.305888	 -1.427468	 -2.206594
H	 1.079825	 -1.994625	 -0.557532
C	 -0.511310	 -0.773861	 -1.287310
H	 -0.320444	 1.696419	 -0.200576
H	 -0.543790	 1.118894	 1.444184
N	 -0.976577	 -0.298712	 -0.000000
H	 -1.087166	 -1.648929	 -1.564372
H	 -0.657524	 -0.020583	 -2.066915
C	 -2.391156	 -0.021003	 -0.000000
H	 -2.853954	 -0.458728	 -0.875714
H	 -2.853954	 -0.458728	 0.875714
H	 -2.614037	 1.049773	 -0.000000

	symmetry c1
}
set optking {
	frozen_dihedral = ("
		7 13 16 19
	")
}

ee = optimize('scf')
oeprop('DIPOLE', 'QUADRUPOLE', 'MULLIKEN_CHARGES')
f=open( 'psi4out.xyz', 'w' )
f.write( "19  " )
f.write( str(ee) + "\n" )
f.write( MOL.save_string_xyz() )
f.close()
--------------------------------------------------------------------------

    Molecular point group: c1
  Charge       = 0
  Multiplicity = 1
  Basis Set: CC-PVTZ
  Basis Set:
  @DF-RHF Final Energy:  -305.30362145369156
    Total Energy =                       -305.3036214536915622
    Molecular point group: c1
  Basis Set: CC-PVTZ
  Basis Set:
  Basis Set: CC-PVTZ
  Basis Set:
  @DF-RHF Final Energy:  -305.30391394470217
    Total Energy =                       -305.3039139447023445
  Basis Set: CC-PVTZ
  Basis Set:
  Basis Set: CC-PVTZ
  Basis Set:
  @DF-RHF Final Energy:  -305.30398374389495
    Total Energy =                       -305.3039837438950030
  Basis Set: CC-PVTZ
  Basis Set:
  Charge       = 0
  Multiplicity = 1
  Basis Set: CC-PVTZ
  Basis Set:

    Orbital Energies (a.u.)
    -----------------------

    Doubly Occupied:

       1A    -15.534794     2A    -15.530695     3A    -11.236675
       4A    -11.236599     5A    -11.235682     6A    -11.235656
       7A    -11.232888     8A     -1.246856     9A     -1.185747
      10A     -1.023327    11A     -0.964963    12A     -0.860912
      13A     -0.859115    14A     -0.757597    15A     -0.692065
      16A     -0.632067    17A     -0.624927    18A     -0.607167
      19A     -0.605211    20A     -0.581200    21A     -0.544230
      22A     -0.533384    23A     -0.513435    24A     -0.488826
      25A     -0.466651    26A     -0.456977    27A     -0.365392
      28A     -0.344815

  @DF-RHF Final Energy:  -305.30398492048579

   => Energetics <=

    Nuclear Repulsion Energy =            339.8861035743071284
    One-Electron Energy =               -1087.1844617249653311
    Two-Electron Energy =                 441.9943732301729824
    DFT Exchange-Correlation Energy =       0.0000000000000000
    Empirical Dispersion Energy =           0.0000000000000000
    PCM Polarization Energy =               0.0000000000000000
    EFP Energy =                            0.0000000000000000
    Total Energy =                       -305.3039849204852771
    Molecular point group: c1
  Basis Set: CC-PVTZ
  Basis Set:

  -Total Gradient:
     Atom            X                  Y                   Z
    ------   -----------------  -----------------  -----------------
       1       -0.000027637116    -0.000001047637     0.000007947010
       2       -0.000026264510     0.000004941399     0.000002659341
       3        0.000032786468     0.000015191809     0.000023710865
       4        0.000018139250    -0.000006496721    -0.000020030512
       5        0.000033339054    -0.000000438665    -0.000003209240
       6       -0.000000298325     0.000002681136    -0.000006708440
       7        0.000170520365     0.000934539865    -0.002783592668
       8        0.000034415264    -0.000006489841    -0.000010950566
       9       -0.000005637786     0.000014982665    -0.000005395308
      10        0.000031829382    -0.000003269997     0.000077394366
      11       -0.000009576183     0.000005155847     0.000002277184
      12        0.000001820415    -0.000017409719    -0.000018387209
      13       -0.000310938382    -0.001330018091     0.004847337253
      14       -0.000002705897     0.000017340057     0.000018088246
      15        0.000002052363    -0.000005894253     0.000006542523
      16        0.000079031517     0.000413806596    -0.006005350612
      17       -0.000034566724     0.000017878953    -0.000022106627
      18       -0.000005051933    -0.000010601140     0.000005952761
      19        0.000018742778    -0.000044852265     0.003883821634

  **** Optimization is complete! (in 4 steps) ****
    Final optimized geometry and variables:
    Molecular point group: c1

    Geometry (in Angstrom), charge = 0, multiplicity = 1:

    H            2.727265688148    -0.072382040591    -0.416474524188
    N            1.753502400294     0.138289228797    -0.437375301864
    C            1.300700511442     0.598771845510     0.859471317928
    C            0.991275897525    -1.007195436158    -0.891191674794
    H            1.872875098394     1.473391693904     1.144827835899
    H            1.431759910299    -0.156383492746     1.636845382113
    C           -0.170953922753     0.961063731991     0.778334594231
    H            1.342213039711    -1.299838469818    -1.873528277125
    H            1.099424109734    -1.866345543683    -0.226315500811
    C           -0.479540546857    -0.638937728193    -0.968384118753
    H           -0.290242377404     1.821518518855     0.114199789915
    H           -0.522819452644     1.254334125098     1.760854908191
    N           -0.953630055600    -0.169462473174     0.319947974980
    H           -1.050832322401    -1.514092724047    -1.252675625867
    H           -0.615306535952     0.115265069287    -1.748851629134
    C           -2.380731946587     0.100436215971     0.341384446711
    H           -2.873317029657    -0.335496669330    -0.517604283095
    H           -2.835206536515    -0.321799244314     1.232021200414
    H           -2.597396928330     1.166614519004     0.354046997130

  Mulliken Charges: (a.u.)
   Center  Symbol    Alpha    Beta     Spin     Total
       1     H     0.44001  0.44001  0.00000  0.11997
       2     N     3.64282  3.64282  0.00000 -0.28564
       3     C     3.04188  3.04188  0.00000 -0.08377
       4     C     3.04198  3.04198  0.00000 -0.08396
       5     H     0.45267  0.45267  0.00000  0.09466
       6     H     0.46572  0.46572  0.00000  0.06856
       7     C     3.03566  3.03566  0.00000 -0.07133
       8     H     0.45267  0.45267  0.00000  0.09467
       9     H     0.46586  0.46586  0.00000  0.06829
      10     C     3.03412  3.03412  0.00000 -0.06824
      11     H     0.46797  0.46797  0.00000  0.06407
      12     H     0.45359  0.45359  0.00000  0.09282
      13     N     3.61744  3.61744  0.00000 -0.23488
      14     H     0.45398  0.45398  0.00000  0.09204
      15     H     0.46870  0.46870  0.00000  0.06260
      16     C     3.09308  3.09308  0.00000 -0.18615
      17     H     0.45710  0.45710  0.00000  0.08580
      18     H     0.45032  0.45032  0.00000  0.09936
      19     H     0.46444  0.46444  0.00000  0.07113

   Total alpha = 28.00000, Total beta = 28.00000, Total charge = -0.00000
