                              Psi4 1.0.54 Driver

  ==> Input File <==

--------------------------------------------------------------------------
set {
	reference rhf
	basis cc-pvtz
}

set_num_threads( 4 )
memory 2 gb

molecule MOL {
0 1

O	 -2.081319	 -0.951530	 -0.502732
N	 -1.613558	 0.006676	 0.014756
C	 -0.329345	 -0.171618	 0.743966
O	 -2.068523	 1.100482	 -0.024385
C	 0.835904	 0.041968	 -0.213982
H	 -0.346048	 -1.174374	 1.137184
H	 -0.333613	 0.555559	 1.538590
C	 0.345608	 0.335111	 -1.629554
H	 1.441474	 0.865301	 0.146525
H	 1.458652	 -0.845118	 -0.213770
C	 1.493248	 0.545972	 -2.610849
H	 -0.286258	 1.218303	 -1.617067
H	 -0.277381	 -0.485487	 -1.972937
H	 2.114878	 1.382332	 -2.311222
H	 2.125101	 -0.333354	 -2.667986
H	 1.118704	 0.750734	 -3.606314

	symmetry c1
}
set optking {
	frozen_dihedral = ("
		9 5 3 2
	")
}

ee,wfn = optimize('scf', return_wfn=True)
oeprop( wfn, 'DIPOLE', 'QUADRUPOLE', 'MULLIKEN_CHARGES')
f=open( 'psi4out.xyz', 'w' )
f.write( "16  " )
f.write( str(ee) + "\n" )
f.write( MOL.save_string_xyz() )
f.close()
--------------------------------------------------------------------------

    Molecular point group: c1
  Charge       = 0
  Multiplicity = 1
  Basis Set: CC-PVTZ
  Basis Set:
  @DF-RHF Final Energy:  -360.89586048239789
    Total Energy =                       -360.8958604823977225
    Molecular point group: c1
  Basis Set: CC-PVTZ
  Basis Set:
  Basis Set: CC-PVTZ
  Basis Set:
  @DF-RHF Final Energy:  -360.89576927589098
    Total Energy =                       -360.8957692758909275
  Basis Set: CC-PVTZ
  Basis Set:
  Basis Set: CC-PVTZ
  Basis Set:
  @DF-RHF Final Energy:  -360.89959661789703
    Total Energy =                       -360.8995966178974868
  Basis Set: CC-PVTZ
  Basis Set:
  Basis Set: CC-PVTZ
  Basis Set:
  @DF-RHF Final Energy:  -360.90106471284821
    Total Energy =                       -360.9010647128486653
  Basis Set: CC-PVTZ
  Basis Set:
  Basis Set: CC-PVTZ
  Basis Set:
  @DF-RHF Final Energy:  -360.90114349501675
    Total Energy =                       -360.9011434950167541
  Basis Set: CC-PVTZ
  Basis Set:
  Basis Set: CC-PVTZ
  Basis Set:
  @DF-RHF Final Energy:  -360.90117718881919
    Total Energy =                       -360.9011771888192470
  Basis Set: CC-PVTZ
  Basis Set:
  Basis Set: CC-PVTZ
  Basis Set:
  @DF-RHF Final Energy:  -360.90117885145031
    Total Energy =                       -360.9011788514500267
  Basis Set: CC-PVTZ
  Basis Set:
  Charge       = 0
  Multiplicity = 1
  Basis Set: CC-PVTZ
  Basis Set:

    Orbital Energies (a.u.)
    -----------------------

    Doubly Occupied:

       1A    -20.590267     2A    -20.589799     3A    -15.836376
       4A    -11.296702     5A    -11.252029     6A    -11.231936
       7A    -11.220698     8A     -1.635627     9A     -1.419706
      10A     -1.130135    11A     -1.054987    12A     -0.946933
      13A     -0.857812    14A     -0.814372    15A     -0.748293
      16A     -0.737666    17A     -0.730177    18A     -0.673622
      19A     -0.615505    20A     -0.598348    21A     -0.575347
      22A     -0.539122    23A     -0.506878    24A     -0.497694
      25A     -0.495096    26A     -0.476720    27A     -0.472808
      28A     -0.451817

  @DF-RHF Final Energy:  -360.90117908799010

   => Energetics <=

    Nuclear Repulsion Energy =            322.1038410087400621
    One-Electron Energy =               -1130.0170979054782947
    Two-Electron Energy =                 447.0120778087480744
    DFT Exchange-Correlation Energy =       0.0000000000000000
    Empirical Dispersion Energy =           0.0000000000000000
    PCM Polarization Energy =               0.0000000000000000
    EFP Energy =                            0.0000000000000000
    Total Energy =                       -360.9011790879901014
    Molecular point group: c1
  Basis Set: CC-PVTZ
  Basis Set:

  -Total Gradient:
     Atom            X                  Y                   Z
    ------   -----------------  -----------------  -----------------
       1        0.000047617257     0.000049425308     0.000007398434
       2       -0.000064227252    -0.000729625755    -0.000226770163
       3        0.000145395381     0.000902229351     0.000389503736
       4        0.000003872426    -0.000052263812     0.000015995700
       5       -0.000757192556     0.000544515088    -0.000668212290
       6        0.000001738432     0.000003498695     0.000007107975
       7        0.000001842260    -0.000007083902     0.000003492739
       8       -0.000015358228    -0.000046789702    -0.000025204205
       9        0.000622875767    -0.000687601422     0.000483943093
      10        0.000002142859     0.000003284965    -0.000002889512
      11       -0.000019180959     0.000007786985     0.000011823298
      12        0.000001212524    -0.000001064638     0.000001960932
      13        0.000018370069     0.000013020646    -0.000003927526
      14        0.000009289898     0.000001953019    -0.000003893476
      15        0.000002927370    -0.000000517541    -0.000004332670
      16       -0.000001325254    -0.000000767289     0.000014003932

  **** Optimization is complete! (in 8 steps) ****
    Final optimized geometry and variables:
    Molecular point group: c1

    Geometry (in Angstrom), charge = 0, multiplicity = 1:

    O           -1.653887400270    -1.099965792871     0.275689341023
    N           -1.119922818900    -0.147318664889     0.736202130610
    C            0.253373728735    -0.328723580779     1.280555305782
    O           -1.586581598779     0.941282035943     0.788724677117
    C            1.355218910154    -0.071087167821     0.224416198767
    H            0.278573542609    -1.342765520888     1.638599792591
    H            0.323829777312     0.360944705784     2.103125016656
    C            0.898375073255     0.240375933916    -1.201616079278
    H            1.973991028861     0.741476802720     0.583563150117
    H            1.989378028516    -0.948651614638     0.201084066875
    C            2.086406119833     0.464998333184    -2.130568509530
    H            0.269686707792     1.122646476220    -1.201837637512
    H            0.294017405970    -0.575426860489    -1.579577823319
    H            2.696143755095     1.297417157842    -1.796154822936
    H            2.721069129195    -0.413361969499    -2.178340315288
    H            1.749989811744     0.684751863619    -3.136221429392

  Mulliken Charges: (a.u.)
   Center  Symbol    Alpha    Beta     Spin     Total
       1     O     4.17583  4.17583  0.00000 -0.35166
       2     N     3.27309  3.27309  0.00000  0.45382
       3     C     3.03746  3.03746  0.00000 -0.07491
       4     O     4.17580  4.17580  0.00000 -0.35161
       5     C     3.10172  3.10172  0.00000 -0.20345
       6     H     0.43351  0.43351  0.00000  0.13298
       7     H     0.43274  0.43274  0.00000  0.13452
       8     C     3.09680  3.09680  0.00000 -0.19360
       9     H     0.44478  0.44478  0.00000  0.11044
      10     H     0.44559  0.44559  0.00000  0.10882
      11     C     3.15170  3.15170  0.00000 -0.30339
      12     H     0.43934  0.43934  0.00000  0.12133
      13     H     0.43914  0.43914  0.00000  0.12172
      14     H     0.45432  0.45432  0.00000  0.09136
      15     H     0.45455  0.45455  0.00000  0.09090
      16     H     0.44364  0.44364  0.00000  0.11272

   Total alpha = 28.00000, Total beta = 28.00000, Total charge = -0.00000

*** Psi4 exiting successfully. Buy a developer a beer!
