  ==> Input File <==

--------------------------------------------------------------------------
set {
	reference rhf
	basis 6-31G*
}

set_num_threads( 4 )
memory 2 gb

molecule MOL {
0 1

H	 -2.652399	 0.237995	 -1.471478
O	 -3.452007	 0.283848	 -0.965577
C	 -3.181085	 -0.079926	 0.364119
C	 -1.765924	 0.277073	 0.805136
H	 -3.327791	 -1.152017	 0.410903
H	 -3.905698	 0.375695	 1.036898
C	 -0.677594	 -0.417312	 -0.014550
H	 -1.637766	 1.358238	 0.744969
H	 -1.659588	 0.017670	 1.857098
C	 0.738335	 -0.034840	 0.421385
H	 -0.814977	 -0.178223	 -1.064632
H	 -0.802730	 -1.495410	 0.071702
C	 1.822265	 -0.738362	 -0.399735
H	 0.853533	 1.043532	 0.342250
H	 0.871597	 -0.279636	 1.474438
C	 3.258060	 -0.455774	 0.057203
H	 1.718003	 -0.459167	 -1.447053
H	 1.651028	 -1.811884	 -0.354513
C	 3.709143	 0.994797	 -0.123830
H	 3.930637	 -1.101717	 -0.501982
H	 3.365259	 -0.739518	 1.102287
H	 3.601178	 1.310569	 -1.158127
H	 4.753787	 1.110486	 0.148516
H	 3.135362	 1.678896	 0.492569

	symmetry c1
}
set optking {
	frozen_dihedral = ("
		1 2 3 5
	")
}

ee = optimize('scf')
oeprop('DIPOLE', 'QUADRUPOLE', 'MULLIKEN_CHARGES')
f=open( 'psi4out.xyz', 'w' )
f.write( "24  " )
f.write( str(ee) + "\n" )
f.write( MOL.save_string_xyz() )
f.close()
--------------------------------------------------------------------------

    Molecular point group: c1
  Charge       = 0
  Multiplicity = 1
  Basis Set: 6-31G*
  Basis Set:
  @DF-RHF Final Energy:  -349.24318774996885
    Total Energy =                       -349.2431877499690245
    Molecular point group: c1
  Basis Set: 6-31G*
  Basis Set:
  Basis Set: 6-31G*
  Basis Set:
  @DF-RHF Final Energy:  -349.24477443365953
    Total Energy =                       -349.2447744336596429
  Basis Set: 6-31G*
  Basis Set:
  Basis Set: 6-31G*
  Basis Set:
  @DF-RHF Final Energy:  -349.24536959453729
    Total Energy =                       -349.2453695945371237
  Basis Set: 6-31G*
  Basis Set:
  Basis Set: 6-31G*
  Basis Set:
  @DF-RHF Final Energy:  -349.24536353993199
    Total Energy =                       -349.2453635399322707
  Basis Set: 6-31G*
  Basis Set:
  Basis Set: 6-31G*
  Basis Set:
  @DF-RHF Final Energy:  -349.24539199728105
    Total Energy =                       -349.2453919972812741
  Basis Set: 6-31G*
  Basis Set:
  Basis Set: 6-31G*
  Basis Set:
  @DF-RHF Final Energy:  -349.24538883805087
    Total Energy =                       -349.2453888380508715
  Basis Set: 6-31G*
  Basis Set:
  Basis Set: 6-31G*
  Basis Set:
  @DF-RHF Final Energy:  -349.24539213907497
    Total Energy =                       -349.2453921390749656
  Basis Set: 6-31G*
  Basis Set:
  Charge       = 0
  Multiplicity = 1
  Basis Set: 6-31G*
  Basis Set:

    Orbital Energies (a.u.)
    -----------------------

    Doubly Occupied:

       1A    -20.549312     2A    -11.266042     3A    -11.226019
       4A    -11.221737     5A    -11.220339     6A    -11.218874
       7A    -11.218132     8A    -11.211069     9A     -1.356810
      10A     -1.096165    11A     -1.053330    12A     -0.989927
      13A     -0.921366    14A     -0.856666    15A     -0.803320
      16A     -0.783072    17A     -0.678200    18A     -0.658075
      19A     -0.629756    20A     -0.618089    21A     -0.606020
      22A     -0.591395    23A     -0.562281    24A     -0.538274
      25A     -0.528973    26A     -0.514458    27A     -0.494859
      28A     -0.484812    29A     -0.479845    30A     -0.465441
      31A     -0.459492    32A     -0.437938    33A     -0.429002

  @DF-RHF Final Energy:  -349.24539263533109

   => Energetics <=

    Nuclear Repulsion Energy =            384.2222944669188109
    One-Electron Energy =               -1234.5971983590316086
    Two-Electron Energy =                 501.1295112567817114
    DFT Exchange-Correlation Energy =       0.0000000000000000
    Empirical Dispersion Energy =           0.0000000000000000
    PCM Polarization Energy =               0.0000000000000000
    EFP Energy =                            0.0000000000000000
    Total Energy =                       -349.2453926353310862
    Molecular point group: c1
  Basis Set: 6-31G*
  Basis Set:

  -Total Gradient:
     Atom            X                  Y                   Z
    ------   -----------------  -----------------  -----------------
       1        0.000568997429     0.002309635527     0.000522019954
       2       -0.001211644567    -0.002758433139    -0.000491461276
       3        0.002619988855     0.000149675097    -0.000720086286
       4        0.000009339189    -0.000019788846     0.000010179086
       5       -0.001968105260     0.000333227586     0.000697136924
       6        0.000007374945    -0.000019500706    -0.000001925671
       7       -0.000012075051     0.000000284352    -0.000036867959
       8       -0.000001991330    -0.000010628587    -0.000007399927
       9       -0.000014383840    -0.000002691240     0.000006654466
      10        0.000013183763    -0.000003637420     0.000022000623
      11       -0.000018085005    -0.000004530453    -0.000024673385
      12       -0.000009524180     0.000006550179     0.000007599707
      13       -0.000010639907     0.000008762707     0.000004792933
      14        0.000006248527    -0.000005912923    -0.000004637218
      15        0.000025911150     0.000007338371     0.000009513933
      16       -0.000002025231     0.000001787901     0.000011090730
      17        0.000000636700     0.000004480266    -0.000000641099
      18       -0.000008972216     0.000002216047    -0.000000765321
      19        0.000002794570     0.000001481280    -0.000000333666
      20       -0.000003310901     0.000000118004     0.000000011292
      21        0.000002182343     0.000000416525    -0.000000125992
      22        0.000001232095     0.000000296794    -0.000000579769
      23       -0.000000526507     0.000000531887     0.000000116354
      24        0.000003394434    -0.000001679208    -0.000001618430

  **** Optimization is complete! (in 8 steps) ****
    Final optimized geometry and variables:
    Molecular point group: c1

    Geometry (in Angstrom), charge = 0, multiplicity = 1:

    H           -2.826396325659     0.260554017077    -1.494896492987
    O           -3.564872150733     0.301691861271    -0.905794109684
    C           -3.179942285879    -0.097899006549     0.385040341801
    C           -1.757715348658     0.302057243638     0.761578538114
    H           -3.314768155282    -1.172685429691     0.497975690327
    H           -3.878488272224     0.377801044551     1.062699268815
    C           -0.664643281663    -0.405542343292    -0.045644444033
    H           -1.658765309917     1.379815885122     0.653357680502
    H           -1.616140986755     0.079351172645     1.816938905990
    C            0.748396545029    -0.026140606570     0.403481059855
    H           -0.763533269886    -0.171301037658    -1.105247147150
    H           -0.795673078531    -1.482573894556     0.040427823308
    C            1.840015874484    -0.727957383927    -0.408597451100
    H            0.863609066525     1.052084936588     0.330597498349
    H            0.867281432487    -0.276551913339     1.456431045930
    C            3.270151689008    -0.451883653681     0.069529978335
    H            1.751298508589    -0.441061251287    -1.455395626908
    H            1.665248086851    -1.801316895833    -0.372701278025
    C            3.726736522795     0.998793973233    -0.095687060499
    H            3.947987052716    -1.095939911765    -0.485124121129
    H            3.362322510825    -0.743268211390     1.113834846546
    H            3.633886683539     1.321830685631    -1.129166595340
    H            4.767753247294     1.109681871060     0.191591813483
    H            3.146591550448     1.680304317576     0.517540424606

  Mulliken Charges: (a.u.)
   Center  Symbol    Alpha    Beta     Spin     Total
       1     H     0.27842  0.27842  0.00000  0.44316
       2     O     4.37691  4.37691  0.00000 -0.75383
       3     C     2.98260  2.98260  0.00000  0.03480
       4     C     3.17776  3.17776  0.00000 -0.35553
       5     H     0.43107  0.43107  0.00000  0.13787
       6     H     0.41747  0.41747  0.00000  0.16506
       7     C     3.15915  3.15915  0.00000 -0.31829
       8     H     0.41546  0.41546  0.00000  0.16908
       9     H     0.41940  0.41940  0.00000  0.16119
      10     C     3.15268  3.15268  0.00000 -0.30535
      11     H     0.43101  0.43101  0.00000  0.13798
      12     H     0.41926  0.41926  0.00000  0.16148
      13     C     3.15301  3.15301  0.00000 -0.30602
      14     H     0.41967  0.41967  0.00000  0.16065
      15     H     0.42246  0.42246  0.00000  0.15508
      16     C     3.15271  3.15271  0.00000 -0.30542
      17     H     0.42412  0.42412  0.00000  0.15175
      18     H     0.42168  0.42168  0.00000  0.15665
      19     C     3.24150  3.24150  0.00000 -0.48300
      20     H     0.42023  0.42023  0.00000  0.15953
      21     H     0.42290  0.42290  0.00000  0.15421
      22     H     0.42205  0.42205  0.00000  0.15590
      23     H     0.41851  0.41851  0.00000  0.16299
      24     H     0.41997  0.41997  0.00000  0.16007

   Total alpha = 33.00000, Total beta = 33.00000, Total charge = -0.00000
