  ==> Input File <==

--------------------------------------------------------------------------
set {
	reference rhf
	basis 6-31G*
}

set_num_threads( 4 )
memory 2 gb

molecule MOL {
0 1

O	 1.228169	 1.284723	 -0.222456
C	 1.122059	 0.121804	 -0.000188
C	 -0.170150	 -0.657997	 -0.000612
O	 2.155378	 -0.660505	 0.284803
C	 -1.412532	 0.227344	 -0.000452
H	 -0.153702	 -1.313099	 -0.867402
H	 -0.153924	 -1.313811	 0.865644
C	 -2.706999	 -0.587347	 -0.000541
H	 -1.388000	 0.879466	 -0.868000
H	 -1.387972	 0.879138	 0.867341
C	 -3.956778	 0.291888	 0.000910
H	 -2.726114	 -1.239230	 -0.871609
H	 -2.725217	 -1.240844	 0.869333
H	 -3.985213	 0.933254	 -0.875158
H	 -4.860123	 -0.309979	 0.000519
H	 -3.984618	 0.931166	 0.878514
C	 3.433066	 -0.050942	 0.317804
H	 3.674929	 0.376971	 -0.644422
H	 4.129242	 -0.837895	 0.562739
H	 3.464829	 0.724572	 1.069519

	symmetry c1
}
set optking {
	frozen_dihedral = ("
		1 2 3 6
	")
}

ee = optimize('scf')
oeprop('DIPOLE', 'QUADRUPOLE', 'MULLIKEN_CHARGES')
f=open( 'psi4out.xyz', 'w' )
f.write( "20  " )
f.write( str(ee) + "\n" )
f.write( MOL.save_string_xyz() )
f.close()
--------------------------------------------------------------------------

    Molecular point group: c1
  Charge       = 0
  Multiplicity = 1
  Basis Set: 6-31G*
  Basis Set:
  @DF-RHF Final Energy:  -383.94140498163620
    Total Energy =                       -383.9414049816363104
    Molecular point group: c1
  Basis Set: 6-31G*
  Basis Set:
  Basis Set: 6-31G*
  Basis Set:
  @DF-RHF Final Energy:  -383.94086028771420
    Total Energy =                       -383.9408602877139174
  Basis Set: 6-31G*
  Basis Set:
  Basis Set: 6-31G*
  Basis Set:
  @DF-RHF Final Energy:  -383.94146166134550
    Total Energy =                       -383.9414616613454427
  Basis Set: 6-31G*
  Basis Set:
  Basis Set: 6-31G*
  Basis Set:
  @DF-RHF Final Energy:  -383.94147926348342
    Total Energy =                       -383.9414792634835294
  Basis Set: 6-31G*
  Basis Set:
  Charge       = 0
  Multiplicity = 1
  Basis Set: 6-31G*
  Basis Set:

    Orbital Energies (a.u.)
    -----------------------

    Doubly Occupied:

       1A    -20.604030     2A    -20.545316     3A    -11.372437
       4A    -11.280951     5A    -11.235662     6A    -11.220453
       7A    -11.219597     8A    -11.210754     9A     -1.469553
      10A     -1.362840    11A     -1.088812    12A     -1.024393
      13A     -0.969219    14A     -0.885949    15A     -0.804076
      16A     -0.767891    17A     -0.696730    18A     -0.683684
      19A     -0.672061    20A     -0.646250    21A     -0.597486
      22A     -0.592294    23A     -0.578534    24A     -0.540950
      25A     -0.536319    26A     -0.522893    27A     -0.500820
      28A     -0.478137    29A     -0.473770    30A     -0.470484
      31A     -0.455984    32A     -0.436731

  @DF-RHF Final Energy:  -383.94147946812387

   => Energetics <=

    Nuclear Repulsion Energy =            381.0790955339097650
    One-Electron Energy =               -1278.1510266100967783
    Two-Electron Energy =                 513.1304516080631402
    DFT Exchange-Correlation Energy =       0.0000000000000000
    Empirical Dispersion Energy =           0.0000000000000000
    PCM Polarization Energy =               0.0000000000000000
    EFP Energy =                            0.0000000000000000
    Total Energy =                       -383.9414794681238163
    Molecular point group: c1
  Basis Set: 6-31G*
  Basis Set:

  -Total Gradient:
     Atom            X                  Y                   Z
    ------   -----------------  -----------------  -----------------
       1        0.000059537386    -0.000116849150    -0.000491359395
       2       -0.000136746789     0.000247277542     0.000706708119
       3        0.000283356393    -0.000452486628     0.000001264568
       4       -0.000010495080     0.000000451090     0.000064452912
       5       -0.000004251357     0.000012905837     0.000051881975
       6       -0.000218579615     0.000316874306    -0.000250227600
       7        0.000019763035     0.000013684981     0.000000167517
       8        0.000004492877    -0.000007951563    -0.000006500908
       9       -0.000005195868     0.000006896687    -0.000002980994
      10        0.000007947162    -0.000006684905    -0.000008150441
      11        0.000004125343     0.000002812077    -0.000006002162
      12       -0.000001861196    -0.000008122895     0.000002456909
      13       -0.000001282032     0.000003533021     0.000003449113
      14       -0.000002129968     0.000003144166    -0.000000274947
      15        0.000001817274    -0.000000840452    -0.000002049633
      16        0.000000834065    -0.000002027769    -0.000000613552
      17       -0.000000021304    -0.000029957408    -0.000133413636
      18        0.000028438907     0.000006550138     0.000027373476
      19        0.000000618213     0.000005202308     0.000021154162
      20       -0.000030367455     0.000005588615     0.000022664515

  **** Optimization is complete! (in 5 steps) ****
    Final optimized geometry and variables:
    Molecular point group: c1

    Geometry (in Angstrom), charge = 0, multiplicity = 1:

    O            1.224306675815     1.282950301069    -0.239438872655
    C            1.123274372893     0.118729245099    -0.021145231871
    C           -0.167593123222    -0.663584698851    -0.019579616811
    O            2.163107111667    -0.665238920477     0.233053804629
    C           -1.410546216957     0.221720703539    -0.039378810472
    H           -0.143451177128    -1.311901489831    -0.892668542929
    H           -0.161012690153    -1.322071019987     0.842967176340
    C           -2.704553148103    -0.593211050698    -0.065166313887
    H           -1.368925963303     0.876772335459    -0.903201065073
    H           -1.403382264579     0.869987000380     0.832292989472
    C           -3.954327858861     0.285807938951    -0.084776122909
    H           -2.706958453317    -1.242290493812    -0.938558069563
    H           -2.739007826571    -1.249423368430     0.802116215599
    H           -3.966033431751     0.929984103916    -0.959133081195
    H           -4.857344255282    -0.316236095797    -0.104361379005
    H           -3.999230259024     0.922213656791     0.794253106196
    C            3.442432823337    -0.058197206018     0.225564881680
    H            3.655618797672     0.368019711917    -0.744195247354
    H            4.144252075669    -0.846163098549     0.450311679010
    H            3.498457186931     0.718231348721     0.974868932216

  Mulliken Charges: (a.u.)
   Center  Symbol    Alpha    Beta     Spin     Total
       1     O     4.28607  4.28607  0.00000 -0.57214
       2     C     2.60487  2.60487  0.00000  0.79026
       3     C     3.20835  3.20835  0.00000 -0.41670
       4     O     4.30711  4.30711  0.00000 -0.61423
       5     C     3.15185  3.15185  0.00000 -0.30371
       6     H     0.40036  0.40036  0.00000  0.19928
       7     H     0.40088  0.40088  0.00000  0.19824
       8     C     3.15416  3.15416  0.00000 -0.30832
       9     H     0.40898  0.40898  0.00000  0.18204
      10     H     0.41464  0.41464  0.00000  0.17071
      11     C     3.23934  3.23934  0.00000 -0.47868
      12     H     0.42285  0.42285  0.00000  0.15430
      13     H     0.42293  0.42293  0.00000  0.15415
      14     H     0.41972  0.41972  0.00000  0.16055
      15     H     0.41871  0.41871  0.00000  0.16258
      16     H     0.42019  0.42019  0.00000  0.15963
      17     C     3.09260  3.09260  0.00000 -0.18520
      18     H     0.40923  0.40923  0.00000  0.18154
      19     H     0.40840  0.40840  0.00000  0.18321
      20     H     0.40877  0.40877  0.00000  0.18247

   Total alpha = 32.00000, Total beta = 32.00000, Total charge =  0.00000
